GROningen MAchine for Chemical Simulation
   12
    1UNL      C    1   0.102   0.006   0.008
    1UNL     C1    2   0.254   0.007   0.005
    1UNL     C2    3   0.307   0.085  -0.114
    1UNL      O    4   0.449   0.084  -0.113
    1UNL      H    5   0.066  -0.050   0.095
    1UNL     H1    6   0.062  -0.042  -0.082
    1UNL     H2    7   0.062   0.107   0.014
    1UNL     H3    8   0.292  -0.095   0.003
    1UNL     H4    9   0.292   0.052   0.098
    1UNL     H5   10   0.273   0.189  -0.113
    1UNL     H6   11   0.274   0.039  -0.208
    1UNL     H7   12   0.478   0.127  -0.031
   0.91610   0.78390   0.80620
