GROningen MAchine for Chemical Simulation
  175
    1PEO     C1    1   0.354   0.142   0.000
    1PEO     H3    2   0.390   0.091  -0.090
    1PEO     H4    3   0.390   0.089   0.089
    1PEO      O    4   0.403   0.276   0.002
    1PEO     C2    5   0.545   0.279   0.002
    1PEO     H5    6   0.584   0.229  -0.087
    1PEO     H6    7   0.584   0.227   0.090
    1PEO     C3    8   0.592   0.424   0.004
    1PEO     H7    9   0.554   0.475   0.093
    1PEO     H8   10   0.554   0.477  -0.084
    1PEO     O1   11   0.735   0.426   0.004
    1PEO     C4   12   0.785   0.560   0.006
    1PEO     H9   13   0.749   0.612   0.095
    1PEO    H10   14   0.749   0.614  -0.082
    1PEO     C5   15   0.937   0.556   0.006
    1PEO    H11   16   0.973   0.503  -0.083
    1PEO    H12   17   0.973   0.501   0.094
    1PEO     O2   18   0.986   0.690   0.008
    1PEO     C6   19   1.129   0.692   0.008
    1PEO    H13   20   1.168   0.641  -0.081
    1PEO    H14   21   1.167   0.639   0.096
    1PEO     C7   22   1.176   0.836   0.010
    1PEO    H15   23   1.137   0.887   0.099
    1PEO    H16   24   1.138   0.889  -0.078
    1PEO     O3   25   1.319   0.839   0.010
    1PEO     C8   26   1.368   0.972   0.012
    1PEO    H17   27   1.332   1.025   0.101
    1PEO    H18   28   1.332   1.027  -0.076
    1PEO     C9   29   1.520   0.969   0.012
    1PEO    H19   30   1.556   0.916  -0.077
    1PEO    H20   31   1.556   0.914   0.100
    1PEO     O4   32   1.571   1.102   0.014
    1PEO    C10   33   1.713   1.103   0.014
    1PEO    H21   34   1.751   1.053  -0.076
    1PEO    H22   35   1.750   1.051   0.102
    2PEO     C1   36   1.758   1.250   0.015
    2PEO     H3   37   1.720   1.299   0.105
    2PEO     H4   38   1.720   1.301  -0.073
    2PEO      O   39   1.901   1.251   0.015
    2PEO     C2   40   1.951   1.385   0.018
    2PEO     H5   41   1.915   1.437   0.108
    2PEO     H6   42   1.915   1.440  -0.069
    2PEO     C3   43   2.103   1.381   0.018
    2PEO     H7   44   2.140   1.330  -0.072
    2PEO     H8   45   2.140   1.326   0.106
    2PEO     O1   46   2.153   1.515   0.021
    2PEO     C4   47   2.295   1.518   0.021
    2PEO     H9   48   2.334   1.468  -0.069
    2PEO    H10   49   2.334   1.464   0.108
    2PEO     C5   50   2.342   1.662   0.024
    2PEO    H11   51   2.304   1.712   0.114
    2PEO    H12   52   2.303   1.716  -0.064
    2PEO     O2   53   2.485   1.665   0.024
    2PEO     C6   54   2.534   1.799   0.026
    2PEO    H13   55   2.498   1.850   0.116
    2PEO    H14   56   2.498   1.854  -0.061
    2PEO     C7   57   2.686   1.795   0.026
    2PEO    H15   58   2.722   1.744  -0.063
    2PEO    H16   59   2.722   1.740   0.114
    2PEO     O3   60   2.735   1.929   0.029
    2PEO     C8   61   2.878   1.931   0.029
    2PEO    H17   62   2.916   1.881  -0.061
    2PEO    H18   63   2.917   1.877   0.116
    2PEO     C9   64   2.925   2.076   0.032
    2PEO    H19   65   2.886   2.125   0.122
    2PEO    H20   66   2.886   2.129  -0.055
    2PEO     O4   67   3.067   2.079   0.032
    2PEO    C10   68   3.116   2.213   0.035
    2PEO    H21   69   3.080   2.264   0.126
    2PEO    H22   70   3.080   2.268  -0.053
    3PEO     C1   71   3.269   2.207   0.035
    3PEO     H3   72   3.304   2.156  -0.055
    3PEO     H4   73   3.304   2.152   0.123
    3PEO      O   74   3.318   2.341   0.038
    3PEO     C2   75   3.460   2.345   0.037
    3PEO     H5   76   3.499   2.295  -0.053
    3PEO     H6   77   3.500   2.291   0.124
    3PEO     C3   78   3.508   2.489   0.041
    3PEO     H7   79   3.470   2.539   0.131
    3PEO     H8   80   3.469   2.544  -0.046
    3PEO     O1   81   3.650   2.491   0.039
    3PEO     C4   82   3.700   2.625   0.043
    3PEO     H9   83   3.665   2.676   0.133
    3PEO    H10   84   3.663   2.681  -0.044
    3PEO     C5   85   3.852   2.621   0.041
    3PEO    H11   86   3.887   2.570  -0.049
    3PEO    H12   87   3.889   2.565   0.128
    3PEO     O2   88   3.902   2.755   0.044
    3PEO     C6   89   4.044   2.757   0.043
    3PEO    H13   90   4.082   2.708  -0.047
    3PEO    H14   91   4.084   2.703   0.130
    3PEO     C7   92   4.091   2.902   0.047
    3PEO    H15   93   4.054   2.951   0.137
    3PEO    H16   94   4.052   2.956  -0.040
    3PEO     O3   95   4.234   2.904   0.045
    3PEO     C8   96   4.283   3.038   0.049
    3PEO    H17   97   4.248   3.089   0.139
    3PEO    H18   98   4.246   3.094  -0.038
    3PEO     C9   99   4.435   3.034   0.047
    3PEO    H19  100   4.470   2.983  -0.044
    3PEO    H20  101   4.472   2.978   0.133
    3PEO     O4  102   4.486   3.167   0.050
    3PEO    C10  103   4.629   3.169   0.049
    3PEO    H21  104   4.665   3.120  -0.042
    3PEO    H22  105   4.667   3.115   0.136
    4PEO     C1  106   4.674   3.315   0.052
    4PEO     H3  107   4.636   3.363   0.143
    4PEO     H4  108   4.634   3.368  -0.035
    4PEO      O  109   4.816   3.317   0.051
    4PEO     C2  110   4.867   3.450   0.055
    4PEO     H5  111   4.832   3.501   0.146
    4PEO     H6  112   4.830   3.507  -0.031
    4PEO     C3  113   5.019   3.447   0.053
    4PEO     H7  114   5.054   3.396  -0.038
    4PEO     H8  115   5.056   3.390   0.139
    4PEO     O1  116   5.068   3.581   0.057
    4PEO     C4  117   5.210   3.583   0.056
    4PEO     H9  118   5.248   3.535  -0.035
    4PEO    H10  119   5.250   3.528   0.142
    4PEO     C5  120   5.257   3.728   0.061
    4PEO    H11  121   5.220   3.776   0.152
    4PEO    H12  122   5.218   3.783  -0.026
    4PEO     O2  123   5.400   3.730   0.059
    4PEO     C6  124   5.449   3.864   0.063
    4PEO    H13  125   5.414   3.914   0.154
    4PEO    H14  126   5.412   3.921  -0.023
    4PEO     C7  127   5.601   3.861   0.062
    4PEO    H15  128   5.636   3.810  -0.029
    4PEO    H16  129   5.638   3.804   0.148
    4PEO     O3  130   5.651   3.994   0.066
    4PEO     C8  131   5.793   3.997   0.064
    4PEO    H17  132   5.831   3.948  -0.027
    4PEO    H18  133   5.833   3.941   0.150
    4PEO     C9  134   5.840   4.141   0.069
    4PEO    H19  135   5.802   4.189   0.160
    4PEO    H20  136   5.800   4.196  -0.017
    4PEO     O4  137   5.983   4.145   0.068
    4PEO    C10  138   6.031   4.279   0.072
    4PEO    H21  139   5.996   4.328   0.164
    4PEO    H22  140   5.994   4.334  -0.015
    5PEO     C1  141   6.185   4.273   0.070
    5PEO     H3  142   6.218   4.223  -0.021
    5PEO     H4  143   6.220   4.216   0.157
    5PEO      O  144   6.233   4.407   0.075
    5PEO     C2  145   6.376   4.410   0.072
    5PEO     H5  146   6.413   4.362  -0.019
    5PEO     H6  147   6.416   4.355   0.158
    5PEO     C3  148   6.423   4.555   0.077
    5PEO     H7  149   6.386   4.603   0.169
    5PEO     H8  150   6.383   4.610  -0.008
    5PEO     O1  151   6.566   4.557   0.075
    5PEO     C4  152   6.615   4.690   0.079
    5PEO     H9  153   6.581   4.740   0.171
    5PEO    H10  154   6.578   4.748  -0.006
    5PEO     C5  155   6.767   4.687   0.076
    5PEO    H11  156   6.802   4.637  -0.015
    5PEO    H12  157   6.805   4.629   0.162
    5PEO     O2  158   6.817   4.820   0.081
    5PEO     C6  159   6.959   4.822   0.078
    5PEO    H13  160   6.996   4.774  -0.013
    5PEO    H14  161   7.000   4.767   0.164
    5PEO     C7  162   7.007   4.967   0.083
    5PEO    H15  163   6.970   5.015   0.175
    5PEO    H16  164   6.966   5.022  -0.002
    5PEO     O3  165   7.149   4.969   0.081
    5PEO     C8  166   7.199   5.103   0.085
    5PEO    H17  167   7.164   5.153   0.177
    5PEO    H18  168   7.161   5.160  -0.000
    5PEO     C9  169   7.351   5.099   0.082
    5PEO    H19  170   7.385   5.050  -0.010
    5PEO    H20  171   7.388   5.042   0.167
    5PEO     O4  172   7.401   5.233   0.087
    5PEO    C10  173   7.544   5.234   0.084
    5PEO    H21  174   7.579   5.187  -0.008
    5PEO    H22  175   7.583   5.179   0.170
   7.72906   5.64521   0.76658
