Generic title in water
 3483
    1PEO     C1    1   2.914   2.933   3.609
    1PEO     H3    2   2.824   2.930   3.547
    1PEO     H4    3   2.885   2.970   3.708
    1PEO      O    4   2.972   2.802   3.618
    1PEO     C2    5   3.107   2.797   3.670
    1PEO     H5    6   3.172   2.868   3.618
    1PEO     H6    7   3.148   2.697   3.653
    1PEO     C3    8   3.109   2.823   3.824
    1PEO     H7    9   3.208   2.796   3.863
    1PEO     H8   10   3.036   2.756   3.871
    1PEO     O1   11   3.078   2.961   3.857
    1PEO     C4   12   3.167   3.065   3.811
    1PEO     H9   13   3.127   3.163   3.842
    1PEO    H10   14   3.172   3.067   3.701
    1PEO     C5   15   3.310   3.049   3.868
    1PEO    H11   16   3.371   3.134   3.837
    1PEO    H12   17   3.356   2.959   3.825
    1PEO     O2   18   3.307   3.038   4.012
    1PEO     C6   19   3.252   3.148   4.089
    1PEO    H13   20   3.253   3.121   4.195
    1PEO    H14   21   3.147   3.167   4.062
    1PEO     C7   22   3.335   3.277   4.070
    1PEO    H15   23   3.441   3.251   4.060
    1PEO    H16   24   3.324   3.339   4.160
    1PEO     O3   25   3.287   3.348   3.954
    1PEO     C8   26   3.331   3.485   3.942
    1PEO    H17   27   3.309   3.541   4.033
    1PEO    H18   28   3.278   3.533   3.859
    1PEO     C9   29   3.482   3.493   3.912
    1PEO    H19   30   3.504   3.592   3.869
    1PEO    H20   31   3.509   3.416   3.838
    1PEO     O4   32   3.555   3.475   4.034
    1PEO    C10   33   3.695   3.511   4.032
    1PEO    H21   34   3.742   3.484   4.128
    1PEO    H22   35   3.706   3.620   4.020
    2PEO     C1   36   3.771   3.441   3.917
    2PEO     H3   37   3.877   3.471   3.921
    2PEO     H4   38   3.732   3.473   3.820
    2PEO      O   39   3.760   3.298   3.932
    2PEO     C2   40   3.826   3.224   3.829
    2PEO     H5   41   3.929   3.258   3.814
    2PEO     H6   42   3.772   3.236   3.734
    2PEO     C3   43   3.827   3.075   3.867
    2PEO     H7   44   3.864   3.018   3.781
    2PEO     H8   45   3.725   3.041   3.890
    2PEO     O1   46   3.914   3.058   3.981
    2PEO     C4   47   3.954   2.923   4.011
    2PEO     H9   48   3.869   2.853   4.003
    2PEO    H10   49   3.990   2.919   4.115
    2PEO     C5   50   4.070   2.881   3.918
    2PEO    H11   51   4.131   2.804   3.967
    2PEO    H12   52   4.136   2.968   3.903
    2PEO     O2   53   4.022   2.835   3.789
    2PEO     C6   54   3.965   2.703   3.783
    2PEO    H13   55   3.925   2.686   3.682
    2PEO    H14   56   3.883   2.690   3.854
    2PEO     C7   57   4.076   2.598   3.810
    2PEO    H15   58   4.084   2.579   3.918
    2PEO    H16   59   4.172   2.639   3.776
    2PEO     O3   60   4.050   2.476   3.738
    2PEO     C8   61   3.935   2.401   3.779
    2PEO    H17   62   3.843   2.456   3.757
    2PEO    H18   63   3.939   2.379   3.887
    2PEO     C9   64   3.937   2.268   3.700
    2PEO    H19   65   4.029   2.213   3.725
    2PEO    H20   66   3.939   2.289   3.592
    2PEO     O4   67   3.823   2.187   3.734
    2PEO    C10   68   3.696   2.235   3.686
    2PEO    H21   69   3.702   2.257   3.579
    2PEO    H22   70   3.667   2.326   3.740
    3PEO     C1   71   3.590   2.125   3.709
    3PEO     H3   72   3.622   2.064   3.794
    3PEO     H4   73   3.586   2.059   3.621
    3PEO      O   74   3.460   2.182   3.738
    3PEO     C2   75   3.386   2.241   3.629
    3PEO     H5   76   3.279   2.238   3.653
    3PEO     H6   77   3.400   2.184   3.536
    3PEO     C3   78   3.425   2.389   3.608
    3PEO     H7   79   3.469   2.429   3.701
    3PEO     H8   80   3.334   2.447   3.587
    3PEO     O1   81   3.517   2.398   3.498
    3PEO     C4   82   3.590   2.521   3.483
    3PEO     H9   83   3.650   2.516   3.392
    3PEO    H10   84   3.659   2.535   3.566
    3PEO     C5   85   3.493   2.642   3.469
    3PEO    H11   86   3.404   2.609   3.414
    3PEO    H12   87   3.540   2.720   3.408
    3PEO     O2   88   3.454   2.694   3.599
    3PEO     C6   89   3.556   2.757   3.681
    3PEO    H13   90   3.636   2.688   3.708
    3PEO    H14   91   3.510   2.791   3.774
    3PEO     C7   92   3.614   2.882   3.612
    3PEO    H15   93   3.653   2.950   3.690
    3PEO    H16   94   3.534   2.934   3.559
    3PEO     O3   95   3.720   2.843   3.524
    3PEO     C8   96   3.802   2.949   3.469
    3PEO    H17   97   3.879   2.905   3.405
    3PEO    H18   98   3.853   3.004   3.549
    3PEO     C9   99   3.717   3.047   3.385
    3PEO    H19  100   3.643   2.990   3.327
    3PEO    H20  101   3.782   3.100   3.315
    3PEO     O4  102   3.653   3.140   3.474
    3PEO    C10  103   3.560   3.230   3.412
    3PEO    H21  104   3.481   3.174   3.360
    3PEO    H22  105   3.611   3.294   3.339
    4PEO     C1  106   3.499   3.316   3.523
    4PEO     H3  107   3.579   3.367   3.579
    4PEO     H4  108   3.444   3.252   3.593
    4PEO      O  109   3.411   3.413   3.464
    4PEO     C2  110   3.344   3.496   3.560
    4PEO     H5  111   3.417   3.539   3.630
    4PEO     H6  112   3.270   3.439   3.616
    4PEO     C3  113   3.276   3.612   3.485
    4PEO     H7  114   3.206   3.574   3.410
    4PEO     H8  115   3.352   3.670   3.431
    4PEO     O1  116   3.210   3.696   3.582
    4PEO     C4  117   3.078   3.655   3.622
    4PEO     H9  118   3.058   3.693   3.723
    4PEO    H10  119   3.068   3.546   3.626
    4PEO     C5  120   2.973   3.718   3.526
    4PEO    H11  121   2.994   3.824   3.515
    4PEO    H12  122   2.873   3.709   3.572
    4PEO     O2  123   2.973   3.655   3.396
    4PEO     C6  124   2.926   3.519   3.391
    4PEO    H13  125   2.833   3.510   3.448
    4PEO    H14  126   3.000   3.449   3.433
    4PEO     C7  127   2.894   3.484   3.244
    4PEO    H15  128   2.821   3.556   3.206
    4PEO    H16  129   2.846   3.385   3.240
    4PEO     O3  130   3.013   3.487   3.160
    4PEO     C8  131   3.117   3.389   3.184
    4PEO    H17  132   3.167   3.407   3.279
    4PEO    H18  133   3.194   3.401   3.106
    4PEO     C9  134   3.063   3.244   3.175
    4PEO    H19  135   3.142   3.177   3.138
    4PEO    H20  136   2.982   3.240   3.100
    4PEO     O4  137   3.013   3.199   3.303
    4PEO    C10  138   3.107   3.183   3.412
    4PEO    H21  139   3.054   3.147   3.501
    4PEO    H22  140   3.154   3.278   3.439
    5PEO     C1  141   3.217   3.080   3.380
    5PEO     H3  142   3.290   3.081   3.461
    5PEO     H4  143   3.270   3.107   3.287
    5PEO      O  144   3.157   2.950   3.371
    5PEO     C2  145   3.248   2.842   3.345
    5PEO     H5  146   3.206   2.747   3.379
    5PEO     H6  147   3.342   2.859   3.399
    5PEO     C3  148   3.276   2.833   3.194
    5PEO     H7  149   3.292   2.933   3.152
    5PEO     H8  150   3.189   2.788   3.144
    5PEO     O1  151   3.394   2.752   3.177
    5PEO     C4  152   3.419   2.703   3.044
    5PEO     H9  153   3.333   2.645   3.007
    5PEO    H10  154   3.505   2.635   3.047
    5PEO     C5  155   3.454   2.820   2.947
    5PEO    H11  156   3.505   2.779   2.859
    5PEO    H12  157   3.524   2.887   2.997
    5PEO     O2  158   3.336   2.892   2.906
    5PEO     C6  159   3.245   2.822   2.819
    5PEO    H13  160   3.201   2.734   2.869
    5PEO    H14  161   3.298   2.787   2.730
    5PEO     C7  162   3.133   2.919   2.775
    5PEO    H15  163   3.086   2.880   2.684
    5PEO    H16  164   3.179   3.015   2.749
    5PEO     O3  165   3.034   2.938   2.879
    5PEO     C8  166   2.945   2.828   2.908
    5PEO    H17  167   2.885   2.852   2.997
    5PEO    H18  168   3.001   2.737   2.932
    5PEO     C9  169   2.851   2.801   2.787
    5PEO    H19  170   2.877   2.704   2.744
    5PEO    H20  171   2.865   2.876   2.709
    5PEO     O4  172   2.713   2.796   2.830
    5PEO    C10  173   2.650   2.921   2.869
    5PEO    H21  174   2.707   2.972   2.948
    5PEO    H22  175   2.551   2.900   2.909
    6PET     C9  176   2.633   3.012   2.744
    6PET     H6  177   2.543   3.074   2.758
    6PET     H7  178   2.617   2.949   2.656
    6PET     O2  179   2.748   3.097   2.727
    6PET     C8  180   2.765   3.201   2.814
    6PET     O1  181   2.685   3.231   2.901
    6PET     C4  182   2.894   3.278   2.794
    6PET     C5  183   2.995   3.233   2.707
    6PET     C6  184   3.116   3.304   2.696
    6PET     H4  185   3.194   3.265   2.630
    6PET     H3  186   2.981   3.142   2.649
    6PET     C3  187   2.914   3.397   2.867
    6PET     H2  188   2.837   3.433   2.935
    6PET     C2  189   3.034   3.469   2.854
    6PET     H1  190   3.048   3.559   2.912
    6PET     C1  191   3.138   3.422   2.771
    6PET     C7  192   3.270   3.495   2.768
    6PET     O3  193   3.293   3.592   2.839
    6PET     O4  194   3.362   3.440   2.683
    6PET    C10  195   3.495   3.494   2.681
    6PET     H8  196   3.538   3.497   2.781
    6PET     H9  197   3.494   3.596   2.640
    6PET    C11  198   3.580   3.403   2.590
    6PET    H10  199   3.682   3.443   2.584
    6PET    H11  200   3.540   3.410   2.489
    6PET    C12  201   3.586   3.253   2.632
    6PET    H13  202   3.609   3.194   2.543
    6PET    H14  203   3.488   3.219   2.666
    7PET     C9  204   3.693   3.219   2.739
    7PET     H6  205   3.792   3.241   2.698
    7PET     H7  206   3.687   3.111   2.760
    7PET     O2  207   3.667   3.295   2.857
    7PET     C8  208   3.756   3.285   2.961
    7PET     O1  209   3.855   3.212   2.960
    7PET     C4  210   3.724   3.377   3.077
    7PET     C5  211   3.604   3.453   3.079
    7PET     C6  212   3.580   3.545   3.182
    7PET     H4  213   3.488   3.604   3.180
    7PET     H3  214   3.530   3.442   3.000
    7PET     C3  215   3.815   3.393   3.184
    7PET     H2  216   3.908   3.336   3.185
    7PET     C2  217   3.790   3.484   3.287
    7PET     H1  218   3.863   3.497   3.367
    7PET     C1  219   3.673   3.563   3.286
    7PET     C7  220   3.650   3.667   3.393
    7PET     O3  221   3.698   3.661   3.505
    7PET     O4  222   3.573   3.770   3.348
    7PET    C10  223   3.543   3.879   3.436
    7PET     H8  224   3.633   3.915   3.488
    7PET     H9  225   3.468   3.849   3.511
    7PET    C11  226   3.488   3.991   3.346
    7PET    H10  227   3.409   3.951   3.281
    7PET    H11  228   3.569   4.023   3.279
    7PET    C12  229   3.434   4.116   3.420
    7PET    H13  230   3.426   4.197   3.348
    7PET    H14  231   3.505   4.148   3.497
    8PET     C9  232   3.295   4.096   3.482
    8PET     H6  233   3.231   4.040   3.413
    8PET     H7  234   3.249   4.194   3.499
    8PET     O2  235   3.307   4.027   3.607
    8PET     C8  236   3.192   4.001   3.676
    8PET     O1  237   3.080   4.030   3.633
    8PET     C4  238   3.213   3.935   3.810
    8PET     C5  239   3.340   3.886   3.850
    8PET     C6  240   3.358   3.828   3.977
    8PET     H4  241   3.457   3.793   4.006
    8PET     H3  242   3.425   3.894   3.783
    8PET     C3  243   3.105   3.923   3.900
    8PET     H2  244   3.007   3.961   3.873
    8PET     C2  245   3.123   3.864   4.026
    8PET     H1  246   3.038   3.858   4.095
    8PET     C1  247   3.249   3.816   4.067
    8PET     C7  248   3.266   3.755   4.204
    8PET     O3  249   3.171   3.734   4.279
    8PET     O4  250   3.395   3.724   4.235
    8PET    C10  251   3.420   3.669   4.365
    8PET     H8  252   3.364   3.576   4.380
    8PET     H9  253   3.391   3.740   4.443
    8PET    C11  254   3.571   3.640   4.375
    8PET    H10  255   3.627   3.728   4.343
    8PET    H11  256   3.596   3.559   4.306
    8PET    C12  257   3.619   3.601   4.518
    8PET    H13  258   3.608   3.688   4.584
    8PET    H14  259   3.726   3.578   4.514
    9PET     C9  260   3.545   3.481   4.582
    9PET     H6  261   3.440   3.509   4.601
    9PET     H7  262   3.592   3.456   4.677
    9PET     O2  263   3.552   3.371   4.490
    9PET     C8  264   3.486   3.256   4.521
    9PET     O1  265   3.421   3.240   4.624
    9PET     C4  266   3.498   3.149   4.416
    9PET     C5  267   3.421   3.031   4.427
    9PET     C6  268   3.429   2.931   4.329
    9PET     H4  269   3.367   2.842   4.340
    9PET     H3  270   3.354   3.018   4.512
    9PET     C3  271   3.584   3.164   4.304
    9PET     H2  272   3.643   3.254   4.292
    9PET     C2  273   3.592   3.062   4.207
    9PET     H1  274   3.658   3.076   4.121
    9PET     C1  275   3.515   2.945   4.218
    9PET     C7  276   3.520   2.840   4.110
    9PET     O3  277   3.601   2.841   4.019
    9PET     O4  278   3.424   2.742   4.124
    9PET    C10  279   3.414   2.644   4.020
    9PET     H8  280   3.501   2.578   4.020
    9PET     H9  281   3.408   2.694   3.923
    9PET    C11  282   3.285   2.564   4.041
    9PET    H10  283   3.202   2.633   4.060
    9PET    H11  284   3.295   2.500   4.129
    9PET    C12  285   3.252   2.479   3.916
    9PET    H13  286   3.335   2.408   3.899
    9PET    H14  287   3.247   2.544   3.829
   10PET     C9  288   3.121   2.399   3.927
   10PET     H6  289   3.039   2.465   3.955
   10PET     H7  290   3.132   2.321   4.003
   10PET     O2  291   3.098   2.343   3.797
   10PET     C8  292   2.997   2.252   3.784
   10PET     O1  293   2.922   2.217   3.874
   10PET     C4  294   2.989   2.196   3.645
   10PET     C5  295   3.020   2.276   3.533
   10PET     C6  296   3.014   2.222   3.403
   10PET     H4  297   3.037   2.286   3.319
   10PET     H3  298   3.048   2.380   3.546
   10PET     C3  299   2.952   2.061   3.625
   10PET     H2  300   2.929   1.998   3.710
   10PET     C2  301   2.947   2.007   3.495
   10PET     H1  302   2.918   1.903   3.482
   10PET     C1  303   2.978   2.087   3.383
   10PET     C7  304   2.971   2.026   3.245
   10PET     O3  305   2.946   1.909   3.225
   10PET     O4  306   2.995   2.116   3.144
   10PET    C10  307   3.001   2.066   3.010
   10PET     H8  308   2.910   2.010   2.986
   10PET     H9  309   3.087   1.999   2.997
   10PET    C11  310   3.012   2.186   2.913
   10PET    H10  311   2.926   2.252   2.928
   10PET    H11  312   3.002   2.146   2.811
   10PET    C12  313   3.144   2.268   2.919
   10PET    H13  314   3.147   2.334   2.832
   10PET    H14  315   3.229   2.200   2.910
   11PET     C9  316   3.163   2.355   3.046
   11PET     H6  317   3.254   2.416   3.034
   11PET     H7  318   3.177   2.290   3.133
   11PET     O2  319   3.047   2.438   3.060
   11PET     C8  320   3.038   2.520   3.169
   11PET     O1  321   3.125   2.527   3.255
   11PET     C4  322   2.909   2.597   3.176
   11PET     C5  323   2.891   2.699   3.271
   11PET     C6  324   2.770   2.770   3.277
   11PET     H4  325   2.759   2.849   3.351
   11PET     H3  326   2.971   2.723   3.341
   11PET     C3  327   2.803   2.568   3.086
   11PET     H2  328   2.813   2.490   3.011
   11PET     C2  329   2.682   2.639   3.093
   11PET     H1  330   2.604   2.616   3.022
   11PET     C1  331   2.664   2.740   3.189
   11PET     C7  332   2.531   2.812   3.197
   11PET     O3  333   2.439   2.788   3.120
   11PET     O4  334   2.523   2.903   3.299
   11PET    C10  335   2.399   2.971   3.323
   11PET     H8  336   2.358   3.014   3.231
   11PET     H9  337   2.415   3.052   3.395
   11PET    C11  338   2.296   2.872   3.385
   11PET    H10  339   2.257   2.806   3.306
   11PET    H11  340   2.210   2.930   3.421
   11PET    C12  341   2.352   2.787   3.501
   11PET    H13  342   2.399   2.853   3.575
   11PET    H14  343   2.431   2.722   3.462
   12PET     C9  344   2.247   2.700   3.574
   12PET     H6  345   2.176   2.766   3.624
   12PET     H7  346   2.297   2.639   3.651
   12PET     O2  347   2.178   2.616   3.480
   12PET     C8  348   2.241   2.507   3.426
   12PET     O1  349   2.356   2.475   3.450
   12PET     C4  350   2.152   2.426   3.333
   12PET     C5  351   2.018   2.462   3.310
   12PET     C6  352   1.937   2.384   3.225
   12PET     H4  353   1.834   2.415   3.209
   12PET     H3  354   1.975   2.550   3.358
   12PET     C3  355   2.204   2.311   3.270
   12PET     H2  356   2.307   2.282   3.287
   12PET     C2  357   2.123   2.233   3.186
   12PET     H1  358   2.165   2.145   3.138
   12PET     C1  359   1.988   2.269   3.163
   12PET     C7  360   1.904   2.185   3.069
   12PET     O3  361   1.943   2.081   3.020
   12PET     O4  362   1.781   2.240   3.042
   12PET    C10  363   1.697   2.174   2.947
   12PET     H8  364   1.660   2.080   2.989
   12PET     H9  365   1.752   2.151   2.855
   12PET    C11  366   1.578   2.266   2.913
   12PET    H10  367   1.536   2.307   3.006
   12PET    H11  368   1.499   2.204   2.870
   12PET    C12  369   1.608   2.382   2.814
   12PET    H13  370   1.512   2.426   2.785
   12PET    H14  371   1.651   2.341   2.721
   13PET     C9  372   1.697   2.495   2.868
   13PET     H6  373   1.668   2.519   2.971
   13PET     H7  374   1.683   2.585   2.806
   13PET     O2  375   1.834   2.453   2.861
   13PET     C8  376   1.928   2.533   2.920
   13PET     O1  377   1.902   2.639   2.976
   13PET     C4  378   2.068   2.476   2.917
   13PET     C5  379   2.095   2.352   2.855
   13PET     C6  380   2.225   2.297   2.859
   13PET     H4  381   2.243   2.200   2.813
   13PET     H3  382   2.016   2.296   2.806
   13PET     C3  383   2.173   2.545   2.980
   13PET     H2  384   2.154   2.641   3.029
   13PET     C2  385   2.303   2.491   2.983
   13PET     H1  386   2.382   2.545   3.034
   13PET     C1  387   2.330   2.366   2.923
   13PET     C7  388   2.468   2.308   2.930
   13PET     O3  389   2.569   2.377   2.932
   13PET     O4  390   2.469   2.171   2.934
   13PET    C10  391   2.592   2.102   2.961
   13PET     H8  392   2.680   2.157   2.925
   13PET     H9  393   2.591   2.005   2.910
   13PET    C11  394   2.603   2.076   3.113
   13PET    H10  395   2.684   2.005   3.130
   13PET    H11  396   2.511   2.026   3.146
   13PET    C12  397   2.627   2.201   3.201
   13PET    H13  398   2.547   2.274   3.185
   13PET    H14  399   2.722   2.249   3.171
   14PET     C9  400   2.632   2.168   3.352
   14PET     H6  401   2.713   2.097   3.372
   14PET     H7  402   2.537   2.122   3.382
   14PET     O2  403   2.652   2.291   3.422
   14PET     C8  404   2.655   2.286   3.559
   14PET     O1  405   2.650   2.182   3.623
   14PET     C4  406   2.662   2.422   3.625
   14PET     C5  407   2.668   2.432   3.766
   14PET     C6  408   2.665   2.557   3.829
   14PET     H4  409   2.667   2.562   3.938
   14PET     H3  410   2.673   2.342   3.826
   14PET     C3  411   2.657   2.541   3.549
   14PET     H2  412   2.651   2.537   3.441
   14PET     C2  413   2.654   2.667   3.613
   14PET     H1  414   2.648   2.757   3.553
   14PET     C1  415   2.654   2.676   3.754
   14PET     C7  416   2.641   2.808   3.826
   14PET     O3  417   2.642   2.817   3.947
   14PET     O4  418   2.623   2.916   3.742
   14PET    C10  419   2.606   3.047   3.799
   14PET     H8  420   2.620   3.122   3.721
   14PET     H9  421   2.680   3.066   3.878
   14PET    C11  422   2.462   3.060   3.853
   14PET    H10  423   2.445   2.987   3.933
   14PET    H11  424   2.392   3.035   3.773
   14PET    C12  425   2.427   3.202   3.907
   14PET    H13  426   2.323   3.199   3.944
   14PET    H14  427   2.427   3.273   3.824
   15PET     C9  428   2.517   3.256   4.020
   15PET     H6  429   2.469   3.345   4.064
   15PET     H7  430   2.615   3.286   3.980
   15PET     O2  431   2.533   3.152   4.117
   15PET     C8  432   2.579   3.182   4.242
   15PET     O1  433   2.596   3.296   4.283
   15PET     C4  434   2.604   3.060   4.327
   15PET     C5  435   2.596   2.930   4.271
   15PET     C6  436   2.622   2.817   4.350
   15PET     H4  437   2.616   2.718   4.303
   15PET     H3  438   2.571   2.917   4.166
   15PET     C3  439   2.637   3.073   4.463
   15PET     H2  440   2.644   3.172   4.509
   15PET     C2  441   2.662   2.959   4.542
   15PET     H1  442   2.687   2.972   4.647
   15PET     C1  443   2.655   2.830   4.486
   15PET     C7  444   2.685   2.709   4.571
   15PET     O3  445   2.689   2.715   4.693
   15PET     O4  446   2.706   2.595   4.499
   15PET    C10  447   2.743   2.477   4.572
   15PET     H8  448   2.664   2.452   4.644
   15PET     H9  449   2.836   2.492   4.628
   15PET    C11  450   2.759   2.359   4.474
   15PET    H10  451   2.672   2.354   4.407
   15PET    H11  452   2.756   2.267   4.533
   15PET    C12  453   2.890   2.356   4.390
   15PET    H13  454   2.910   2.251   4.364
   15PET    H14  455   2.975   2.388   4.452
   16PET     C9  456   2.888   2.435   4.258
   16PET     H6  457   2.793   2.419   4.206
   16PET     H7  458   2.969   2.398   4.193
   16PET     O2  459   2.909   2.575   4.285
   16PET     C8  460   2.906   2.660   4.178
   16PET     O1  461   2.889   2.622   4.063
   16PET     C4  462   2.924   2.805   4.214
   16PET     C5  463   2.956   2.846   4.345
   16PET     C6  464   2.966   2.982   4.376
   16PET     H4  465   2.988   3.012   4.479
   16PET     H3  466   2.971   2.772   4.423
   16PET     C3  467   2.906   2.904   4.115
   16PET     H2  468   2.882   2.874   4.013
   16PET     C2  469   2.915   3.040   4.146
   16PET     H1  470   2.898   3.113   4.067
   16PET     C1  471   2.945   3.081   4.278
   16PET     C7  472   2.950   3.227   4.316
   16PET     O3  473   2.982   3.263   4.428
   16PET     O4  474   2.912   3.313   4.216
   16PET    C10  475   2.900   3.451   4.251
   16PET     H8  476   2.995   3.493   4.285
   16PET     H9  477   2.827   3.463   4.332
   16PET    C11  478   2.849   3.530   4.128
   16PET    H10  479   2.816   3.628   4.164
   16PET    H11  480   2.760   3.481   4.086
   16PET    C12  481   2.955   3.554   4.018
   16PET    H13  482   3.050   3.580   4.065
   16PET    H14  483   2.925   3.641   3.958
   17PET     C9  484   2.979   3.436   3.922
   17PET     H6  485   3.000   3.343   3.978
   17PET     H7  486   3.066   3.459   3.861
   17PET     O2  487   2.863   3.422   3.840
   17PET     C8  488   2.875   3.349   3.725
   17PET     O1  489   2.979   3.298   3.687
   17PET     C4  490   2.748   3.342   3.643
   17PET     C5  491   2.632   3.414   3.681
   17PET     C6  492   2.517   3.410   3.600
   17PET     H4  493   2.429   3.466   3.630
   17PET     H3  494   2.631   3.474   3.772
   17PET     C3  495   2.746   3.266   3.524
   17PET     H2  496   2.833   3.209   3.494
   17PET     C2  497   2.632   3.263   3.443
   17PET     H1  498   2.633   3.205   3.351
   17PET     C1  499   2.516   3.336   3.480
   17PET     C7  500   2.394   3.336   3.392
   17PET     O3  501   2.282   3.362   3.434
   17PET     O4  502   2.421   3.306   3.261
   17PET    C10  503   2.312   3.303   3.169
   17PET     H8  504   2.250   3.393   3.178
   17PET     H9  505   2.248   3.215   3.187
   17PET    C11  506   2.372   3.297   3.027
   17PET    H10  507   2.445   3.216   3.022
   17PET    H11  508   2.426   3.390   3.008
   17PET    C12  509   2.264   3.275   2.919
   17PET    H13  510   2.178   3.340   2.939
   17PET    H14  511   2.229   3.172   2.926
   18PET     C9  512   2.314   3.304   2.775
   18PET     H6  513   2.412   3.257   2.757
   18PET     H7  514   2.326   3.412   2.763
   18PET     O2  515   2.213   3.254   2.684
   18PET     C8  516   2.214   3.119   2.656
   18PET     O1  517   2.307   3.045   2.683
   18PET     C4  518   2.090   3.070   2.587
   18PET     C5  519   2.077   2.932   2.559
   18PET     C6  520   1.962   2.881   2.498
   18PET     H4  521   1.957   2.775   2.479
   18PET     H3  522   2.156   2.863   2.587
   18PET     C3  523   1.983   3.156   2.552
   18PET     H2  524   1.990   3.262   2.573
   18PET     C2  525   1.867   3.105   2.491
   18PET     H1  526   1.786   3.172   2.465
   18PET     C1  527   1.855   2.967   2.463
   18PET     C7  528   1.732   2.912   2.395
   18PET     O3  529   1.639   2.984   2.360
   18PET     O4  530   1.733   2.776   2.378
   18PET    C10  531   1.626   2.716   2.305
   18PET     H8  532   1.633   2.741   2.198
   18PET     H9  533   1.529   2.752   2.342
   18PET    C11  534   1.632   2.563   2.324
   18PET    H10  535   1.541   2.520   2.280
   18PET    H11  536   1.628   2.539   2.431
   18PET    C12  537   1.753   2.490   2.260
   18PET    H13  538   1.767   2.525   2.157
   18PET    H14  539   1.728   2.383   2.254
   19PET     C9  540   1.886   2.503   2.337
   19PET     H6  541   1.870   2.483   2.444
   19PET     H7  542   1.927   2.604   2.326
   19PET     O2  543   1.975   2.405   2.281
   19PET     C8  544   2.097   2.385   2.337
   19PET     O1  545   2.139   2.447   2.435
   19PET     C4  546   2.180   2.279   2.270
   19PET     C5  547   2.131   2.210   2.155
   19PET     C6  548   2.210   2.113   2.092
   19PET     H4  549   2.171   2.062   2.004
   19PET     H3  550   2.033   2.233   2.115
   19PET     C3  551   2.306   2.244   2.320
   19PET     H2  552   2.344   2.294   2.409
   19PET     C2  553   2.385   2.146   2.258
   19PET     H1  554   2.482   2.121   2.301
   19PET     C1  555   2.338   2.079   2.142
   19PET     C7  556   2.420   1.973   2.075
   19PET     O3  557   2.381   1.910   1.976
   19PET     O4  558   2.541   1.950   2.135
   19PET    C10  559   2.627   1.850   2.080
   19PET     H8  560   2.660   1.879   1.980
   19PET     H9  561   2.575   1.753   2.072
   19PET    C11  562   2.750   1.835   2.173
   19PET    H10  563   2.797   1.932   2.187
   19PET    H11  564   2.823   1.773   2.120
   19PET    C12  565   2.721   1.768   2.311
   19PET    H13  566   2.817   1.736   2.354
   19PET    H14  567   2.662   1.677   2.295
   20PET     C9  568   2.650   1.857   2.415
   20PET     H6  569   2.633   1.798   2.506
   20PET     H7  570   2.552   1.891   2.378
   20PET     O2  571   2.736   1.968   2.443
   20PET     C8  572   2.698   2.059   2.539
   20PET     O1  573   2.593   2.050   2.602
   20PET     C4  574   2.797   2.170   2.559
   20PET     C5  575   2.774   2.270   2.657
   20PET     C6  576   2.864   2.376   2.674
   20PET     H4  577   2.843   2.454   2.747
   20PET     H3  578   2.684   2.266   2.718
   20PET     C3  579   2.914   2.179   2.480
   20PET     H2  580   2.936   2.104   2.405
   20PET     C2  581   3.003   2.286   2.496
   20PET     H1  582   3.091   2.291   2.432
   20PET     C1  583   2.978   2.386   2.592
   20PET     C7  584   3.068   2.507   2.600
   20PET     O3  585   3.084   2.574   2.700
   20PET     O4  586   3.126   2.535   2.479
   20PET    C10  587   3.204   2.654   2.466
   20PET     H8  588   3.295   2.649   2.527
   20PET     H9  589   3.146   2.742   2.497
   20PET    C11  590   3.239   2.665   2.316
   20PET    H10  591   3.289   2.761   2.299
   20PET    H11  592   3.146   2.668   2.258
   20PET    C12  593   3.327   2.549   2.262
   20PET    H13  594   3.342   2.564   2.154
   20PET    H14  595   3.274   2.454   2.273
   21PET     C9  596   3.465   2.539   2.330
   21PET     H6  597   3.525   2.462   2.280
   21PET     H7  598   3.452   2.511   2.435
   21PET     O2  599   3.526   2.667   2.317
   21PET     C8  600   3.637   2.699   2.390
   21PET     O1  601   3.689   2.623   2.470
   21PET     C4  602   3.685   2.839   2.363
   21PET     C5  603   3.638   2.908   2.249
   21PET     C6  604   3.679   3.039   2.223
   21PET     H4  605   3.642   3.089   2.133
   21PET     H3  606   3.570   2.861   2.179
   21PET     C3  607   3.775   2.904   2.450
   21PET     H2  608   3.812   2.852   2.538
   21PET     C2  609   3.816   3.036   2.424
   21PET     H1  610   3.885   3.085   2.492
   21PET     C1  611   3.768   3.106   2.311
   21PET     C7  612   3.811   3.247   2.282
   21PET     O3  613   3.879   3.314   2.359
   21PET     O4  614   3.762   3.294   2.163
   21PET    C10  615   3.803   3.423   2.117
   21PET     H8  616   3.910   3.424   2.092
   21PET     H9  617   3.783   3.500   2.192
   21PET    C11  618   3.719   3.453   1.990
   21PET    H10  619   3.744   3.553   1.954
   21PET    H11  620   3.613   3.454   2.019
   21PET    C12  621   3.736   3.351   1.875
   21PET    H13  622   3.707   3.251   1.910
   21PET    H14  623   3.842   3.344   1.847
   22PET     C9  624   3.654   3.389   1.748
   22PET     H6  625   3.724   3.420   1.670
   22PET     H7  626   3.589   3.474   1.769
   22PET     O2  627   3.577   3.276   1.703
   22PET     C8  628   3.466   3.237   1.775
   22PET     O1  629   3.430   3.289   1.879
   22PET     C4  630   3.391   3.122   1.713
   22PET     C5  631   3.414   3.080   1.580
   22PET     C6  632   3.340   2.975   1.524
   22PET     H4  633   3.358   2.946   1.421
   22PET     H3  634   3.487   3.132   1.518
   22PET     C3  635   3.293   3.055   1.789
   22PET     H2  636   3.273   3.086   1.891
   22PET     C2  637   3.219   2.949   1.733
   22PET     H1  638   3.144   2.899   1.793
   22PET     C1  639   3.241   2.908   1.600
   22PET     C7  640   3.163   2.794   1.539
   22PET     O3  641   3.185   2.750   1.428
   22PET     O4  642   3.066   2.745   1.623
   22PET    C10  643   2.993   2.629   1.581
   22PET     H8  644   3.062   2.545   1.562
   22PET     H9  645   2.936   2.648   1.489
   22PET    C11  646   2.898   2.591   1.696
   22PET    H10  647   2.956   2.592   1.790
   22PET    H11  648   2.864   2.488   1.682
   22PET    C12  649   2.774   2.683   1.709
   22PET    H13  650   2.700   2.652   1.635
   22PET    H14  651   2.802   2.787   1.684
   23PET     C9  652   2.710   2.682   1.849
   23PET     H6  653   2.691   2.578   1.881
   23PET     H7  654   2.615   2.737   1.848
   23PET     O2  655   2.805   2.746   1.936
   23PET     C8  656   2.777   2.755   2.069
   23PET     O1  657   2.675   2.712   2.120
   23PET     C4  658   2.886   2.826   2.146
   23PET     C5  659   2.997   2.881   2.080
   23PET     C6  660   3.095   2.952   2.151
   23PET     H4  661   3.179   2.996   2.097
   23PET     H3  662   3.007   2.871   1.972
   23PET     C3  663   2.876   2.841   2.286
   23PET     H2  664   2.791   2.800   2.339
   23PET     C2  665   2.975   2.911   2.358
   23PET     H1  666   2.965   2.922   2.465
   23PET     C1  667   3.084   2.969   2.290
   23PET     C7  668   3.188   3.047   2.366
   23PET     O3  669   3.210   3.029   2.485
   23PET     O4  670   3.257   3.135   2.287
   23PET    C10  671   3.370   3.203   2.344
   23PET     H8  672   3.455   3.133   2.351
   23PET     H9  673   3.348   3.239   2.445
   23PET    C11  674   3.407   3.322   2.254
   23PET    H10  675   3.399   3.293   2.148
   23PET    H11  676   3.513   3.346   2.270
   23PET    C12  677   3.322   3.448   2.282
   23PET    H13  678   3.312   3.461   2.390
   23PET    H14  679   3.221   3.434   2.242
   24PET     C9  680   3.381   3.579   2.225
   24PET     H6  681   3.484   3.589   2.261
   24PET     H7  682   3.323   3.664   2.262
   24PET     O2  683   3.376   3.574   2.082
   24PET     C8  684   3.446   3.670   2.013
   24PET     O1  685   3.519   3.752   2.066
   24PET     C4  686   3.427   3.664   1.863
   24PET     C5  687   3.335   3.575   1.804
   24PET     C6  688   3.315   3.574   1.665
   24PET     H4  689   3.241   3.507   1.623
   24PET     H3  690   3.277   3.507   1.866
   24PET     C3  691   3.500   3.751   1.780
   24PET     H2  692   3.570   3.822   1.823
   24PET     C2  693   3.480   3.750   1.640
   24PET     H1  694   3.535   3.822   1.580
   24PET     C1  695   3.387   3.662   1.582
   24PET     C7  696   3.356   3.666   1.434
   24PET     O3  697   3.284   3.583   1.379
   24PET     O4  698   3.416   3.770   1.367
   24PET    C10  699   3.369   3.802   1.235
   24PET     H8  700   3.359   3.711   1.173
   24PET     H9  701   3.439   3.869   1.184
   24PET    C11  702   3.231   3.872   1.246
   24PET    H10  703   3.164   3.815   1.312
   24PET    H11  704   3.184   3.870   1.147
   24PET    C12  705   3.235   4.020   1.293
   24PET    H13  706   3.133   4.060   1.293
   24PET    H14  707   3.291   4.079   1.219
   25PET     C9  708   3.298   4.047   1.432
   25PET     H6  709   3.292   4.154   1.454
   25PET     H7  710   3.404   4.019   1.432
   25PET     O2  711   3.225   3.972   1.531
   25PET     C8  712   3.265   3.985   1.662
   25PET     O1  713   3.356   4.058   1.697
   25PET     C4  714   3.187   3.900   1.759
   25PET     C5  715   3.089   3.807   1.716
   25PET     C6  716   3.022   3.726   1.808
   25PET     H4  717   2.947   3.655   1.772
   25PET     H3  718   3.066   3.797   1.610
   25PET     C3  719   3.215   3.909   1.897
   25PET     H2  720   3.290   3.979   1.933
   25PET     C2  721   3.148   3.827   1.990
   25PET     H1  722   3.172   3.837   2.096
   25PET     C1  723   3.051   3.734   1.946
   25PET     C7  724   2.976   3.648   2.045
   25PET     O3  725   2.880   3.579   2.014
   25PET     O4  726   3.025   3.656   2.172
   25PET    C10  727   2.947   3.598   2.277
   25PET     H8  728   2.928   3.491   2.260
   25PET     H9  729   2.850   3.649   2.282
   25PET    C11  730   3.023   3.617   2.410
   25PET    H10  731   3.098   3.696   2.398
   25PET    H11  732   3.077   3.525   2.434
   25PET    C12  733   2.932   3.654   2.530
   25PET    H13  734   2.879   3.748   2.508
   25PET    H14  735   2.997   3.675   2.616
   26PET     C9  736   2.830   3.547   2.573
   26PET     H6  737   2.784   3.579   2.667
   26PET     H7  738   2.881   3.451   2.590
   26PET     O2  739   2.731   3.532   2.470
   26PET     C8  740   2.616   3.465   2.503
   26PET     O1  741   2.587   3.431   2.616
   26PET     C4  742   2.526   3.437   2.385
   26PET     C5  743   2.392   3.400   2.407
   26PET     C6  744   2.308   3.366   2.300
   26PET     H4  745   2.205   3.338   2.321
   26PET     H3  746   2.353   3.397   2.509
   26PET     C3  747   2.575   3.439   2.252
   26PET     H2  748   2.678   3.466   2.231
   26PET     C2  749   2.491   3.404   2.145
   26PET     H1  750   2.530   3.406   2.043
   26PET     C1  751   2.356   3.367   2.168
   26PET     C7  752   2.267   3.329   2.052
   26PET     O3  753   2.307   3.318   1.937
   26PET     O4  754   2.137   3.308   2.089
   26PET    C10  755   2.040   3.281   1.987
   26PET     H8  756   2.072   3.201   1.920
   26PET     H9  757   2.023   3.371   1.926
   26PET    C11  758   1.908   3.242   2.057
   26PET    H10  759   1.830   3.230   1.981
   26PET    H11  760   1.877   3.327   2.120
   26PET    C12  761   1.914   3.114   2.145
   26PET    H13  762   1.827   3.116   2.211
   26PET    H14  763   2.002   3.117   2.211
   27PET     C9  764   1.911   2.980   2.069
   27PET     H6  765   1.820   2.976   2.007
   27PET     H7  766   1.907   2.897   2.141
   27PET     O2  767   2.028   2.970   1.987
   27PET     C8  768   2.038   2.862   1.903
   27PET     O1  769   1.952   2.776   1.894
   27PET     C4  770   2.163   2.863   1.818
   27PET     C5  771   2.254   2.970   1.822
   27PET     C6  772   2.364   2.973   1.734
   27PET     H4  773   2.431   3.059   1.737
   27PET     H3  774   2.240   3.053   1.890
   27PET     C3  775   2.187   2.756   1.729
   27PET     H2  776   2.117   2.672   1.725
   27PET     C2  777   2.298   2.758   1.643
   27PET     H1  778   2.313   2.676   1.573
   27PET     C1  779   2.386   2.868   1.643
   27PET     C7  780   2.500   2.872   1.544
   27PET     O3  781   2.531   2.776   1.475
   27PET     O4  782   2.564   2.993   1.539
   27PET    C10  783   2.674   3.007   1.447
   27PET     H8  784   2.643   2.986   1.344
   27PET     H9  785   2.754   2.936   1.474
   27PET    C11  786   2.724   3.152   1.457
   27PET    H10  787   2.724   3.184   1.562
   27PET    H11  788   2.652   3.217   1.406
   27PET    C12  789   2.865   3.176   1.397
   27PET    H13  790   2.891   3.282   1.408
   27PET    H14  791   2.862   3.156   1.290
   28PET     C9  792   2.977   3.089   1.460
   28PET     H6  793   3.076   3.125   1.428
   28PET     H7  794   2.967   2.986   1.425
   28PET     O2  795   2.963   3.092   1.604
   28PET     C8  796   3.005   3.203   1.673
   28PET     O1  797   3.070   3.295   1.623
   28PET     C4  798   2.965   3.199   1.818
   28PET     C5  799   2.851   3.126   1.860
   28PET     C6  800   2.811   3.127   1.995
   28PET     H4  801   2.723   3.070   2.024
   28PET     H3  802   2.793   3.070   1.787
   28PET     C3  803   3.038   3.272   1.915
   28PET     H2  804   3.125   3.329   1.885
   28PET     C2  805   2.999   3.270   2.050
   28PET     H1  806   3.058   3.325   2.123
   28PET     C1  807   2.885   3.198   2.092
   28PET     C7  808   2.846   3.195   2.238
   28PET     O3  809   2.916   3.242   2.326
   28PET     O4  810   2.725   3.136   2.261
   28PET    C10  811   2.681   3.119   2.397
   28PET     H8  812   2.690   3.213   2.453
   28PET     H9  813   2.742   3.044   2.448
   28PET    C11  814   2.534   3.075   2.393
   28PET    H10  815   2.476   3.151   2.338
   28PET    H11  816   2.494   3.073   2.495
   28PET    C12  817   2.509   2.938   2.326
   28PET    H13  818   2.565   2.860   2.379
   28PET    H14  819   2.548   2.941   2.223
   29PET     C9  820   2.361   2.899   2.321
   29PET     H6  821   2.301   2.982   2.282
   29PET     H7  822   2.325   2.874   2.422
   29PET     O2  823   2.351   2.786   2.233
   29PET     C8  824   2.227   2.736   2.204
   29PET     O1  825   2.124   2.777   2.253
   29PET     C4  826   2.231   2.625   2.101
   29PET     C5  827   2.353   2.577   2.051
   29PET     C6  828   2.356   2.476   1.954
   29PET     H4  829   2.452   2.441   1.916
   29PET     H3  830   2.448   2.618   2.086
   29PET     C3  831   2.111   2.571   2.052
   29PET     H2  832   2.015   2.608   2.089
   29PET     C2  833   2.113   2.470   1.954
   29PET     H1  834   2.018   2.429   1.918
   29PET     C1  835   2.235   2.420   1.905
   29PET     C7  836   2.237   2.308   1.804
   29PET     O3  837   2.137   2.272   1.743
   29PET     O4  838   2.360   2.252   1.790
   29PET    C10  839   2.375   2.140   1.701
   29PET     H8  840   2.351   2.167   1.598
   29PET     H9  841   2.309   2.058   1.732
   29PET    C11  842   2.522   2.095   1.713
   29PET    H10  843   2.534   1.997   1.665
   29PET    H11  844   2.545   2.081   1.819
   29PET    C12  845   2.622   2.195   1.649
   29PET    H13  846   2.580   2.296   1.648
   29PET    H14  847   2.638   2.168   1.544
   30PET     C9  848   2.758   2.202   1.721
   30PET     H6  849   2.827   2.264   1.662
   30PET     H7  850   2.802   2.101   1.730
   30PET     O2  851   2.734   2.260   1.850
   30PET     C8  852   2.841   2.298   1.926
   30PET     O1  853   2.957   2.288   1.890
   30PET     C4  854   2.800   2.356   2.059
   30PET     C5  855   2.895   2.425   2.138
   30PET     C6  856   2.858   2.481   2.261
   30PET     H4  857   2.931   2.535   2.320
   30PET     H3  858   2.997   2.435   2.103
   30PET     C3  859   2.668   2.344   2.107
   30PET     H2  860   2.593   2.291   2.049
   30PET     C2  861   2.631   2.400   2.230
   30PET     H1  862   2.528   2.393   2.264
   30PET     C1  863   2.726   2.468   2.309
   30PET     C7  864   2.688   2.527   2.443
   30PET     O3  865   2.756   2.610   2.501
   30PET     O4  866   2.572   2.473   2.494
   30PET    C10  867   2.525   2.517   2.623
   30PET     H8  868   2.607   2.523   2.696
   30PET     H9  869   2.452   2.444   2.661
   30PET    C11  870   2.456   2.653   2.609
   30PET    H10  871   2.383   2.650   2.527
   30PET    H11  872   2.530   2.730   2.584
   30PET    C12  873   2.384   2.693   2.739
   30PET    H13  874   2.341   2.793   2.729
   30PET    H14  875   2.455   2.696   2.822
   31SOL     OW  876   5.810   0.603   0.147
   31SOL    HW1  877   5.750   0.534   0.174
   31SOL    HW2  878   5.827   0.586   0.054
   32SOL     OW  879   0.673   0.829   0.643
   32SOL    HW1  880   0.663   0.822   0.738
   32SOL    HW2  881   0.609   0.894   0.617
   33SOL     OW  882   0.211   1.379   0.930
   33SOL    HW1  883   0.159   1.307   0.896
   33SOL    HW2  884   0.302   1.351   0.917
   34SOL     OW  885   0.160   0.754   0.394
   34SOL    HW1  886   0.147   0.691   0.465
   34SOL    HW2  887   0.172   0.838   0.439
   35SOL     OW  888   0.204   0.889   1.302
   35SOL    HW1  889   0.242   0.801   1.306
   35SOL    HW2  890   0.256   0.935   1.237
   36SOL     OW  891   1.443   1.400   0.912
   36SOL    HW1  892   1.460   1.377   1.003
   36SOL    HW2  893   1.417   1.317   0.871
   37SOL     OW  894   1.594   1.727   0.676
   37SOL    HW1  895   1.544   1.804   0.648
   37SOL    HW2  896   1.530   1.656   0.679
   38SOL     OW  897   0.867   0.552   1.230
   38SOL    HW1  898   0.786   0.511   1.259
   38SOL    HW2  899   0.871   0.532   1.136
   39SOL     OW  900   1.245   1.372   0.570
   39SOL    HW1  901   1.151   1.352   0.567
   39SOL    HW2  902   1.287   1.302   0.521
   40SOL     OW  903   0.211   1.809   0.964
   40SOL    HW1  904   0.283   1.795   1.025
   40SOL    HW2  905   0.153   1.734   0.978
   41SOL     OW  906   0.925   0.329   0.500
   41SOL    HW1  907   0.947   0.255   0.556
   41SOL    HW2  908   0.956   0.304   0.413
   42SOL     OW  909   1.379   1.566   0.702
   42SOL    HW1  910   1.332   1.504   0.646
   42SOL    HW2  911   1.396   1.518   0.783
   43SOL     OW  912   0.482   1.016   0.596
   43SOL    HW1  913   0.389   0.995   0.598
   43SOL    HW2  914   0.487   1.103   0.557
   44SOL     OW  915   1.335   1.839   0.640
   44SOL    HW1  916   1.263   1.865   0.697
   44SOL    HW2  917   1.338   1.743   0.648
   45SOL     OW  918   0.697   0.098   1.225
   45SOL    HW1  919   0.627   0.041   1.193
   45SOL    HW2  920   0.662   0.186   1.218
   46SOL     OW  921   0.607   0.477   0.442
   46SOL    HW1  922   0.570   0.393   0.414
   46SOL    HW2  923   0.539   0.541   0.419
   47SOL     OW  924   0.385   1.246   0.461
   47SOL    HW1  925   0.310   1.198   0.497
   47SOL    HW2  926   0.370   1.249   0.367
   48SOL     OW  927   1.519   0.501   0.426
   48SOL    HW1  928   1.513   0.525   0.519
   48SOL    HW2  929   1.503   0.583   0.379
   49SOL     OW  930   0.731   0.575   0.960
   49SOL    HW1  931   0.720   0.652   1.016
   49SOL    HW2  932   0.681   0.506   1.004
   50SOL     OW  933   0.922   1.785   1.885
   50SOL    HW1  934   0.863   1.839   1.831
   50SOL    HW2  935   0.960   1.723   1.822
   51SOL     OW  936   0.886   0.741   0.499
   51SOL    HW1  937   0.819   0.794   0.543
   51SOL    HW2  938   0.947   0.804   0.462
   52SOL     OW  939   1.342   1.085   1.291
   52SOL    HW1  940   1.255   1.098   1.329
   52SOL    HW2  941   1.401   1.128   1.353
   53SOL     OW  942   1.803   1.623   1.016
   53SOL    HW1  943   1.810   1.665   1.101
   53SOL    HW2  944   1.786   1.531   1.036
   54SOL     OW  945   0.087   1.163   0.828
   54SOL    HW1  946   0.031   1.092   0.859
   54SOL    HW2  947   0.113   1.135   0.740
   55SOL     OW  948   1.042   0.939   0.396
   55SOL    HW1  949   1.131   0.969   0.413
   55SOL    HW2  950   1.004   1.006   0.339
   56SOL     OW  951   1.503   1.287   1.168
   56SOL    HW1  952   1.520   1.297   1.261
   56SOL    HW2  953   1.444   1.212   1.162
   57SOL     OW  954   1.477   0.858   1.220
   57SOL    HW1  955   1.428   0.938   1.241
   57SOL    HW2  956   1.410   0.791   1.208
   58SOL     OW  957   1.402   1.216   0.110
   58SOL    HW1  958   1.310   1.212   0.085
   58SOL    HW2  959   1.404   1.186   0.201
   59SOL     OW  960   1.529   1.217   1.441
   59SOL    HW1  961   1.491   1.206   1.528
   59SOL    HW2  962   1.615   1.178   1.447
   60SOL     OW  963   1.743   0.898   1.252
   60SOL    HW1  964   1.648   0.885   1.244
   60SOL    HW2  965   1.781   0.838   1.189
   61SOL     OW  966   1.763   1.078   1.454
   61SOL    HW1  967   1.806   1.027   1.523
   61SOL    HW2  968   1.759   1.018   1.379
   62SOL     OW  969   0.335   0.645   1.259
   62SOL    HW1  970   0.420   0.604   1.277
   62SOL    HW2  971   0.295   0.589   1.192
   63SOL     OW  972   0.683   1.802   1.334
   63SOL    HW1  973   0.697   1.835   1.423
   63SOL    HW2  974   0.662   1.710   1.346
   64SOL     OW  975   0.474   0.258   3.441
   64SOL    HW1  976   0.546   0.226   3.496
   64SOL    HW2  977   0.410   0.187   3.442
   65SOL     OW  978   0.308   1.375   2.348
   65SOL    HW1  979   0.299   1.456   2.397
   65SOL    HW2  980   0.224   1.331   2.358
   66SOL     OW  981   0.619   1.061   2.155
   66SOL    HW1  982   0.561   1.135   2.136
   66SOL    HW2  983   0.634   1.066   2.249
   67SOL     OW  984   0.069   0.502   2.464
   67SOL    HW1  985  -0.021   0.532   2.460
   67SOL    HW2  986   0.122   0.582   2.471
   68SOL     OW  987   0.832   5.763   2.317
   68SOL    HW1  988   0.737   5.760   2.328
   68SOL    HW2  989   0.859   5.671   2.315
   69SOL     OW  990   0.721   0.813   2.123
   69SOL    HW1  991   0.686   0.902   2.127
   69SOL    HW2  992   0.697   0.782   2.036
   70SOL     OW  993  -0.027   1.971   3.250
   70SOL    HW1  994   0.008   1.930   3.330
   70SOL    HW2  995   0.031   2.045   3.234
   71SOL     OW  996   1.050   1.550   2.435
   71SOL    HW1  997   1.017   1.604   2.363
   71SOL    HW2  998   1.000   1.468   2.428
   72SOL     OW  999   0.537   1.295   3.424
   72SOL    HW1 1000   0.494   1.327   3.344
   72SOL    HW2 1001   0.490   1.338   3.495
   73SOL     OW 1002   1.052   1.898   2.098
   73SOL    HW1 1003   1.026   1.831   2.161
   73SOL    HW2 1004   1.014   1.868   2.015
   74SOL     OW 1005   0.671   0.180   3.607
   74SOL    HW1 1006   0.661   0.096   3.652
   74SOL    HW2 1007   0.758   0.211   3.633
   75SOL     OW 1008   1.352   0.634   3.445
   75SOL    HW1 1009   1.289   0.562   3.443
   75SOL    HW2 1010   1.415   0.612   3.375
   76SOL     OW 1011   0.911   0.592   2.518
   76SOL    HW1 1012   0.893   0.669   2.464
   76SOL    HW2 1013   0.829   0.573   2.562
   77SOL     OW 1014   1.411   1.153   1.678
   77SOL    HW1 1015   1.391   1.063   1.701
   77SOL    HW2 1016   1.375   1.205   1.749
   78SOL     OW 1017   1.214   1.602   2.652
   78SOL    HW1 1018   1.161   1.572   2.578
   78SOL    HW2 1019   1.212   1.697   2.645
   79SOL     OW 1020   0.521   1.281   2.498
   79SOL    HW1 1021   0.514   1.345   2.569
   79SOL    HW2 1022   0.451   1.304   2.437
   80SOL     OW 1023   0.449   1.276   2.134
   80SOL    HW1 1024   0.402   1.310   2.210
   80SOL    HW2 1025   0.412   1.324   2.060
   81SOL     OW 1026   1.621   1.612   3.428
   81SOL    HW1 1027   1.578   1.692   3.459
   81SOL    HW2 1028   1.658   1.636   3.343
   82SOL     OW 1029   0.645   1.046   2.432
   82SOL    HW1 1030   0.620   1.136   2.454
   82SOL    HW2 1031   0.577   0.992   2.471
   83SOL     OW 1032   1.331   1.505   2.881
   83SOL    HW1 1033   1.249   1.495   2.930
   83SOL    HW2 1034   1.303   1.534   2.794
   84SOL     OW 1035   1.761   0.430   2.233
   84SOL    HW1 1036   1.778   0.521   2.210
   84SOL    HW2 1037   1.763   0.383   2.150
   85SOL     OW 1038   0.410   1.418   3.216
   85SOL    HW1 1039   0.336   1.400   3.159
   85SOL    HW2 1040   0.452   1.496   3.179
   86SOL     OW 1041   0.413   0.152   3.780
   86SOL    HW1 1042   0.477   0.083   3.794
   86SOL    HW2 1043   0.465   0.226   3.747
   87SOL     OW 1044   0.211   1.404   3.026
   87SOL    HW1 1045   0.133   1.349   3.019
   87SOL    HW2 1046   0.216   1.450   2.943
   88SOL     OW 1047   1.644   0.068   2.215
   88SOL    HW1 1048   1.618  -0.020   2.187
   88SOL    HW2 1049   1.673   0.112   2.135
   89SOL     OW 1050   1.338   0.903   1.760
   89SOL    HW1 1051   1.391   0.823   1.763
   89SOL    HW2 1052   1.248   0.873   1.776
   90SOL     OW 1053   1.178   0.426   3.414
   90SOL    HW1 1054   1.088   0.453   3.397
   90SOL    HW2 1055   1.175   0.330   3.416
   91SOL     OW 1056   1.689   1.670   3.174
   91SOL    HW1 1057   1.724   1.742   3.122
   91SOL    HW2 1058   1.649   1.611   3.110
   92SOL     OW 1059   0.150   0.244   2.420
   92SOL    HW1 1060   0.123   0.333   2.441
   92SOL    HW2 1061   0.068   0.194   2.423
   93SOL     OW 1062   0.807   0.809   2.384
   93SOL    HW1 1063   0.775   0.896   2.406
   93SOL    HW2 1064   0.785   0.797   2.292
   94SOL     OW 1065   1.521   1.398   3.269
   94SOL    HW1 1066   1.560   1.467   3.323
   94SOL    HW2 1067   1.540   1.425   3.179
   95SOL     OW 1068   0.196   0.110   2.132
   95SOL    HW1 1069   0.102   0.108   2.149
   95SOL    HW2 1070   0.204   0.089   2.039
   96SOL     OW 1071   0.732   0.981   3.335
   96SOL    HW1 1072   0.705   0.892   3.358
   96SOL    HW2 1073   0.786   0.970   3.256
   97SOL     OW 1074   1.337   1.248   3.395
   97SOL    HW1 1075   1.265   1.311   3.390
   97SOL    HW2 1076   1.409   1.291   3.349
   98SOL     OW 1077   1.571   1.488   3.005
   98SOL    HW1 1078   1.485   1.501   2.966
   98SOL    HW2 1079   1.620   1.438   2.939
   99SOL     OW 1080   1.144   0.459   2.571
   99SOL    HW1 1081   1.195   0.535   2.600
   99SOL    HW2 1082   1.059   0.495   2.546
  100SOL     OW 1083   1.530   0.224   2.511
  100SOL    HW1 1084   1.541   0.202   2.603
  100SOL    HW2 1085   1.435   0.221   2.497
  101SOL     OW 1086   0.914   1.682   2.223
  101SOL    HW1 1087   0.894   1.660   2.133
  101SOL    HW2 1088   0.833   1.719   2.257
  102SOL     OW 1089   0.709   1.018   4.543
  102SOL    HW1 1090   0.630   0.974   4.575
  102SOL    HW2 1091   0.676   1.095   4.496
  103SOL     OW 1092   0.099   1.451   4.290
  103SOL    HW1 1093   0.064   1.538   4.273
  103SOL    HW2 1094   0.074   1.432   4.381
  104SOL     OW 1095   0.501   1.831   5.126
  104SOL    HW1 1096   0.416   1.787   5.128
  104SOL    HW2 1097   0.507   1.877   5.210
  105SOL     OW 1098   1.511   1.719   4.255
  105SOL    HW1 1099   1.498   1.803   4.210
  105SOL    HW2 1100   1.503   1.653   4.187
  106SOL     OW 1101   1.225   1.886   4.008
  106SOL    HW1 1102   1.294   1.882   4.074
  106SOL    HW2 1103   1.251   1.957   3.949
  107SOL     OW 1104   1.677   1.460   3.651
  107SOL    HW1 1105   1.669   1.512   3.571
  107SOL    HW2 1106   1.593   1.415   3.659
  108SOL     OW 1107   1.668   5.748   4.026
  108SOL    HW1 1108   1.630   5.662   4.040
  108SOL    HW2 1109   1.596   5.801   3.992
  109SOL     OW 1110   0.700   1.438   5.095
  109SOL    HW1 1111   0.651   1.463   5.017
  109SOL    HW2 1112   0.772   1.502   5.099
  110SOL     OW 1113   0.186   0.027   3.855
  110SOL    HW1 1114   0.260   0.078   3.821
  110SOL    HW2 1115   0.170   0.065   3.941
  111SOL     OW 1116   0.561   1.208   4.408
  111SOL    HW1 1117   0.484   1.258   4.434
  111SOL    HW2 1118   0.556   1.201   4.313
  112SOL     OW 1119   1.538   1.344   4.615
  112SOL    HW1 1120   1.485   1.319   4.690
  112SOL    HW2 1121   1.528   1.272   4.553
  113SOL     OW 1122   1.111   0.010   5.151
  113SOL    HW1 1123   1.027  -0.036   5.156
  113SOL    HW2 1124   1.140   0.017   5.242
  114SOL     OW 1125   0.649   1.002   5.393
  114SOL    HW1 1126   0.736   1.001   5.433
  114SOL    HW2 1127   0.645   1.086   5.347
  115SOL     OW 1128   0.936   0.869   4.592
  115SOL    HW1 1129   0.940   0.890   4.685
  115SOL    HW2 1130   0.862   0.921   4.559
  116SOL     OW 1131   0.299   0.989   5.565
  116SOL    HW1 1132   0.266   1.079   5.566
  116SOL    HW2 1133   0.263   0.949   5.644
  117SOL     OW 1134   1.309   0.865   3.580
  117SOL    HW1 1135   1.305   0.841   3.673
  117SOL    HW2 1136   1.327   0.782   3.535
  118SOL     OW 1137   5.864   1.274   4.118
  118SOL    HW1 1138   5.910   1.337   4.173
  118SOL    HW2 1139   5.861   1.315   4.032
  119SOL     OW 1140   5.906   0.537   4.988
  119SOL    HW1 1141   5.882   0.473   4.920
  119SOL    HW2 1142   5.823   0.569   5.021
  120SOL     OW 1143   0.427   1.351   5.431
  120SOL    HW1 1144   0.437   1.432   5.482
  120SOL    HW2 1145   0.349   1.310   5.468
  121SOL     OW 1146   1.281   0.810   3.846
  121SOL    HW1 1147   1.194   0.794   3.882
  121SOL    HW2 1148   1.339   0.812   3.922
  122SOL     OW 1149   1.834   0.089   4.286
  122SOL    HW1 1150   1.884   0.168   4.267
  122SOL    HW2 1151   1.828   0.086   4.381
  123SOL     OW 1152   0.623   1.240   5.275
  123SOL    HW1 1153   0.554   1.285   5.323
  123SOL    HW2 1154   0.653   1.305   5.210
  124SOL     OW 1155   1.215   0.131   4.926
  124SOL    HW1 1156   1.146   0.184   4.886
  124SOL    HW2 1157   1.175   0.095   5.005
  125SOL     OW 1158   0.384   0.812   5.195
  125SOL    HW1 1159   0.400   0.844   5.106
  125SOL    HW2 1160   0.332   0.733   5.182
  126SOL     OW 1161   1.483   1.855   4.690
  126SOL    HW1 1162   1.535   1.889   4.763
  126SOL    HW2 1163   1.423   1.926   4.668
  127SOL     OW 1164   0.762   1.322   3.660
  127SOL    HW1 1165   0.762   1.397   3.719
  127SOL    HW2 1166   0.855   1.305   3.642
  128SOL     OW 1167   0.199   1.250   5.549
  128SOL    HW1 1168   0.116   1.266   5.505
  128SOL    HW2 1169   0.177   1.243   5.642
  129SOL     OW 1170   1.651   1.590   4.580
  129SOL    HW1 1171   1.607   1.506   4.584
  129SOL    HW2 1172   1.717   1.586   4.649
  130SOL     OW 1173   0.242   0.589   5.143
  130SOL    HW1 1174   0.243   0.503   5.185
  130SOL    HW2 1175   0.169   0.585   5.081
  131SOL     OW 1176   0.712   1.711   4.326
  131SOL    HW1 1177   0.726   1.616   4.331
  131SOL    HW2 1178   0.632   1.726   4.377
  132SOL     OW 1179   1.478   0.073   4.893
  132SOL    HW1 1180   1.513   0.149   4.846
  132SOL    HW2 1181   1.384   0.092   4.903
  133SOL     OW 1182   1.609   1.275   5.821
  133SOL    HW1 1183   1.593   1.370   5.824
  133SOL    HW2 1184   1.544   1.238   5.880
  134SOL     OW 1185   0.119   1.198   5.800
  134SOL    HW1 1186   0.075   1.225   5.880
  134SOL    HW2 1187   0.131   1.104   5.809
  135SOL     OW 1188   0.533   2.114   1.688
  135SOL    HW1 1189   0.599   2.047   1.670
  135SOL    HW2 1190   0.470   2.071   1.746
  136SOL     OW 1191   0.206   2.885   0.735
  136SOL    HW1 1192   0.226   2.831   0.812
  136SOL    HW2 1193   0.214   2.975   0.766
  137SOL     OW 1194   0.666   3.454   0.613
  137SOL    HW1 1195   0.617   3.459   0.695
  137SOL    HW2 1196   0.600   3.435   0.547
  138SOL     OW 1197   0.384   2.610   0.278
  138SOL    HW1 1198   0.468   2.656   0.280
  138SOL    HW2 1199   0.384   2.561   0.196
  139SOL     OW 1200   1.025   2.201   0.245
  139SOL    HW1 1201   0.982   2.273   0.198
  139SOL    HW2 1202   1.006   2.124   0.192
  140SOL     OW 1203   1.180   3.430   0.502
  140SOL    HW1 1204   1.184   3.502   0.439
  140SOL    HW2 1205   1.087   3.422   0.523
  141SOL     OW 1206   0.521   3.486   0.841
  141SOL    HW1 1207   0.497   3.432   0.917
  141SOL    HW2 1208   0.477   3.570   0.857
  142SOL     OW 1209   0.695   3.663   0.420
  142SOL    HW1 1210   0.608   3.625   0.404
  142SOL    HW2 1211   0.723   3.622   0.502
  143SOL     OW 1212   1.141   2.207   0.491
  143SOL    HW1 1213   1.105   2.205   0.402
  143SOL    HW2 1214   1.064   2.218   0.547
  144SOL     OW 1215   1.451   3.268   0.717
  144SOL    HW1 1216   1.403   3.187   0.736
  144SOL    HW2 1217   1.540   3.238   0.697
  145SOL     OW 1218   0.443   3.148   0.272
  145SOL    HW1 1219   0.450   3.237   0.306
  145SOL    HW2 1220   0.406   3.158   0.185
  146SOL     OW 1221   1.439   2.273   0.322
  146SOL    HW1 1222   1.402   2.250   0.237
  146SOL    HW2 1223   1.508   2.336   0.301
  147SOL     OW 1224   0.892   1.990   1.322
  147SOL    HW1 1225   0.823   1.932   1.290
  147SOL    HW2 1226   0.905   1.964   1.413
  148SOL     OW 1227   0.402   2.932   0.421
  148SOL    HW1 1228   0.418   3.013   0.371
  148SOL    HW2 1229   0.398   2.961   0.512
  149SOL     OW 1230   0.360   2.392   0.857
  149SOL    HW1 1231   0.345   2.456   0.787
  149SOL    HW2 1232   0.394   2.444   0.930
  150SOL     OW 1233   0.428   3.372   1.071
  150SOL    HW1 1234   0.356   3.394   1.130
  150SOL    HW2 1235   0.473   3.299   1.114
  151SOL     OW 1236   0.457   2.566   1.046
  151SOL    HW1 1237   0.548   2.594   1.053
  151SOL    HW2 1238   0.419   2.586   1.131
  152SOL     OW 1239   1.984   3.349   1.669
  152SOL    HW1 1240   1.946   3.385   1.590
  152SOL    HW2 1241   2.079   3.353   1.655
  153SOL     OW 1242   1.136   3.362   0.810
  153SOL    HW1 1243   1.095   3.330   0.891
  153SOL    HW2 1244   1.062   3.377   0.751
  154SOL     OW 1245   0.270   2.760   0.970
  154SOL    HW1 1246   0.335   2.691   0.981
  154SOL    HW2 1247   0.254   2.792   1.059
  155SOL     OW 1248   1.720   2.383   1.157
  155SOL    HW1 1249   1.741   2.337   1.237
  155SOL    HW2 1250   1.780   2.458   1.155
  156SOL     OW 1251   0.301   2.132   0.898
  156SOL    HW1 1252   0.316   2.223   0.873
  156SOL    HW2 1253   0.350   2.120   0.979
  157SOL     OW 1254   0.589   2.788   0.274
  157SOL    HW1 1255   0.618   2.850   0.206
  157SOL    HW2 1256   0.541   2.842   0.337
  158SOL     OW 1257   0.102   2.811   1.731
  158SOL    HW1 1258   0.093   2.759   1.651
  158SOL    HW2 1259   0.073   2.753   1.801
  159SOL     OW 1260   0.773   2.194   1.486
  159SOL    HW1 1261   0.816   2.171   1.403
  159SOL    HW2 1262   0.777   2.113   1.537
  160SOL     OW 1263   0.052   1.996   0.601
  160SOL    HW1 1264   0.002   2.068   0.561
  160SOL    HW2 1265   0.042   1.923   0.539
  161SOL     OW 1266   0.720   2.423   1.801
  161SOL    HW1 1267   0.682   2.463   1.880
  161SOL    HW2 1268   0.811   2.407   1.824
  162SOL     OW 1269   0.282   2.969   1.603
  162SOL    HW1 1270   0.214   2.921   1.651
  162SOL    HW2 1271   0.332   3.015   1.670
  163SOL     OW 1272   0.576   3.047   1.569
  163SOL    HW1 1273   0.573   3.103   1.492
  163SOL    HW2 1274   0.657   3.071   1.614
  164SOL     OW 1275   0.451   2.427   1.493
  164SOL    HW1 1276   0.363   2.389   1.485
  164SOL    HW2 1277   0.446   2.510   1.447
  165SOL     OW 1278   0.938   3.440   0.638
  165SOL    HW1 1279   0.954   3.532   0.660
  165SOL    HW2 1280   0.843   3.433   0.628
  166SOL     OW 1281   0.761   3.618   0.162
  166SOL    HW1 1282   0.745   3.641   0.254
  166SOL    HW2 1283   0.851   3.646   0.146
  167SOL     OW 1284   0.744   2.811   2.603
  167SOL    HW1 1285   0.762   2.766   2.685
  167SOL    HW2 1286   0.702   2.746   2.548
  168SOL     OW 1287   0.662   2.323   3.573
  168SOL    HW1 1288   0.718   2.355   3.503
  168SOL    HW2 1289   0.597   2.268   3.528
  169SOL     OW 1290   0.584   3.764   3.268
  169SOL    HW1 1291   0.508   3.712   3.293
  169SOL    HW2 1292   0.639   3.703   3.219
  170SOL     OW 1293   1.380   3.080   2.751
  170SOL    HW1 1294   1.394   2.986   2.761
  170SOL    HW2 1295   1.411   3.100   2.663
  171SOL     OW 1296   1.592   2.307   3.776
  171SOL    HW1 1297   1.517   2.281   3.830
  171SOL    HW2 1298   1.578   2.261   3.693
  172SOL     OW 1299   1.462   3.141   2.504
  172SOL    HW1 1300   1.515   3.091   2.442
  172SOL    HW2 1301   1.416   3.204   2.449
  173SOL     OW 1302   0.783   3.232   2.447
  173SOL    HW1 1303   0.724   3.288   2.397
  173SOL    HW2 1304   0.861   3.286   2.462
  174SOL     OW 1305   0.387   3.690   2.132
  174SOL    HW1 1306   0.371   3.596   2.143
  174SOL    HW2 1307   0.480   3.701   2.150
  175SOL     OW 1308   0.617   2.673   2.383
  175SOL    HW1 1309   0.656   2.621   2.312
  175SOL    HW2 1310   0.524   2.650   2.381
  176SOL     OW 1311   0.933   2.242   3.633
  176SOL    HW1 1312   0.954   2.276   3.546
  176SOL    HW2 1313   0.838   2.252   3.640
  177SOL     OW 1314   0.999   2.173   2.102
  177SOL    HW1 1315   0.913   2.189   2.142
  177SOL    HW2 1316   1.005   2.078   2.095
  178SOL     OW 1317   1.287   3.408   2.654
  178SOL    HW1 1318   1.202   3.430   2.616
  178SOL    HW2 1319   1.345   3.399   2.578
  179SOL     OW 1320   0.956   2.397   1.942
  179SOL    HW1 1321   0.899   2.441   2.005
  179SOL    HW2 1322   0.986   2.318   1.987
  180SOL     OW 1323   0.146   2.176   3.218
  180SOL    HW1 1324   0.215   2.177   3.151
  180SOL    HW2 1325   0.153   2.262   3.261
  181SOL     OW 1326   0.751   2.224   2.199
  181SOL    HW1 1327   0.663   2.200   2.229
  181SOL    HW2 1328   0.743   2.317   2.176
  182SOL     OW 1329   0.952   3.106   3.447
  182SOL    HW1 1330   0.934   3.168   3.518
  182SOL    HW2 1331   0.964   3.022   3.491
  183SOL     OW 1332   0.754   2.893   2.283
  183SOL    HW1 1333   0.701   2.816   2.300
  183SOL    HW2 1334   0.798   2.875   2.200
  184SOL     OW 1335   1.135   2.273   3.216
  184SOL    HW1 1336   1.167   2.352   3.258
  184SOL    HW2 1337   1.040   2.275   3.231
  185SOL     OW 1338   1.507   2.168   2.229
  185SOL    HW1 1339   1.491   2.186   2.321
  185SOL    HW2 1340   1.423   2.136   2.196
  186SOL     OW 1341   1.715   2.175   2.049
  186SOL    HW1 1342   1.658   2.180   1.972
  186SOL    HW2 1343   1.655   2.173   2.123
  187SOL     OW 1344   0.832   2.617   3.105
  187SOL    HW1 1345   0.869   2.674   3.172
  187SOL    HW2 1346   0.824   2.532   3.148
  188SOL     OW 1347   1.322   3.339   2.372
  188SOL    HW1 1348   1.331   3.377   2.285
  188SOL    HW2 1349   1.231   3.354   2.396
  189SOL     OW 1350   0.974   3.181   3.184
  189SOL    HW1 1351   0.980   3.163   3.277
  189SOL    HW2 1352   0.896   3.135   3.155
  190SOL     OW 1353   0.131   1.895   2.671
  190SOL    HW1 1354   0.067   1.900   2.600
  190SOL    HW2 1355   0.171   1.809   2.660
  191SOL     OW 1356   0.873   2.796   2.060
  191SOL    HW1 1357   0.934   2.773   1.990
  191SOL    HW2 1358   0.822   2.716   2.073
  192SOL     OW 1359   0.203   3.117   3.468
  192SOL    HW1 1360   0.183   3.087   3.379
  192SOL    HW2 1361   0.296   3.097   3.479
  193SOL     OW 1362   1.258   2.085   2.160
  193SOL    HW1 1363   1.215   2.001   2.141
  193SOL    HW2 1364   1.190   2.150   2.147
  194SOL     OW 1365   0.812   2.668   2.832
  194SOL    HW1 1366   0.852   2.584   2.809
  194SOL    HW2 1367   0.806   2.666   2.927
  195SOL     OW 1368   0.012   3.181   3.656
  195SOL    HW1 1369   0.075   3.160   3.587
  195SOL    HW2 1370  -0.073   3.167   3.615
  196SOL     OW 1371   1.464   3.308   3.002
  196SOL    HW1 1372   1.532   3.242   3.014
  196SOL    HW2 1373   1.486   3.377   3.064
  197SOL     OW 1374   1.339   2.114   3.122
  197SOL    HW1 1375   1.351   2.072   3.207
  197SOL    HW2 1376   1.263   2.171   3.135
  198SOL     OW 1377   1.811   2.797   4.385
  198SOL    HW1 1378   1.843   2.708   4.401
  198SOL    HW2 1379   1.742   2.786   4.319
  199SOL     OW 1380   0.983   2.010   3.964
  199SOL    HW1 1381   0.919   1.981   4.029
  199SOL    HW2 1382   1.060   1.956   3.981
  200SOL     OW 1383   0.700   2.458   3.805
  200SOL    HW1 1384   0.682   2.407   3.726
  200SOL    HW2 1385   0.666   2.546   3.785
  201SOL     OW 1386   1.357   2.080   4.606
  201SOL    HW1 1387   1.305   2.158   4.586
  201SOL    HW2 1388   1.430   2.084   4.544
  202SOL     OW 1389   1.871   2.467   5.493
  202SOL    HW1 1390   1.827   2.514   5.422
  202SOL    HW2 1391   1.805   2.460   5.562
  203SOL     OW 1392   1.466   1.959   4.131
  203SOL    HW1 1393   1.450   2.026   4.065
  203SOL    HW2 1394   1.508   2.005   4.204
  204SOL     OW 1395   1.526   2.365   5.425
  204SOL    HW1 1396   1.574   2.332   5.500
  204SOL    HW2 1397   1.453   2.304   5.415
  205SOL     OW 1398   1.012   3.407   4.413
  205SOL    HW1 1399   1.102   3.411   4.379
  205SOL    HW2 1400   1.022   3.369   4.501
  206SOL     OW 1401   0.671   1.787   4.917
  206SOL    HW1 1402   0.615   1.801   4.993
  206SOL    HW2 1403   0.655   1.863   4.861
  207SOL     OW 1404   0.850   1.906   4.185
  207SOL    HW1 1405   0.794   1.837   4.221
  207SOL    HW2 1406   0.911   1.926   4.256
  208SOL     OW 1407   0.185   3.139   4.049
  208SOL    HW1 1408   0.180   3.229   4.081
  208SOL    HW2 1409   0.224   3.090   4.121
  209SOL     OW 1410   1.191   3.457   4.208
  209SOL    HW1 1411   1.249   3.528   4.182
  209SOL    HW2 1412   1.209   3.387   4.146
  210SOL     OW 1413   1.682   2.561   5.319
  210SOL    HW1 1414   1.623   2.493   5.352
  210SOL    HW2 1415   1.629   2.611   5.257
  211SOL     OW 1416   1.018   3.483   5.313
  211SOL    HW1 1417   0.995   3.572   5.288
  211SOL    HW2 1418   0.938   3.432   5.296
  212SOL     OW 1419   5.698   3.243   3.941
  212SOL    HW1 1420   5.689   3.315   4.003
  212SOL    HW2 1421   5.609   3.228   3.909
  213SOL     OW 1422   0.907   2.347   3.939
  213SOL    HW1 1423   0.881   2.359   4.031
  213SOL    HW2 1424   0.838   2.388   3.888
  214SOL     OW 1425   0.078   3.076   5.463
  214SOL    HW1 1426   0.123   3.028   5.532
  214SOL    HW2 1427   0.034   3.008   5.412
  215SOL     OW 1428   1.926   3.558   4.780
  215SOL    HW1 1429   1.951   3.651   4.784
  215SOL    HW2 1430   1.841   3.555   4.823
  216SOL     OW 1431   0.684   3.510   4.137
  216SOL    HW1 1432   0.721   3.461   4.064
  216SOL    HW2 1433   0.592   3.484   4.139
  217SOL     OW 1434   0.175   2.859   5.621
  217SOL    HW1 1435   0.167   2.864   5.716
  217SOL    HW2 1436   0.265   2.829   5.605
  218SOL     OW 1437   1.211   3.273   4.009
  218SOL    HW1 1438   1.229   3.191   3.964
  218SOL    HW2 1439   1.122   3.296   3.983
  219SOL     OW 1440   0.904   3.275   3.654
  219SOL    HW1 1441   0.902   3.272   3.749
  219SOL    HW2 1442   0.898   3.369   3.633
  220SOL     OW 1443   1.966   3.262   4.560
  220SOL    HW1 1444   1.878   3.239   4.530
  220SOL    HW2 1445   2.018   3.184   4.543
  221SOL     OW 1446   0.358   3.624   0.068
  221SOL    HW1 1447   0.330   3.609   0.159
  221SOL    HW2 1448   0.324   3.710   0.046
  222SOL     OW 1449   1.486   3.063   5.710
  222SOL    HW1 1450   1.454   2.990   5.657
  222SOL    HW2 1451   1.412   3.124   5.714
  223SOL     OW 1452   0.504   3.354   5.812
  223SOL    HW1 1453   0.448   3.282   5.843
  223SOL    HW2 1454   0.481   3.363   5.719
  224SOL     OW 1455   0.323   3.169   0.018
  224SOL    HW1 1456   0.310   3.075   0.020
  224SOL    HW2 1457   0.235   3.206   0.013
  225SOL     OW 1458   0.709   4.952   1.755
  225SOL    HW1 1459   0.679   4.994   1.835
  225SOL    HW2 1460   0.657   4.873   1.748
  226SOL     OW 1461   0.292   5.032   1.166
  226SOL    HW1 1462   0.224   5.099   1.177
  226SOL    HW2 1463   0.348   5.067   1.096
  227SOL     OW 1464   0.292   4.830   1.352
  227SOL    HW1 1465   0.386   4.812   1.360
  227SOL    HW2 1466   0.286   4.896   1.283
  228SOL     OW 1467   0.226   4.463   0.539
  228SOL    HW1 1468   0.305   4.496   0.582
  228SOL    HW2 1469   0.245   4.468   0.445
  229SOL     OW 1470   0.975   4.339   1.164
  229SOL    HW1 1471   0.899   4.347   1.106
  229SOL    HW2 1472   0.954   4.394   1.239
  230SOL     OW 1473   1.024   3.689   0.702
  230SOL    HW1 1474   1.118   3.710   0.695
  230SOL    HW2 1475   0.984   3.771   0.732
  231SOL     OW 1476   1.508   4.874   0.993
  231SOL    HW1 1477   1.422   4.835   1.009
  231SOL    HW2 1478   1.490   4.947   0.934
  232SOL     OW 1479   1.450   4.128   0.901
  232SOL    HW1 1480   1.389   4.177   0.955
  232SOL    HW2 1481   1.533   4.175   0.908
  233SOL     OW 1482   1.732   4.812   1.140
  233SOL    HW1 1483   1.746   4.893   1.190
  233SOL    HW2 1484   1.655   4.830   1.086
  234SOL     OW 1485   0.907   4.805   1.631
  234SOL    HW1 1486   0.849   4.858   1.685
  234SOL    HW2 1487   0.994   4.820   1.667
  235SOL     OW 1488   1.647   4.079   0.656
  235SOL    HW1 1489   1.681   4.135   0.726
  235SOL    HW2 1490   1.693   4.107   0.577
  236SOL     OW 1491   0.388   5.528   1.017
  236SOL    HW1 1492   0.309   5.528   0.963
  236SOL    HW2 1493   0.419   5.438   1.014
  237SOL     OW 1494   0.698   5.258   0.775
  237SOL    HW1 1495   0.758   5.332   0.781
  237SOL    HW2 1496   0.626   5.280   0.834
  238SOL     OW 1497   0.223   5.262   1.735
  238SOL    HW1 1498   0.246   5.254   1.642
  238SOL    HW2 1499   0.216   5.172   1.765
  239SOL     OW 1500   1.113   4.602   0.238
  239SOL    HW1 1501   1.047   4.608   0.307
  239SOL    HW2 1502   1.176   4.538   0.271
  240SOL     OW 1503   0.730   5.307   1.480
  240SOL    HW1 1504   0.690   5.346   1.558
  240SOL    HW2 1505   0.734   5.380   1.417
  241SOL     OW 1506   0.754   5.029   1.487
  241SOL    HW1 1507   0.732   5.024   1.580
  241SOL    HW2 1508   0.748   5.122   1.466
  242SOL     OW 1509   1.109   5.499   5.787
  242SOL    HW1 1510   1.139   5.545   5.865
  242SOL    HW2 1511   1.067   5.420   5.821
  243SOL     OW 1512   1.736   5.064   1.264
  243SOL    HW1 1513   1.785   5.102   1.336
  243SOL    HW2 1514   1.673   5.132   1.239
  244SOL     OW 1515   1.774   4.200   1.360
  244SOL    HW1 1516   1.791   4.106   1.348
  244SOL    HW2 1517   1.778   4.213   1.455
  245SOL     OW 1518   0.265   4.734   1.791
  245SOL    HW1 1519   0.236   4.741   1.700
  245SOL    HW2 1520   0.358   4.713   1.784
  246SOL     OW 1521   0.555   4.738   1.402
  246SOL    HW1 1522   0.534   4.722   1.494
  246SOL    HW2 1523   0.551   4.652   1.361
  247SOL     OW 1524   0.472   4.559   0.615
  247SOL    HW1 1525   0.536   4.520   0.675
  247SOL    HW2 1526   0.504   4.648   0.602
  248SOL     OW 1527   1.060   4.752   0.015
  248SOL    HW1 1528   1.025   4.826   0.064
  248SOL    HW2 1529   1.087   4.689   0.081
  249SOL     OW 1530   1.866   3.950   1.282
  249SOL    HW1 1531   1.901   3.868   1.248
  249SOL    HW2 1532   1.905   4.018   1.225
  250SOL     OW 1533   1.232   3.669   0.376
  250SOL    HW1 1534   1.264   3.735   0.315
  250SOL    HW2 1535   1.266   3.696   0.462
  251SOL     OW 1536   5.868   4.131   2.515
  251SOL    HW1 1537   5.908   4.116   2.429
  251SOL    HW2 1538   5.789   4.078   2.515
  252SOL     OW 1539   0.848   4.544   3.585
  252SOL    HW1 1540   0.804   4.595   3.653
  252SOL    HW2 1541   0.928   4.592   3.567
  253SOL     OW 1542   0.263   5.254   2.774
  253SOL    HW1 1543   0.253   5.189   2.704
  253SOL    HW2 1544   0.354   5.247   2.800
  254SOL     OW 1545   0.180   4.301   2.611
  254SOL    HW1 1546   0.109   4.239   2.598
  254SOL    HW2 1547   0.206   4.328   2.523
  255SOL     OW 1548   1.388   5.133   2.879
  255SOL    HW1 1549   1.311   5.149   2.824
  255SOL    HW2 1550   1.433   5.060   2.838
  256SOL     OW 1551   0.699   4.406   1.850
  256SOL    HW1 1552   0.636   4.478   1.851
  256SOL    HW2 1553   0.682   4.358   1.931
  257SOL     OW 1554   0.744   4.359   3.413
  257SOL    HW1 1555   0.778   4.423   3.475
  257SOL    HW2 1556   0.734   4.408   3.331
  258SOL     OW 1557   0.659   3.744   2.173
  258SOL    HW1 1558   0.718   3.715   2.243
  258SOL    HW2 1559   0.712   3.735   2.093
  259SOL     OW 1560   0.857   3.668   2.345
  259SOL    HW1 1561   0.907   3.734   2.393
  259SOL    HW2 1562   0.897   3.584   2.370
  260SOL     OW 1563   0.603   4.032   3.300
  260SOL    HW1 1564   0.599   3.936   3.292
  260SOL    HW2 1565   0.558   4.065   3.222
  261SOL     OW 1566   1.478   4.905   2.743
  261SOL    HW1 1567   1.448   4.822   2.780
  261SOL    HW2 1568   1.428   4.914   2.662
  262SOL     OW 1569   0.496   3.971   2.171
  262SOL    HW1 1570   0.563   3.903   2.180
  262SOL    HW2 1571   0.520   4.037   2.236
  263SOL     OW 1572   1.151   5.156   2.406
  263SOL    HW1 1573   1.168   5.068   2.439
  263SOL    HW2 1574   1.203   5.161   2.325
  264SOL     OW 1575   0.450   4.683   3.992
  264SOL    HW1 1576   0.544   4.679   3.979
  264SOL    HW2 1577   0.414   4.698   3.905
  265SOL     OW 1578   1.182   5.139   2.691
  265SOL    HW1 1579   1.198   5.048   2.666
  265SOL    HW2 1580   1.161   5.184   2.609
  266SOL     OW 1581   0.056   5.399   2.885
  266SOL    HW1 1582   0.038   5.454   2.810
  266SOL    HW2 1583   0.128   5.343   2.857
  267SOL     OW 1584   1.721   4.107   3.188
  267SOL    HW1 1585   1.754   4.186   3.232
  267SOL    HW2 1586   1.712   4.132   3.096
  268SOL     OW 1587   0.115   4.767   2.018
  268SOL    HW1 1588   0.166   4.765   1.937
  268SOL    HW2 1589   0.125   4.679   2.055
  269SOL     OW 1590   1.308   5.323   4.298
  269SOL    HW1 1591   1.344   5.237   4.319
  269SOL    HW2 1592   1.226   5.305   4.252
  270SOL     OW 1593   0.862   3.706   4.207
  270SOL    HW1 1594   0.841   3.797   4.228
  270SOL    HW2 1595   0.778   3.668   4.181
  271SOL     OW 1596   0.807   4.120   3.686
  271SOL    HW1 1597   0.816   4.204   3.732
  271SOL    HW2 1598   0.845   4.056   3.746
  272SOL     OW 1599   1.839   4.758   4.877
  272SOL    HW1 1600   1.815   4.748   4.785
  272SOL    HW2 1601   1.841   4.669   4.912
  273SOL     OW 1602   0.494   5.528   4.013
  273SOL    HW1 1603   0.456   5.530   4.101
  273SOL    HW2 1604   0.424   5.561   3.956
  274SOL     OW 1605   1.348   3.651   4.099
  274SOL    HW1 1606   1.368   3.630   4.008
  274SOL    HW2 1607   1.383   3.739   4.111
  275SOL     OW 1608   0.240   4.664   4.183
  275SOL    HW1 1609   0.311   4.689   4.123
  275SOL    HW2 1610   0.256   4.572   4.201
  276SOL     OW 1611   0.956   4.165   4.562
  276SOL    HW1 1612   0.931   4.255   4.545
  276SOL    HW2 1613   0.915   4.143   4.646
  277SOL     OW 1614   0.831   4.363   3.797
  277SOL    HW1 1615   0.848   4.422   3.723
  277SOL    HW2 1616   0.806   4.422   3.869
  278SOL     OW 1617   1.738   4.220   4.759
  278SOL    HW1 1618   1.645   4.240   4.760
  278SOL    HW2 1619   1.778   4.285   4.817
  279SOL     OW 1620   2.017   4.424   4.054
  279SOL    HW1 1621   2.048   4.515   4.049
  279SOL    HW2 1622   1.925   4.432   4.079
  280SOL     OW 1623   0.928   3.728   5.229
  280SOL    HW1 1624   0.843   3.769   5.245
  280SOL    HW2 1625   0.982   3.797   5.191
  281SOL     OW 1626   0.062   4.880   4.643
  281SOL    HW1 1627   0.141   4.837   4.675
  281SOL    HW2 1628   0.036   4.939   4.714
  282SOL     OW 1629   0.984   5.015   5.270
  282SOL    HW1 1630   0.911   5.075   5.283
  282SOL    HW2 1631   1.027   5.046   5.190
  283SOL     OW 1632   1.775   5.449   4.915
  283SOL    HW1 1633   1.753   5.358   4.896
  283SOL    HW2 1634   1.866   5.447   4.945
  284SOL     OW 1635   0.776   5.396   4.012
  284SOL    HW1 1636   0.842   5.329   4.029
  284SOL    HW2 1637   0.693   5.347   4.011
  285SOL     OW 1638   0.694   3.864   5.267
  285SOL    HW1 1639   0.666   3.903   5.350
  285SOL    HW2 1640   0.613   3.857   5.216
  286SOL     OW 1641   1.776   4.634   5.230
  286SOL    HW1 1642   1.762   4.728   5.234
  286SOL    HW2 1643   1.755   4.610   5.140
  287SOL     OW 1644   0.759   5.011   3.734
  287SOL    HW1 1645   0.728   4.923   3.714
  287SOL    HW2 1646   0.736   5.063   3.656
  288SOL     OW 1647   0.642   5.545   4.447
  288SOL    HW1 1648   0.659   5.602   4.522
  288SOL    HW2 1649   0.669   5.458   4.477
  289SOL     OW 1650   0.767   5.169   5.320
  289SOL    HW1 1651   0.718   5.090   5.345
  289SOL    HW2 1652   0.751   5.231   5.392
  290SOL     OW 1653   1.717   5.191   4.860
  290SOL    HW1 1654   1.647   5.126   4.871
  290SOL    HW2 1655   1.797   5.140   4.864
  291SOL     OW 1656   0.008   4.755   4.313
  291SOL    HW1 1657  -0.050   4.754   4.237
  291SOL    HW2 1658   0.093   4.730   4.278
  292SOL     OW 1659   0.237   3.529   5.711
  292SOL    HW1 1660   0.231   3.621   5.683
  292SOL    HW2 1661   0.280   3.533   5.796
  293SOL     OW 1662   0.690   5.228   5.587
  293SOL    HW1 1663   0.618   5.242   5.648
  293SOL    HW2 1664   0.693   5.133   5.575
  294SOL     OW 1665   0.967   4.742   5.640
  294SOL    HW1 1666   0.875   4.744   5.664
  294SOL    HW2 1667   1.013   4.736   5.724
  295SOL     OW 1668   0.495   5.752   1.147
  295SOL    HW1 1669   0.467   5.673   1.101
  295SOL    HW2 1670   0.419   5.811   1.142
  296SOL     OW 1671   0.713   5.560   1.352
  296SOL    HW1 1672   0.639   5.588   1.297
  296SOL    HW2 1673   0.772   5.635   1.353
  297SOL     OW 1674   1.738   0.105   1.700
  297SOL    HW1 1675   1.664   0.159   1.670
  297SOL    HW2 1676   1.758   0.140   1.787
  298SOL     OW 1677   0.147   5.793   3.549
  298SOL    HW1 1678   0.092   5.796   3.471
  298SOL    HW2 1679   0.226   5.745   3.521
  299SOL     OW 1680   1.091   0.157   2.300
  299SOL    HW1 1681   1.151   0.154   2.226
  299SOL    HW2 1682   1.147   0.176   2.375
  300SOL     OW 1683   1.247   0.215   2.524
  300SOL    HW1 1684   1.214   0.304   2.537
  300SOL    HW2 1685   1.217   0.167   2.601
  301SOL     OW 1686   1.822   0.185   3.980
  301SOL    HW1 1687   1.807   0.241   3.904
  301SOL    HW2 1688   1.876   0.238   4.039
  302SOL     OW 1689   0.768   5.606   4.204
  302SOL    HW1 1690   0.803   5.518   4.189
  302SOL    HW2 1691   0.722   5.599   4.288
  303SOL     OW 1692   1.274   5.747   5.396
  303SOL    HW1 1693   1.331   5.773   5.469
  303SOL    HW2 1694   1.210   5.688   5.435
  304SOL     OW 1695   0.343   5.675   3.833
  304SOL    HW1 1696   0.429   5.707   3.805
  304SOL    HW2 1697   0.289   5.753   3.840
  305SOL     OW 1698   0.417   5.546   4.275
  305SOL    HW1 1699   0.340   5.535   4.331
  305SOL    HW2 1700   0.491   5.550   4.335
  306SOL     OW 1701   1.361   5.761   5.136
  306SOL    HW1 1702   1.348   5.741   5.229
  306SOL    HW2 1703   1.280   5.804   5.109
  307SOL     OW 1704   1.763   5.682   5.062
  307SOL    HW1 1705   1.774   5.599   5.016
  307SOL    HW2 1706   1.845   5.694   5.110
  308SOL     OW 1707   1.561   5.588   4.828
  308SOL    HW1 1708   1.526   5.546   4.750
  308SOL    HW2 1709   1.638   5.536   4.852
  309SOL     OW 1710   1.021   0.229   0.267
  309SOL    HW1 1711   0.987   0.201   0.182
  309SOL    HW2 1712   1.114   0.205   0.265
  310SOL     OW 1713   1.098   5.590   5.530
  310SOL    HW1 1714   1.013   5.551   5.507
  310SOL    HW2 1715   1.113   5.563   5.620
  311SOL     OW 1716   1.636   0.086   0.293
  311SOL    HW1 1717   1.697   0.012   0.287
  311SOL    HW2 1718   1.554   0.051   0.258
  312SOL     OW 1719   2.789   0.703   0.684
  312SOL    HW1 1720   2.875   0.700   0.641
  312SOL    HW2 1721   2.792   0.783   0.737
  313SOL     OW 1722   2.958   0.806   1.830
  313SOL    HW1 1723   3.009   0.848   1.900
  313SOL    HW2 1724   2.992   0.846   1.749
  314SOL     OW 1725   2.457   1.222   0.629
  314SOL    HW1 1726   2.463   1.157   0.699
  314SOL    HW2 1727   2.499   1.300   0.666
  315SOL     OW 1728   2.638   5.791   0.462
  315SOL    HW1 1729   2.722   5.811   0.419
  315SOL    HW2 1730   2.585   5.869   0.448
  316SOL     OW 1731   3.041   1.063   0.865
  316SOL    HW1 1732   3.069   1.154   0.861
  316SOL    HW2 1733   3.123   1.013   0.876
  317SOL     OW 1734   3.324   0.441   1.169
  317SOL    HW1 1735   3.313   0.452   1.075
  317SOL    HW2 1736   3.406   0.485   1.190
  318SOL     OW 1737   2.519   0.146   0.403
  318SOL    HW1 1738   2.540   0.171   0.313
  318SOL    HW2 1739   2.496   0.228   0.446
  319SOL     OW 1740   2.318   0.891   1.107
  319SOL    HW1 1741   2.354   0.969   1.065
  319SOL    HW2 1742   2.272   0.924   1.184
  320SOL     OW 1743   2.363   1.102   0.409
  320SOL    HW1 1744   2.396   1.150   0.485
  320SOL    HW2 1745   2.337   1.017   0.444
  321SOL     OW 1746   2.355   0.600   0.805
  321SOL    HW1 1747   2.420   0.592   0.736
  321SOL    HW2 1748   2.292   0.529   0.788
  322SOL     OW 1749   2.660   0.696   0.950
  322SOL    HW1 1750   2.698   0.631   0.890
  322SOL    HW2 1751   2.718   0.772   0.942
  323SOL     OW 1752   2.805   0.915   0.857
  323SOL    HW1 1753   2.728   0.972   0.861
  323SOL    HW2 1754   2.879   0.975   0.864
  324SOL     OW 1755   3.009   0.344   1.725
  324SOL    HW1 1756   3.043   0.256   1.710
  324SOL    HW2 1757   3.050   0.398   1.658
  325SOL     OW 1758   2.605   0.490   0.371
  325SOL    HW1 1759   2.697   0.508   0.352
  325SOL    HW2 1760   2.577   0.433   0.299
  326SOL     OW 1761   2.227   1.812   1.772
  326SOL    HW1 1762   2.288   1.846   1.838
  326SOL    HW2 1763   2.177   1.745   1.819
  327SOL     OW 1764   1.755   1.369   1.091
  327SOL    HW1 1765   1.805   1.292   1.116
  327SOL    HW2 1766   1.664   1.345   1.109
  328SOL     OW 1767   3.654   1.807   1.498
  328SOL    HW1 1768   3.655   1.826   1.404
  328SOL    HW2 1769   3.650   1.893   1.540
  329SOL     OW 1770   3.057   1.663   0.033
  329SOL    HW1 1771   3.032   1.743   0.080
  329SOL    HW2 1772   3.149   1.651   0.054
  330SOL     OW 1773   3.547   0.326   1.433
  330SOL    HW1 1774   3.550   0.401   1.374
  330SOL    HW2 1775   3.454   0.302   1.436
  331SOL     OW 1776   2.783   0.611   1.878
  331SOL    HW1 1777   2.846   0.680   1.860
  331SOL    HW2 1778   2.702   0.657   1.897
  332SOL     OW 1779   2.156   1.935   1.538
  332SOL    HW1 1780   2.189   1.871   1.476
  332SOL    HW2 1781   2.175   1.897   1.624
  333SOL     OW 1782   3.588   0.871   1.325
  333SOL    HW1 1783   3.592   0.777   1.309
  333SOL    HW2 1784   3.563   0.909   1.240
  334SOL     OW 1785   2.548   0.586   0.621
  334SOL    HW1 1786   2.632   0.628   0.639
  334SOL    HW2 1787   2.557   0.551   0.533
  335SOL     OW 1788   3.676   0.964   1.567
  335SOL    HW1 1789   3.589   0.985   1.602
  335SOL    HW2 1790   3.658   0.930   1.479
  336SOL     OW 1791   2.023   0.142   2.723
  336SOL    HW1 1792   2.057   0.139   2.812
  336SOL    HW2 1793   2.072   0.073   2.677
  337SOL     OW 1794   3.241   1.494   3.161
  337SOL    HW1 1795   3.333   1.517   3.174
  337SOL    HW2 1796   3.193   1.569   3.195
  338SOL     OW 1797   3.430   0.061   3.389
  338SOL    HW1 1798   3.364   0.121   3.354
  338SOL    HW2 1799   3.502   0.066   3.327
  339SOL     OW 1800   3.144   1.245   3.242
  339SOL    HW1 1801   3.168   1.331   3.207
  339SOL    HW2 1802   3.223   1.214   3.286
  340SOL     OW 1803   2.829   0.075   2.381
  340SOL    HW1 1804   2.852   0.123   2.301
  340SOL    HW2 1805   2.735   0.058   2.372
  341SOL     OW 1806   3.218   1.428   2.892
  341SOL    HW1 1807   3.214   1.446   2.986
  341SOL    HW2 1808   3.312   1.427   2.872
  342SOL     OW 1809   3.284   0.432   3.473
  342SOL    HW1 1810   3.268   0.402   3.563
  342SOL    HW2 1811   3.309   0.524   3.483
  343SOL     OW 1812   2.635   1.097   3.365
  343SOL    HW1 1813   2.725   1.084   3.334
  343SOL    HW2 1814   2.644   1.156   3.440
  344SOL     OW 1815   2.094   0.930   2.722
  344SOL    HW1 1816   2.122   0.969   2.640
  344SOL    HW2 1817   2.007   0.892   2.703
  345SOL     OW 1818   3.239   1.062   2.310
  345SOL    HW1 1819   3.171   1.036   2.248
  345SOL    HW2 1820   3.191   1.084   2.390
  346SOL     OW 1821   2.216   1.260   3.521
  346SOL    HW1 1822   2.225   1.353   3.501
  346SOL    HW2 1823   2.180   1.257   3.609
  347SOL     OW 1824   3.455   1.243   2.023
  347SOL    HW1 1825   3.509   1.321   2.014
  347SOL    HW2 1826   3.384   1.255   1.960
  348SOL     OW 1827   3.461   0.119   3.661
  348SOL    HW1 1828   3.379   0.169   3.665
  348SOL    HW2 1829   3.468   0.091   3.570
  349SOL     OW 1830   2.729   1.346   2.859
  349SOL    HW1 1831   2.823   1.325   2.861
  349SOL    HW2 1832   2.726   1.442   2.857
  350SOL     OW 1833   3.242   1.249   1.857
  350SOL    HW1 1834   3.206   1.168   1.894
  350SOL    HW2 1835   3.180   1.274   1.789
  351SOL     OW 1836   3.254   2.084   2.416
  351SOL    HW1 1837   3.345   2.114   2.423
  351SOL    HW2 1838   3.260   1.989   2.423
  352SOL     OW 1839   3.589   0.917   2.152
  352SOL    HW1 1840   3.661   0.926   2.215
  352SOL    HW2 1841   3.617   0.847   2.094
  353SOL     OW 1842   3.248   0.242   3.285
  353SOL    HW1 1843   3.268   0.315   3.344
  353SOL    HW2 1844   3.155   0.225   3.298
  354SOL     OW 1845   2.146   1.024   2.470
  354SOL    HW1 1846   2.112   1.101   2.423
  354SOL    HW2 1847   2.217   0.992   2.414
  355SOL     OW 1848   2.151   0.085   2.965
  355SOL    HW1 1849   2.113   0.073   3.052
  355SOL    HW2 1850   2.231   0.033   2.966
  356SOL     OW 1851   2.213   1.084   3.323
  356SOL    HW1 1852   2.212   1.146   3.396
  356SOL    HW2 1853   2.122   1.073   3.298
  357SOL     OW 1854   3.659   1.712   3.029
  357SOL    HW1 1855   3.755   1.704   3.030
  357SOL    HW2 1856   3.643   1.796   2.987
  358SOL     OW 1857   3.496   1.576   3.199
  358SOL    HW1 1858   3.547   1.622   3.132
  358SOL    HW2 1859   3.554   1.573   3.275
  359SOL     OW 1860   1.895   0.257   2.511
  359SOL    HW1 1861   1.970   0.311   2.485
  359SOL    HW2 1862   1.924   0.213   2.591
  360SOL     OW 1863   2.067   1.242   2.323
  360SOL    HW1 1864   1.999   1.249   2.256
  360SOL    HW2 1865   2.084   1.332   2.350
  361SOL     OW 1866   2.228   1.529   3.480
  361SOL    HW1 1867   2.148   1.582   3.477
  361SOL    HW2 1868   2.296   1.591   3.506
  362SOL     OW 1869   2.382   0.843   3.132
  362SOL    HW1 1870   2.401   0.750   3.141
  362SOL    HW2 1871   2.328   0.850   3.053
  363SOL     OW 1872   3.293   0.217   3.009
  363SOL    HW1 1873   3.389   0.214   3.004
  363SOL    HW2 1874   3.275   0.231   3.102
  364SOL     OW 1875   3.151   0.235   2.606
  364SOL    HW1 1876   3.073   0.191   2.570
  364SOL    HW2 1877   3.168   0.307   2.546
  365SOL     OW 1878   3.285   1.543   5.061
  365SOL    HW1 1879   3.255   1.509   4.976
  365SOL    HW2 1880   3.313   1.465   5.109
  366SOL     OW 1881   3.369   0.062   5.163
  366SOL    HW1 1882   3.309   0.062   5.088
  366SOL    HW2 1883   3.335   0.130   5.221
  367SOL     OW 1884   1.904   1.459   3.800
  367SOL    HW1 1885   1.827   1.451   3.744
  367SOL    HW2 1886   1.892   1.542   3.845
  368SOL     OW 1887   1.956   0.785   5.334
  368SOL    HW1 1888   2.036   0.748   5.371
  368SOL    HW2 1889   1.935   0.858   5.392
  369SOL     OW 1890   3.293   0.290   5.310
  369SOL    HW1 1891   3.346   0.351   5.259
  369SOL    HW2 1892   3.317   0.307   5.401
  370SOL     OW 1893   2.413   5.844   3.926
  370SOL    HW1 1894   2.387   5.829   3.835
  370SOL    HW2 1895   2.330   5.856   3.973
  371SOL     OW 1896   2.853   0.216   5.597
  371SOL    HW1 1897   2.885   0.256   5.516
  371SOL    HW2 1898   2.924   0.159   5.626
  372SOL     OW 1899   3.214   1.582   4.485
  372SOL    HW1 1900   3.180   1.670   4.473
  372SOL    HW2 1901   3.191   1.559   4.575
  373SOL     OW 1902   2.954   0.292   3.884
  373SOL    HW1 1903   2.940   0.387   3.884
  373SOL    HW2 1904   3.044   0.281   3.854
  374SOL     OW 1905   3.349   1.351   4.451
  374SOL    HW1 1906   3.416   1.360   4.383
  374SOL    HW2 1907   3.305   1.436   4.452
  375SOL     OW 1908   2.890   1.503   4.949
  375SOL    HW1 1909   2.926   1.465   5.029
  375SOL    HW2 1910   2.957   1.486   4.882
  376SOL     OW 1911   3.439   1.594   5.298
  376SOL    HW1 1912   3.392   1.623   5.219
  376SOL    HW2 1913   3.429   1.499   5.298
  377SOL     OW 1914   3.124   0.448   4.950
  377SOL    HW1 1915   3.083   0.437   5.036
  377SOL    HW2 1916   3.137   0.359   4.918
  378SOL     OW 1917   2.467   0.494   4.599
  378SOL    HW1 1918   2.511   0.579   4.593
  378SOL    HW2 1919   2.521   0.443   4.659
  379SOL     OW 1920   2.589   0.073   5.620
  379SOL    HW1 1921   2.512   0.022   5.595
  379SOL    HW2 1922   2.642   0.076   5.540
  380SOL     OW 1923   3.042   0.302   5.192
  380SOL    HW1 1924   3.124   0.292   5.240
  380SOL    HW2 1925   3.048   0.240   5.119
  381SOL     OW 1926   3.281   1.091   5.343
  381SOL    HW1 1927   3.377   1.092   5.347
  381SOL    HW2 1928   3.259   1.003   5.314
  382SOL     OW 1929   3.235   0.647   4.791
  382SOL    HW1 1930   3.180   0.591   4.846
  382SOL    HW2 1931   3.315   0.597   4.778
  383SOL     OW 1932   3.235   1.015   4.595
  383SOL    HW1 1933   3.226   0.942   4.656
  383SOL    HW2 1934   3.233   0.974   4.509
  384SOL     OW 1935   2.857   1.588   3.800
  384SOL    HW1 1936   2.810   1.657   3.848
  384SOL    HW2 1937   2.949   1.607   3.815
  385SOL     OW 1938   2.108   1.282   3.770
  385SOL    HW1 1939   2.035   1.343   3.773
  385SOL    HW2 1940   2.130   1.266   3.862
  386SOL     OW 1941   1.908   0.995   5.508
  386SOL    HW1 1942   1.839   0.997   5.573
  386SOL    HW2 1943   1.914   1.085   5.476
  387SOL     OW 1944   2.003   0.280   4.170
  387SOL    HW1 1945   2.063   0.349   4.198
  387SOL    HW2 1946   2.060   0.208   4.145
  388SOL     OW 1947   3.376   1.328   5.222
  388SOL    HW1 1948   3.312   1.269   5.261
  388SOL    HW2 1949   3.459   1.281   5.230
  389SOL     OW 1950   2.730   1.372   3.680
  389SOL    HW1 1951   2.673   1.360   3.755
  389SOL    HW2 1952   2.785   1.447   3.703
  390SOL     OW 1953   2.526   1.000   5.741
  390SOL    HW1 1954   2.553   1.061   5.672
  390SOL    HW2 1955   2.585   0.925   5.731
  391SOL     OW 1956   2.325   1.027   0.038
  391SOL    HW1 1957   2.393   1.015  -0.028
  391SOL    HW2 1958   2.256   0.965   0.013
  392SOL     OW 1959   2.734   1.888   5.862
  392SOL    HW1 1960   2.781   1.905   5.944
  392SOL    HW2 1961   2.803   1.878   5.797
  393SOL     OW 1962   3.367   0.361   5.565
  393SOL    HW1 1963   3.345   0.289   5.624
  393SOL    HW2 1964   3.328   0.439   5.606
  394SOL     OW 1965   2.603   1.522   5.863
  394SOL    HW1 1966   2.604   1.615   5.841
  394SOL    HW2 1967   2.694   1.494   5.853
  395SOL     OW 1968   2.390   1.395   0.089
  395SOL    HW1 1969   2.322   1.457   0.062
  395SOL    HW2 1970   2.471   1.433   0.054
  396SOL     OW 1971   2.870   1.482   5.826
  396SOL    HW1 1972   2.922   1.443   5.756
  396SOL    HW2 1973   2.928   1.547   5.865
  397SOL     OW 1974   3.035   0.050   5.700
  397SOL    HW1 1975   3.066  -0.036   5.672
  397SOL    HW2 1976   3.111   0.093   5.739
  398SOL     OW 1977   3.174   2.477   0.589
  398SOL    HW1 1978   3.266   2.496   0.604
  398SOL    HW2 1979   3.131   2.493   0.673
  399SOL     OW 1980   2.679   3.140   1.055
  399SOL    HW1 1981   2.710   3.071   0.996
  399SOL    HW2 1982   2.700   3.221   1.009
  400SOL     OW 1983   3.273   3.310   1.427
  400SOL    HW1 1984   3.271   3.402   1.399
  400SOL    HW2 1985   3.202   3.303   1.491
  401SOL     OW 1986   3.768   3.786   0.409
  401SOL    HW1 1987   3.739   3.696   0.396
  401SOL    HW2 1988   3.835   3.800   0.343
  402SOL     OW 1989   2.984   3.550   1.525
  402SOL    HW1 1990   2.982   3.553   1.429
  402SOL    HW2 1991   3.000   3.458   1.546
  403SOL     OW 1992   2.065   2.892   0.214
  403SOL    HW1 1993   2.026   2.884   0.301
  403SOL    HW2 1994   2.120   2.814   0.205
  404SOL     OW 1995   3.416   2.565   0.727
  404SOL    HW1 1996   3.502   2.521   0.728
  404SOL    HW2 1997   3.436   2.656   0.707
  405SOL     OW 1998   2.012   2.170   1.517
  405SOL    HW1 1999   2.056   2.085   1.516
  405SOL    HW2 2000   2.047   2.214   1.595
  406SOL     OW 2001   3.271   2.061   0.364
  406SOL    HW1 2002   3.254   1.978   0.319
  406SOL    HW2 2003   3.358   2.051   0.402
  407SOL     OW 2004   2.767   3.348   0.899
  407SOL    HW1 2005   2.817   3.410   0.951
  407SOL    HW2 2006   2.794   3.366   0.809
  408SOL     OW 2007   2.182   1.915   0.671
  408SOL    HW1 2008   2.254   1.934   0.731
  408SOL    HW2 2009   2.220   1.923   0.584
  409SOL     OW 2010   3.168   2.875   0.200
  409SOL    HW1 2011   3.249   2.910   0.237
  409SOL    HW2 2012   3.104   2.945   0.211
  410SOL     OW 2013   1.791   2.272   1.391
  410SOL    HW1 2014   1.875   2.235   1.420
  410SOL    HW2 2015   1.740   2.280   1.471
  411SOL     OW 2016   3.357   2.539   1.506
  411SOL    HW1 2017   3.306   2.606   1.460
  411SOL    HW2 2018   3.435   2.526   1.452
  412SOL     OW 2019   3.165   2.541   0.859
  412SOL    HW1 2020   3.256   2.546   0.832
  412SOL    HW2 2021   3.160   2.595   0.937
  413SOL     OW 2022   3.123   2.606   0.170
  413SOL    HW1 2023   3.145   2.600   0.077
  413SOL    HW2 2024   3.135   2.699   0.192
  414SOL     OW 2025   2.032   3.816   1.088
  414SOL    HW1 2026   2.063   3.736   1.046
  414SOL    HW2 2027   2.082   3.886   1.046
  415SOL     OW 2028   3.082   2.401   0.345
  415SOL    HW1 2029   3.091   2.477   0.287
  415SOL    HW2 2030   3.109   2.433   0.431
  416SOL     OW 2031   3.571   2.516   1.336
  416SOL    HW1 2032   3.658   2.494   1.370
  416SOL    HW2 2033   3.584   2.526   1.241
  417SOL     OW 2034   3.011   3.544   1.248
  417SOL    HW1 2035   2.983   3.543   1.157
  417SOL    HW2 2036   3.107   3.549   1.244
  418SOL     OW 2037   3.110   3.531   0.387
  418SOL    HW1 2038   3.181   3.534   0.452
  418SOL    HW2 2039   3.031   3.520   0.439
  419SOL     OW 2040   1.919   1.876   0.729
  419SOL    HW1 2041   1.884   1.961   0.704
  419SOL    HW2 2042   2.013   1.882   0.712
  420SOL     OW 2043   2.813   2.116   0.902
  420SOL    HW1 2044   2.829   2.208   0.878
  420SOL    HW2 2045   2.891   2.091   0.952
  421SOL     OW 2046   2.102   3.256   0.324
  421SOL    HW1 2047   2.062   3.223   0.404
  421SOL    HW2 2048   2.175   3.311   0.354
  422SOL     OW 2049   1.691   3.149   0.674
  422SOL    HW1 2050   1.759   3.131   0.738
  422SOL    HW2 2051   1.727   3.119   0.591
  423SOL     OW 2052   3.791   2.403   2.176
  423SOL    HW1 2053   3.847   2.477   2.155
  423SOL    HW2 2054   3.773   2.361   2.092
  424SOL     OW 2055   2.085   2.612   2.640
  424SOL    HW1 2056   2.104   2.556   2.565
  424SOL    HW2 2057   2.148   2.585   2.706
  425SOL     OW 2058   3.524   2.131   2.445
  425SOL    HW1 2059   3.575   2.212   2.438
  425SOL    HW2 2060   3.588   2.065   2.472
  426SOL     OW 2061   1.802   2.479   3.738
  426SOL    HW1 2062   1.841   2.481   3.826
  426SOL    HW2 2063   1.725   2.424   3.747
  427SOL     OW 2064   1.748   2.311   4.313
  427SOL    HW1 2065   1.715   2.235   4.361
  427SOL    HW2 2066   1.714   2.299   4.224
  428SOL     OW 2067   2.276   3.297   4.633
  428SOL    HW1 2068   2.297   3.203   4.638
  428SOL    HW2 2069   2.354   3.336   4.595
  429SOL     OW 2070   1.879   2.531   4.402
  429SOL    HW1 2071   1.823   2.460   4.372
  429SOL    HW2 2072   1.961   2.488   4.426
  430SOL     OW 2073   2.751   1.793   3.946
  430SOL    HW1 2074   2.733   1.879   3.908
  430SOL    HW2 2075   2.728   1.803   4.038
  431SOL     OW 2076   2.126   2.148   5.444
  431SOL    HW1 2077   2.150   2.139   5.352
  431SOL    HW2 2078   2.201   2.112   5.492
  432SOL     OW 2079   2.709   2.046   3.857
  432SOL    HW1 2080   2.780   2.106   3.881
  432SOL    HW2 2081   2.673   2.082   3.776
  433SOL     OW 2082   2.466   3.606   3.943
  433SOL    HW1 2083   2.492   3.692   3.975
  433SOL    HW2 2084   2.393   3.580   4.000
  434SOL     OW 2085   2.190   3.649   4.656
  434SOL    HW1 2086   2.276   3.687   4.638
  434SOL    HW2 2087   2.140   3.720   4.695
  435SOL     OW 2088   2.333   3.031   4.625
  435SOL    HW1 2089   2.370   2.972   4.692
  435SOL    HW2 2090   2.341   2.982   4.543
  436SOL     OW 2091   2.421   1.994   5.063
  436SOL    HW1 2092   2.406   1.930   4.993
  436SOL    HW2 2093   2.515   1.994   5.075
  437SOL     OW 2094   2.911   3.287   4.686
  437SOL    HW1 2095   2.994   3.275   4.732
  437SOL    HW2 2096   2.934   3.279   4.593
  438SOL     OW 2097   2.692   1.960   5.067
  438SOL    HW1 2098   2.737   1.893   5.015
  438SOL    HW2 2099   2.760   1.997   5.123
  439SOL     OW 2100   2.341   2.653   4.952
  439SOL    HW1 2101   2.387   2.596   5.014
  439SOL    HW2 2102   2.249   2.631   4.964
  440SOL     OW 2103   3.173   3.257   4.762
  440SOL    HW1 2104   3.223   3.281   4.840
  440SOL    HW2 2105   3.238   3.253   4.692
  441SOL     OW 2106   2.449   2.835   4.778
  441SOL    HW1 2107   2.535   2.795   4.764
  441SOL    HW2 2108   2.405   2.778   4.840
  442SOL     OW 2109   2.206   2.113   5.185
  442SOL    HW1 2110   2.288   2.073   5.157
  442SOL    HW2 2111   2.159   2.132   5.104
  443SOL     OW 2112   3.309   2.105   3.955
  443SOL    HW1 2113   3.351   2.138   3.875
  443SOL    HW2 2114   3.376   2.054   3.998
  444SOL     OW 2115   2.492   3.408   4.515
  444SOL    HW1 2116   2.568   3.437   4.566
  444SOL    HW2 2117   2.527   3.385   4.429
  445SOL     OW 2118   3.436   3.562   4.886
  445SOL    HW1 2119   3.419   3.468   4.892
  445SOL    HW2 2120   3.450   3.590   4.977
  446SOL     OW 2121   3.402   3.127   5.143
  446SOL    HW1 2122   3.332   3.143   5.205
  446SOL    HW2 2123   3.446   3.049   5.176
  447SOL     OW 2124   3.400   3.292   4.925
  447SOL    HW1 2125   3.440   3.243   4.853
  447SOL    HW2 2126   3.406   3.234   5.000
  448SOL     OW 2127   3.127   1.748   4.907
  448SOL    HW1 2128   3.186   1.727   4.979
  448SOL    HW2 2129   3.131   1.671   4.850
  449SOL     OW 2130   2.853   1.778   4.944
  449SOL    HW1 2131   2.946   1.791   4.927
  449SOL    HW2 2132   2.842   1.683   4.945
  450SOL     OW 2133   2.566   2.049   5.717
  450SOL    HW1 2134   2.633   2.116   5.702
  450SOL    HW2 2135   2.609   1.984   5.773
  451SOL     OW 2136   2.350   2.036   5.551
  451SOL    HW1 2137   2.415   2.046   5.620
  451SOL    HW2 2138   2.394   1.984   5.484
  452SOL     OW 2139   2.974   1.882   5.728
  452SOL    HW1 2140   3.018   1.797   5.731
  452SOL    HW2 2141   3.002   1.927   5.807
  453SOL     OW 2142   3.690   4.206   0.596
  453SOL    HW1 2143   3.595   4.213   0.594
  453SOL    HW2 2144   3.720   4.296   0.614
  454SOL     OW 2145   1.803   4.550   1.104
  454SOL    HW1 2146   1.789   4.553   1.009
  454SOL    HW2 2147   1.786   4.640   1.133
  455SOL     OW 2148   2.503   5.155   0.639
  455SOL    HW1 2149   2.511   5.068   0.600
  455SOL    HW2 2150   2.508   5.215   0.564
  456SOL     OW 2151   3.361   5.292   0.499
  456SOL    HW1 2152   3.445   5.307   0.457
  456SOL    HW2 2153   3.297   5.336   0.442
  457SOL     OW 2154   3.351   5.128   0.719
  457SOL    HW1 2155   3.358   5.046   0.669
  457SOL    HW2 2156   3.351   5.196   0.652
  458SOL     OW 2157   2.102   5.657   1.352
  458SOL    HW1 2158   2.017   5.625   1.383
  458SOL    HW2 2159   2.130   5.591   1.288
  459SOL     OW 2160   2.173   4.028   0.969
  459SOL    HW1 2161   2.267   4.024   0.957
  459SOL    HW2 2162   2.143   4.097   0.911
  460SOL     OW 2163   2.941   3.567   0.973
  460SOL    HW1 2164   2.967   3.534   0.887
  460SOL    HW2 2165   2.887   3.643   0.955
  461SOL     OW 2166   3.377   5.140   0.990
  461SOL    HW1 2167   3.289   5.175   1.006
  461SOL    HW2 2168   3.382   5.133   0.895
  462SOL     OW 2169   3.614   4.759   1.803
  462SOL    HW1 2170   3.531   4.804   1.818
  462SOL    HW2 2171   3.622   4.699   1.878
  463SOL     OW 2172   2.069   4.243   0.835
  463SOL    HW1 2173   1.974   4.248   0.839
  463SOL    HW2 2174   2.097   4.331   0.810
  464SOL     OW 2175   2.450   5.327   0.841
  464SOL    HW1 2176   2.413   5.272   0.910
  464SOL    HW2 2177   2.468   5.267   0.769
  465SOL     OW 2178   1.961   4.141   1.111
  465SOL    HW1 2179   2.046   4.105   1.084
  465SOL    HW2 2180   1.909   4.139   1.031
  466SOL     OW 2181   3.558   5.079   1.182
  466SOL    HW1 2182   3.517   4.998   1.211
  466SOL    HW2 2183   3.503   5.110   1.110
  467SOL     OW 2184   3.381   4.897   1.837
  467SOL    HW1 2185   3.301   4.889   1.889
  467SOL    HW2 2186   3.367   4.977   1.785
  468SOL     OW 2187   2.669   5.118   0.220
  468SOL    HW1 2188   2.652   5.159   0.135
  468SOL    HW2 2189   2.637   5.181   0.284
  469SOL     OW 2190   2.448   5.580   0.742
  469SOL    HW1 2191   2.393   5.629   0.803
  469SOL    HW2 2192   2.451   5.491   0.778
  470SOL     OW 2193   3.673   3.895   1.368
  470SOL    HW1 2194   3.727   3.835   1.318
  470SOL    HW2 2195   3.584   3.858   1.363
  471SOL     OW 2196   2.737   5.436   0.651
  471SOL    HW1 2197   2.718   5.378   0.577
  471SOL    HW2 2198   2.739   5.378   0.727
  472SOL     OW 2199   2.628   4.671   2.298
  472SOL    HW1 2200   2.594   4.711   2.218
  472SOL    HW2 2201   2.640   4.745   2.357
  473SOL     OW 2202   3.191   3.779   3.036
  473SOL    HW1 2203   3.146   3.712   3.087
  473SOL    HW2 2204   3.235   3.730   2.966
  474SOL     OW 2205   2.822   4.264   3.187
  474SOL    HW1 2206   2.869   4.215   3.254
  474SOL    HW2 2207   2.748   4.208   3.163
  475SOL     OW 2208   2.752   4.496   2.459
  475SOL    HW1 2209   2.779   4.416   2.413
  475SOL    HW2 2210   2.707   4.548   2.393
  476SOL     OW 2211   1.936   4.575   2.667
  476SOL    HW1 2212   1.958   4.668   2.673
  476SOL    HW2 2213   1.846   4.574   2.633
  477SOL     OW 2214   2.464   4.027   2.898
  477SOL    HW1 2215   2.476   3.948   2.845
  477SOL    HW2 2216   2.393   4.074   2.856
  478SOL     OW 2217   3.278   3.926   2.329
  478SOL    HW1 2218   3.269   3.964   2.417
  478SOL    HW2 2219   3.372   3.916   2.317
  479SOL     OW 2220   2.727   5.386   2.828
  479SOL    HW1 2221   2.743   5.430   2.744
  479SOL    HW2 2222   2.701   5.297   2.804
  480SOL     OW 2223   2.649   5.147   2.718
  480SOL    HW1 2224   2.690   5.079   2.663
  480SOL    HW2 2225   2.558   5.119   2.727
  481SOL     OW 2226   3.145   4.891   1.975
  481SOL    HW1 2227   3.129   4.813   2.028
  481SOL    HW2 2228   3.066   4.945   1.988
  482SOL     OW 2229   2.995   5.815   2.536
  482SOL    HW1 2230   3.014   5.741   2.479
  482SOL    HW2 2231   2.932   5.867   2.487
  483SOL     OW 2232   3.657   4.582   2.009
  483SOL    HW1 2233   3.736   4.576   2.062
  483SOL    HW2 2234   3.605   4.506   2.033
  484SOL     OW 2235   3.154   5.505   3.390
  484SOL    HW1 2236   3.208   5.581   3.410
  484SOL    HW2 2237   3.195   5.433   3.438
  485SOL     OW 2238   3.415   4.822   3.108
  485SOL    HW1 2239   3.508   4.831   3.089
  485SOL    HW2 2240   3.372   4.832   3.023
  486SOL     OW 2241   3.139   4.018   3.168
  486SOL    HW1 2242   3.131   4.079   3.095
  486SOL    HW2 2243   3.161   3.934   3.127
  487SOL     OW 2244   2.775   4.491   2.814
  487SOL    HW1 2245   2.794   4.510   2.906
  487SOL    HW2 2246   2.765   4.396   2.810
  488SOL     OW 2247   2.917   5.258   3.399
  488SOL    HW1 2248   2.822   5.254   3.409
  488SOL    HW2 2249   2.947   5.171   3.426
  489SOL     OW 2250   2.966   4.109   3.366
  489SOL    HW1 2251   2.994   4.080   3.452
  489SOL    HW2 2252   3.028   4.067   3.305
  490SOL     OW 2253   2.827   4.510   3.077
  490SOL    HW1 2254   2.839   4.567   3.153
  490SOL    HW2 2255   2.826   4.421   3.113
  491SOL     OW 2256   3.222   4.832   3.399
  491SOL    HW1 2257   3.240   4.749   3.443
  491SOL    HW2 2258   3.277   4.830   3.321
  492SOL     OW 2259   2.610   4.105   3.118
  492SOL    HW1 2260   2.568   4.049   3.184
  492SOL    HW2 2261   2.564   4.083   3.037
  493SOL     OW 2262   2.889   5.437   3.052
  493SOL    HW1 2263   2.859   5.402   2.968
  493SOL    HW2 2264   2.813   5.483   3.087
  494SOL     OW 2265   3.546   3.892   2.296
  494SOL    HW1 2266   3.541   3.845   2.213
  494SOL    HW2 2267   3.637   3.922   2.300
  495SOL     OW 2268   2.646   5.278   3.402
  495SOL    HW1 2269   2.558   5.248   3.380
  495SOL    HW2 2270   2.649   5.368   3.369
  496SOL     OW 2271   2.729   5.017   2.244
  496SOL    HW1 2272   2.741   4.973   2.328
  496SOL    HW2 2273   2.660   5.082   2.260
  497SOL     OW 2274   1.797   4.210   1.632
  497SOL    HW1 2275   1.728   4.185   1.693
  497SOL    HW2 2276   1.875   4.219   1.686
  498SOL     OW 2277   2.903   5.008   2.031
  498SOL    HW1 2278   2.852   5.005   2.112
  498SOL    HW2 2279   2.848   5.057   1.970
  499SOL     OW 2280   2.556   5.592   2.968
  499SOL    HW1 2281   2.588   5.589   3.058
  499SOL    HW2 2282   2.601   5.520   2.924
  500SOL     OW 2283   2.018   4.962   3.770
  500SOL    HW1 2284   2.092   4.988   3.715
  500SOL    HW2 2285   1.943   5.008   3.732
  501SOL     OW 2286   2.183   4.209   4.017
  501SOL    HW1 2287   2.129   4.285   4.040
  501SOL    HW2 2288   2.151   4.182   3.932
  502SOL     OW 2289   2.012   3.822   4.784
  502SOL    HW1 2290   2.035   3.871   4.863
  502SOL    HW2 2291   1.964   3.884   4.730
  503SOL     OW 2292   1.883   4.018   4.651
  503SOL    HW1 2293   1.832   4.083   4.698
  503SOL    HW2 2294   1.891   4.053   4.562
  504SOL     OW 2295   2.159   5.128   4.783
  504SOL    HW1 2296   2.070   5.094   4.799
  504SOL    HW2 2297   2.217   5.062   4.821
  505SOL     OW 2298   2.366   5.524   4.962
  505SOL    HW1 2299   2.277   5.542   4.991
  505SOL    HW2 2300   2.418   5.520   5.043
  506SOL     OW 2301   2.041   4.536   5.363
  506SOL    HW1 2302   2.132   4.566   5.355
  506SOL    HW2 2303   1.994   4.612   5.399
  507SOL     OW 2304   2.515   3.851   4.063
  507SOL    HW1 2305   2.606   3.877   4.079
  507SOL    HW2 2306   2.464   3.929   4.085
  508SOL     OW 2307   2.327   4.047   5.641
  508SOL    HW1 2308   2.376   4.077   5.718
  508SOL    HW2 2309   2.385   4.064   5.567
  509SOL     OW 2310   3.501   5.497   3.947
  509SOL    HW1 2311   3.524   5.567   4.008
  509SOL    HW2 2312   3.537   5.417   3.986
  510SOL     OW 2313   2.778   5.419   4.220
  510SOL    HW1 2314   2.757   5.330   4.192
  510SOL    HW2 2315   2.865   5.413   4.259
  511SOL     OW 2316   3.051   5.118   4.972
  511SOL    HW1 2317   3.130   5.160   5.008
  511SOL    HW2 2318   2.991   5.190   4.955
  512SOL     OW 2319   2.888   4.080   4.100
  512SOL    HW1 2320   2.924   4.149   4.156
  512SOL    HW2 2321   2.801   4.111   4.077
  513SOL     OW 2322   1.926   5.019   4.891
  513SOL    HW1 2323   1.904   4.926   4.897
  513SOL    HW2 2324   1.966   5.040   4.976
  514SOL     OW 2325   2.609   4.314   4.756
  514SOL    HW1 2326   2.666   4.355   4.821
  514SOL    HW2 2327   2.523   4.351   4.773
  515SOL     OW 2328   3.861   5.709   5.468
  515SOL    HW1 2329   3.766   5.714   5.475
  515SOL    HW2 2330   3.880   5.616   5.460
  516SOL     OW 2331   2.281   4.658   5.343
  516SOL    HW1 2332   2.292   4.753   5.348
  516SOL    HW2 2333   2.362   4.626   5.304
  517SOL     OW 2334   2.640   4.172   4.041
  517SOL    HW1 2335   2.617   4.221   3.962
  517SOL    HW2 2336   2.556   4.147   4.080
  518SOL     OW 2337   2.967   4.861   4.952
  518SOL    HW1 2338   3.049   4.813   4.937
  518SOL    HW2 2339   2.994   4.952   4.960
  519SOL     OW 2340   3.744   5.305   4.782
  519SOL    HW1 2341   3.768   5.372   4.718
  519SOL    HW2 2342   3.686   5.351   4.844
  520SOL     OW 2343   2.579   4.864   5.099
  520SOL    HW1 2344   2.522   4.939   5.083
  520SOL    HW2 2345   2.527   4.806   5.155
  521SOL     OW 2346   2.056   5.114   5.111
  521SOL    HW1 2347   2.047   5.208   5.126
  521SOL    HW2 2348   2.150   5.098   5.115
  522SOL     OW 2349   2.526   4.599   5.242
  522SOL    HW1 2350   2.559   4.567   5.158
  522SOL    HW2 2351   2.587   4.563   5.306
  523SOL     OW 2352   3.851   5.062   4.740
  523SOL    HW1 2353   3.835   5.055   4.646
  523SOL    HW2 2354   3.815   5.147   4.764
  524SOL     OW 2355   2.396   4.096   4.139
  524SOL    HW1 2356   2.321   4.133   4.093
  524SOL    HW2 2357   2.378   4.112   4.231
  525SOL     OW 2358   2.718   3.474   4.650
  525SOL    HW1 2359   2.778   3.402   4.670
  525SOL    HW2 2360   2.764   3.553   4.681
  526SOL     OW 2361   3.439   3.942   4.615
  526SOL    HW1 2362   3.429   3.879   4.686
  526SOL    HW2 2363   3.350   3.962   4.588
  527SOL     OW 2364   2.071   3.959   5.608
  527SOL    HW1 2365   2.159   3.995   5.618
  527SOL    HW2 2366   2.072   3.879   5.661
  528SOL     OW 2367   2.489   4.142   5.841
  528SOL    HW1 2368   2.562   4.099   5.885
  528SOL    HW2 2369   2.478   4.225   5.887
  529SOL     OW 2370   1.938   4.244   5.374
  529SOL    HW1 2371   1.927   4.154   5.403
  529SOL    HW2 2372   1.999   4.282   5.438
  530SOL     OW 2373   3.318   3.748   5.848
  530SOL    HW1 2374   3.231   3.759   5.809
  530SOL    HW2 2375   3.301   3.706   5.933
  531SOL     OW 2376   2.065   5.854   1.535
  531SOL    HW1 2377   2.147   5.903   1.545
  531SOL    HW2 2378   2.084   5.788   1.469
  532SOL     OW 2379   3.271   0.287   1.387
  532SOL    HW1 2380   3.283   0.350   1.316
  532SOL    HW2 2381   3.232   0.211   1.346
  533SOL     OW 2382   3.328   5.698   3.475
  533SOL    HW1 2383   3.359   5.781   3.438
  533SOL    HW2 2384   3.366   5.694   3.562
  534SOL     OW 2385   3.070   5.865   2.789
  534SOL    HW1 2386   3.042   5.845   2.700
  534SOL    HW2 2387   3.003   5.826   2.845
  535SOL     OW 2388   2.578   0.069   2.256
  535SOL    HW1 2389   2.510   0.046   2.193
  535SOL    HW2 2390   2.641   0.120   2.204
  536SOL     OW 2391   2.367   5.800   3.018
  536SOL    HW1 2392   2.390   5.802   3.111
  536SOL    HW2 2393   2.424   5.733   2.980
  537SOL     OW 2394   2.181   5.826   2.619
  537SOL    HW1 2395   2.272   5.839   2.591
  537SOL    HW2 2396   2.182   5.742   2.664
  538SOL     OW 2397   2.452   5.772   3.279
  538SOL    HW1 2398   2.532   5.721   3.268
  538SOL    HW2 2399   2.421   5.749   3.367
  539SOL     OW 2400   3.654   0.199   4.033
  539SOL    HW1 2401   3.740   0.238   4.049
  539SOL    HW2 2402   3.643   0.136   4.104
  540SOL     OW 2403   2.640   5.654   4.203
  540SOL    HW1 2404   2.693   5.574   4.201
  540SOL    HW2 2405   2.587   5.645   4.282
  541SOL     OW 2406   2.758   0.105   3.997
  541SOL    HW1 2407   2.824   0.154   4.045
  541SOL    HW2 2408   2.776   0.122   3.905
  542SOL     OW 2409   2.408   5.821   4.522
  542SOL    HW1 2410   2.423   5.754   4.589
  542SOL    HW2 2411   2.407   5.903   4.570
  543SOL     OW 2412   2.416   5.864   4.251
  543SOL    HW1 2413   2.407   5.847   4.345
  543SOL    HW2 2414   2.325   5.868   4.219
  544SOL     OW 2415   2.468   5.669   4.745
  544SOL    HW1 2416   2.423   5.619   4.813
  544SOL    HW2 2417   2.558   5.678   4.777
  545SOL     OW 2418   3.279   5.859   4.688
  545SOL    HW1 2419   3.211   5.898   4.743
  545SOL    HW2 2420   3.359   5.867   4.739
  546SOL     OW 2421   3.601   0.243   5.675
  546SOL    HW1 2422   3.545   0.303   5.625
  546SOL    HW2 2423   3.541   0.195   5.731
  547SOL     OW 2424   3.918   0.603   5.780
  547SOL    HW1 2425   3.848   0.634   5.838
  547SOL    HW2 2426   3.901   0.510   5.770
  548SOL     OW 2427   5.417   0.227   0.190
  548SOL    HW1 2428   5.342   0.264   0.144
  548SOL    HW2 2429   5.390   0.137   0.211
  549SOL     OW 2430   4.619   5.847   0.434
  549SOL    HW1 2431   4.693   5.873   0.380
  549SOL    HW2 2432   4.641   5.879   0.522
  550SOL     OW 2433   5.441   1.690   0.470
  550SOL    HW1 2434   5.353   1.697   0.433
  550SOL    HW2 2435   5.427   1.647   0.555
  551SOL     OW 2436   4.126   1.502   1.716
  551SOL    HW1 2437   4.125   1.446   1.639
  551SOL    HW2 2438   4.069   1.458   1.779
  552SOL     OW 2439   3.816   0.330   1.454
  552SOL    HW1 2440   3.721   0.319   1.455
  552SOL    HW2 2441   3.847   0.272   1.524
  553SOL     OW 2442   5.146  -0.015   0.531
  553SOL    HW1 2443   5.168  -0.017   0.438
  553SOL    HW2 2444   5.200   0.055   0.567
  554SOL     OW 2445   4.258   0.098  -0.025
  554SOL    HW1 2446   4.272   0.050   0.057
  554SOL    HW2 2447   4.320   0.171  -0.021
  555SOL     OW 2448   4.265   0.316   1.183
  555SOL    HW1 2449   4.341   0.259   1.200
  555SOL    HW2 2450   4.292   0.369   1.108
  556SOL     OW 2451   4.723   0.026   0.683
  556SOL    HW1 2452   4.767   0.071   0.755
  556SOL    HW2 2453   4.751  -0.065   0.691
  557SOL     OW 2454   4.302   0.496   0.977
  557SOL    HW1 2455   4.371   0.563   0.972
  557SOL    HW2 2456   4.282   0.475   0.886
  558SOL     OW 2457   5.479   1.485   1.604
  558SOL    HW1 2458   5.439   1.541   1.538
  558SOL    HW2 2459   5.565   1.463   1.568
  559SOL     OW 2460   5.487   0.457   1.260
  559SOL    HW1 2461   5.442   0.454   1.345
  559SOL    HW2 2462   5.421   0.434   1.196
  560SOL     OW 2463   5.184   1.698   0.383
  560SOL    HW1 2464   5.168   1.706   0.288
  560SOL    HW2 2465   5.101   1.664   0.417
  561SOL     OW 2466   4.007   1.792   1.851
  561SOL    HW1 2467   3.923   1.766   1.814
  561SOL    HW2 2468   4.020   1.882   1.819
  562SOL     OW 2469   5.419   1.636   1.374
  562SOL    HW1 2470   5.349   1.609   1.316
  562SOL    HW2 2471   5.397   1.726   1.399
  563SOL     OW 2472   4.812   1.587  -0.025
  563SOL    HW1 2473   4.763   1.551   0.048
  563SOL    HW2 2474   4.892   1.623   0.014
  564SOL     OW 2475   3.965   1.372   1.887
  564SOL    HW1 2476   3.912   1.292   1.884
  564SOL    HW2 2477   3.957   1.402   1.978
  565SOL     OW 2478   4.062   0.495   1.188
  565SOL    HW1 2479   4.124   0.423   1.204
  565SOL    HW2 2480   4.103   0.547   1.119
  566SOL     OW 2481   4.058   1.491   3.112
  566SOL    HW1 2482   4.003   1.415   3.095
  566SOL    HW2 2483   4.010   1.564   3.071
  567SOL     OW 2484   4.002   1.723   2.118
  567SOL    HW1 2485   4.010   1.804   2.168
  567SOL    HW2 2486   4.002   1.752   2.027
  568SOL     OW 2487   3.939   1.460   2.142
  568SOL    HW1 2488   3.959   1.554   2.135
  568SOL    HW2 2489   3.950   1.441   2.235
  569SOL     OW 2490  -0.015   1.798   2.436
  569SOL    HW1 2491   0.032   1.727   2.480
  569SOL    HW2 2492   0.035   1.813   2.356
  570SOL     OW 2493   4.881   1.146   3.227
  570SOL    HW1 2494   4.890   1.063   3.179
  570SOL    HW2 2495   4.837   1.121   3.308
  571SOL     OW 2496   4.624   0.374   3.023
  571SOL    HW1 2497   4.701   0.332   3.063
  571SOL    HW2 2498   4.652   0.463   3.004
  572SOL     OW 2499   4.578   0.340   2.190
  572SOL    HW1 2500   4.572   0.375   2.279
  572SOL    HW2 2501   4.650   0.387   2.149
  573SOL     OW 2502   4.121   1.872   2.884
  573SOL    HW1 2503   4.111   1.965   2.904
  573SOL    HW2 2504   4.175   1.838   2.954
  574SOL     OW 2505   5.350   1.452   1.844
  574SOL    HW1 2506   5.393   1.474   1.761
  574SOL    HW2 2507   5.366   1.358   1.855
  575SOL     OW 2508   3.932   1.724   3.023
  575SOL    HW1 2509   3.976   1.761   3.100
  575SOL    HW2 2510   3.977   1.764   2.948
  576SOL     OW 2511   4.371   0.268   2.992
  576SOL    HW1 2512   4.465   0.288   2.996
  576SOL    HW2 2513   4.328   0.352   3.008
  577SOL     OW 2514   4.886   1.420   3.240
  577SOL    HW1 2515   4.799   1.425   3.280
  577SOL    HW2 2516   4.903   1.326   3.231
  578SOL     OW 2517   4.716   1.079   3.439
  578SOL    HW1 2518   4.701   1.089   3.533
  578SOL    HW2 2519   4.694   0.987   3.421
  579SOL     OW 2520   5.054   1.593   3.117
  579SOL    HW1 2521   5.057   1.545   3.035
  579SOL    HW2 2522   4.996   1.542   3.173
  580SOL     OW 2523   4.047   1.559   3.465
  580SOL    HW1 2524   4.045   1.642   3.512
  580SOL    HW2 2525   4.088   1.498   3.526
  581SOL     OW 2526   4.625   1.307   3.305
  581SOL    HW1 2527   4.645   1.267   3.220
  581SOL    HW2 2528   4.648   1.240   3.369
  582SOL     OW 2529   4.893   0.893   3.117
  582SOL    HW1 2530   4.834   0.839   3.063
  582SOL    HW2 2531   4.970   0.838   3.130
  583SOL     OW 2532   4.425   1.616   1.864
  583SOL    HW1 2533   4.447   1.530   1.898
  583SOL    HW2 2534   4.509   1.661   1.855
  584SOL     OW 2535   4.388   1.447   3.343
  584SOL    HW1 2536   4.472   1.405   3.329
  584SOL    HW2 2537   4.359   1.415   3.428
  585SOL     OW 2538   4.354   1.139   5.030
  585SOL    HW1 2539   4.294   1.165   5.100
  585SOL    HW2 2540   4.410   1.215   5.016
  586SOL     OW 2541   4.857   0.622   4.752
  586SOL    HW1 2542   4.871   0.684   4.680
  586SOL    HW2 2543   4.784   0.658   4.801
  587SOL     OW 2544   5.626   1.751   4.118
  587SOL    HW1 2545   5.540   1.729   4.154
  587SOL    HW2 2546   5.606   1.796   4.036
  588SOL     OW 2547   4.407   5.832   4.311
  588SOL    HW1 2548   4.498   5.840   4.281
  588SOL    HW2 2549   4.411   5.855   4.404
  589SOL     OW 2550   4.088   0.156   5.304
  589SOL    HW1 2551   4.140   0.116   5.234
  589SOL    HW2 2552   4.093   0.250   5.288
  590SOL     OW 2553   4.983   0.402   4.845
  590SOL    HW1 2554   4.941   0.481   4.810
  590SOL    HW2 2555   4.911   0.347   4.875
  591SOL     OW 2556   4.176   0.129   4.566
  591SOL    HW1 2557   4.141   0.092   4.647
  591SOL    HW2 2558   4.107   0.115   4.501
  592SOL     OW 2559   4.304   1.073   3.945
  592SOL    HW1 2560   4.377   1.017   3.973
  592SOL    HW2 2561   4.233   1.051   4.005
  593SOL     OW 2562   5.003   1.901   4.335
  593SOL    HW1 2563   4.962   1.968   4.279
  593SOL    HW2 2564   4.932   1.840   4.353
  594SOL     OW 2565   4.589   0.130   5.076
  594SOL    HW1 2566   4.586   0.086   5.161
  594SOL    HW2 2567   4.498   0.133   5.047
  595SOL     OW 2568   4.246   0.784   5.237
  595SOL    HW1 2569   4.338   0.806   5.227
  595SOL    HW2 2570   4.241   0.691   5.216
  596SOL     OW 2571   4.298   0.717   4.861
  596SOL    HW1 2572   4.246   0.642   4.831
  596SOL    HW2 2573   4.388   0.694   4.840
  597SOL     OW 2574   4.664   1.556   5.270
  597SOL    HW1 2575   4.702   1.641   5.244
  597SOL    HW2 2576   4.736   1.509   5.311
  598SOL     OW 2577   4.040   0.884   5.391
  598SOL    HW1 2578   4.055   0.841   5.475
  598SOL    HW2 2579   4.111   0.853   5.335
  599SOL     OW 2580   3.889   1.222   5.243
  599SOL    HW1 2581   3.793   1.220   5.237
  599SOL    HW2 2582   3.913   1.309   5.210
  600SOL     OW 2583   4.421   1.437   5.218
  600SOL    HW1 2584   4.367   1.501   5.264
  600SOL    HW2 2585   4.510   1.471   5.227
  601SOL     OW 2586   4.521   0.922   4.008
  601SOL    HW1 2587   4.557   0.956   3.925
  601SOL    HW2 2588   4.597   0.883   4.052
  602SOL     OW 2589   3.759   1.060   5.593
  602SOL    HW1 2590   3.680   1.084   5.544
  602SOL    HW2 2591   3.734   1.069   5.685
  603SOL     OW 2592   4.505   0.843   5.168
  603SOL    HW1 2593   4.567   0.881   5.230
  603SOL    HW2 2594   4.559   0.802   5.101
  604SOL     OW 2595   3.901   0.270   4.131
  604SOL    HW1 2596   3.950   0.342   4.171
  604SOL    HW2 2597   3.922   0.194   4.185
  605SOL     OW 2598   4.822   0.184   4.944
  605SOL    HW1 2599   4.744   0.180   5.000
  605SOL    HW2 2600   4.798   0.133   4.866
  606SOL     OW 2601   4.079   0.766   5.633
  606SOL    HW1 2602   4.145   0.784   5.701
  606SOL    HW2 2603   4.018   0.706   5.675
  607SOL     OW 2604   4.907   1.795   5.701
  607SOL    HW1 2605   4.970   1.807   5.772
  607SOL    HW2 2606   4.851   1.723   5.730
  608SOL     OW 2607   5.123   1.298   5.700
  608SOL    HW1 2608   5.140   1.318   5.792
  608SOL    HW2 2609   5.080   1.376   5.666
  609SOL     OW 2610   4.153   0.047   5.610
  609SOL    HW1 2611   4.237   0.053   5.563
  609SOL    HW2 2612   4.176   0.062   5.701
  610SOL     OW 2613   4.445   0.296   5.877
  610SOL    HW1 2614   4.539   0.283   5.882
  610SOL    HW2 2615   4.434   0.391   5.873
  611SOL     OW 2616   3.834   0.344   5.782
  611SOL    HW1 2617   3.751   0.315   5.744
  611SOL    HW2 2618   3.859   0.272   5.840
  612SOL     OW 2619   5.330   1.883   1.433
  612SOL    HW1 2620   5.256   1.925   1.388
  612SOL    HW2 2621   5.340   1.934   1.514
  613SOL     OW 2622   5.621   3.707   0.404
  613SOL    HW1 2623   5.700   3.658   0.430
  613SOL    HW2 2624   5.641   3.740   0.317
  614SOL     OW 2625   5.714   2.770   0.540
  614SOL    HW1 2626   5.668   2.745   0.621
  614SOL    HW2 2627   5.644   2.785   0.476
  615SOL     OW 2628   5.091   2.328   1.519
  615SOL    HW1 2629   5.109   2.305   1.610
  615SOL    HW2 2630   5.088   2.244   1.473
  616SOL     OW 2631   4.700   2.291   1.215
  616SOL    HW1 2632   4.626   2.287   1.276
  616SOL    HW2 2633   4.734   2.202   1.213
  617SOL     OW 2634   4.704   3.361   0.402
  617SOL    HW1 2635   4.617   3.367   0.441
  617SOL    HW2 2636   4.755   3.311   0.466
  618SOL     OW 2637   4.855   3.198   1.584
  618SOL    HW1 2638   4.849   3.113   1.627
  618SOL    HW2 2639   4.822   3.183   1.495
  619SOL     OW 2640   3.989   2.845   0.350
  619SOL    HW1 2641   4.018   2.759   0.319
  619SOL    HW2 2642   3.956   2.830   0.438
  620SOL     OW 2643   4.783   3.450   0.160
  620SOL    HW1 2644   4.755   3.420   0.246
  620SOL    HW2 2645   4.828   3.533   0.177
  621SOL     OW 2646   5.100   1.973   0.327
  621SOL    HW1 2647   5.075   1.933   0.243
  621SOL    HW2 2648   5.148   1.904   0.372
  622SOL     OW 2649   3.817   3.715   1.223
  622SOL    HW1 2650   3.820   3.620   1.230
  622SOL    HW2 2651   3.874   3.736   1.150
  623SOL     OW 2652   4.785   3.150   1.324
  623SOL    HW1 2653   4.696   3.157   1.290
  623SOL    HW2 2654   4.825   3.079   1.273
  624SOL     OW 2655   4.802   2.346   0.923
  624SOL    HW1 2656   4.814   2.349   0.828
  624SOL    HW2 2657   4.742   2.272   0.937
  625SOL     OW 2658   4.894   3.141   5.845
  625SOL    HW1 2659   4.980   3.127   5.806
  625SOL    HW2 2660   4.871   3.057   5.884
  626SOL     OW 2661   3.830   2.461   1.399
  626SOL    HW1 2662   3.877   2.380   1.423
  626SOL    HW2 2663   3.896   2.530   1.408
  627SOL     OW 2664   4.322   3.208   0.023
  627SOL    HW1 2665   4.268   3.243   0.094
  627SOL    HW2 2666   4.289   3.120   0.008
  628SOL     OW 2667   5.035   2.367   1.250
  628SOL    HW1 2668   5.058   2.392   1.339
  628SOL    HW2 2669   5.056   2.274   1.244
  629SOL     OW 2670   5.049   3.245   1.338
  629SOL    HW1 2671   5.063   3.295   1.418
  629SOL    HW2 2672   4.955   3.230   1.335
  630SOL     OW 2673   4.124   2.375   1.676
  630SOL    HW1 2674   4.084   2.365   1.590
  630SOL    HW2 2675   4.123   2.286   1.713
  631SOL     OW 2676   4.335   1.882   1.678
  631SOL    HW1 2677   4.265   1.947   1.681
  631SOL    HW2 2678   4.408   1.927   1.635
  632SOL     OW 2679   4.359   2.718   0.968
  632SOL    HW1 2680   4.364   2.812   0.951
  632SOL    HW2 2681   4.272   2.692   0.936
  633SOL     OW 2682   4.781   2.669   1.106
  633SOL    HW1 2683   4.836   2.747   1.118
  633SOL    HW2 2684   4.696   2.704   1.079
  634SOL     OW 2685   5.005   2.717   5.862
  634SOL    HW1 2686   5.060   2.651   5.903
  634SOL    HW2 2687   5.014   2.701   5.768
  635SOL     OW 2688   4.100   2.703   0.874
  635SOL    HW1 2689   4.023   2.702   0.931
  635SOL    HW2 2690   4.064   2.711   0.786
  636SOL     OW 2691   3.947   3.096   0.259
  636SOL    HW1 2692   3.853   3.100   0.278
  636SOL    HW2 2693   3.973   3.008   0.288
  637SOL     OW 2694   3.685   2.502   0.712
  637SOL    HW1 2695   3.731   2.581   0.686
  637SOL    HW2 2696   3.752   2.434   0.717
  638SOL     OW 2697   4.152   3.268   0.225
  638SOL    HW1 2698   4.080   3.205   0.229
  638SOL    HW2 2699   4.143   3.319   0.306
  639SOL     OW 2700   4.831   2.904   0.070
  639SOL    HW1 2701   4.768   2.851   0.119
  639SOL    HW2 2702   4.895   2.840   0.038
  640SOL     OW 2703   5.376   3.143   1.171
  640SOL    HW1 2704   5.448   3.141   1.108
  640SOL    HW2 2705   5.414   3.185   1.248
  641SOL     OW 2706   3.992   2.246   1.462
  641SOL    HW1 2707   4.000   2.187   1.537
  641SOL    HW2 2708   4.021   2.194   1.387
  642SOL     OW 2709   4.795   2.039   1.211
  642SOL    HW1 2710   4.797   1.949   1.178
  642SOL    HW2 2711   4.878   2.051   1.256
  643SOL     OW 2712   4.110   3.322   3.000
  643SOL    HW1 2713   4.167   3.298   2.928
  643SOL    HW2 2714   4.027   3.278   2.980
  644SOL     OW 2715   5.377   3.336   2.643
  644SOL    HW1 2716   5.328   3.332   2.725
  644SOL    HW2 2717   5.345   3.415   2.600
  645SOL     OW 2718   3.931   3.007   2.780
  645SOL    HW1 2719   3.982   2.941   2.828
  645SOL    HW2 2720   3.906   3.070   2.847
  646SOL     OW 2721   5.154   1.923   3.373
  646SOL    HW1 2722   5.130   1.970   3.453
  646SOL    HW2 2723   5.248   1.936   3.366
  647SOL     OW 2724   3.699   2.340   2.428
  647SOL    HW1 2725   3.736   2.353   2.340
  647SOL    HW2 2726   3.705   2.427   2.468
  648SOL     OW 2727   4.297   2.699   2.138
  648SOL    HW1 2728   4.277   2.744   2.056
  648SOL    HW2 2729   4.341   2.765   2.191
  649SOL     OW 2730   5.364   3.264   1.628
  649SOL    HW1 2731   5.308   3.333   1.665
  649SOL    HW2 2732   5.379   3.204   1.701
  650SOL     OW 2733   4.028   3.729   3.294
  650SOL    HW1 2734   4.067   3.645   3.271
  650SOL    HW2 2735   4.034   3.781   3.213
  651SOL     OW 2736   4.756   2.179   2.854
  651SOL    HW1 2737   4.747   2.258   2.801
  651SOL    HW2 2738   4.666   2.155   2.876
  652SOL     OW 2739   5.050   2.675   3.350
  652SOL    HW1 2740   4.965   2.686   3.308
  652SOL    HW2 2741   5.106   2.740   3.310
  653SOL     OW 2742   5.232   2.949   2.826
  653SOL    HW1 2743   5.199   2.870   2.783
  653SOL    HW2 2744   5.282   2.994   2.758
  654SOL     OW 2745   5.391   3.061   2.634
  654SOL    HW1 2746   5.444   3.056   2.554
  654SOL    HW2 2747   5.376   3.154   2.647
  655SOL     OW 2748   4.088   1.825   3.530
  655SOL    HW1 2749   4.100   1.839   3.436
  655SOL    HW2 2750   4.153   1.882   3.571
  656SOL     OW 2751   5.642   3.152   3.537
  656SOL    HW1 2752   5.573   3.086   3.527
  656SOL    HW2 2753   5.606   3.231   3.497
  657SOL     OW 2754   4.221   2.467   2.022
  657SOL    HW1 2755   4.248   2.544   2.072
  657SOL    HW2 2756   4.230   2.395   2.084
  658SOL     OW 2757   5.612   1.889   2.494
  658SOL    HW1 2758   5.702   1.861   2.483
  658SOL    HW2 2759   5.566   1.854   2.417
  659SOL     OW 2760   4.933   3.418   1.722
  659SOL    HW1 2761   4.850   3.450   1.759
  659SOL    HW2 2762   4.909   3.340   1.672
  660SOL     OW 2763   5.201   3.437   1.758
  660SOL    HW1 2764   5.107   3.430   1.743
  660SOL    HW2 2765   5.209   3.499   1.831
  661SOL     OW 2766   5.410   3.007   3.481
  661SOL    HW1 2767   5.348   2.960   3.538
  661SOL    HW2 2768   5.371   3.001   3.394
  662SOL     OW 2769   4.119   2.100   3.047
  662SOL    HW1 2770   4.120   2.174   3.107
  662SOL    HW2 2771   4.135   2.024   3.103
  663SOL     OW 2772   5.042   1.956   3.043
  663SOL    HW1 2773   5.035   2.046   3.075
  663SOL    HW2 2774   4.989   1.956   2.962
  664SOL     OW 2775   4.145   3.499   3.206
  664SOL    HW1 2776   4.229   3.471   3.241
  664SOL    HW2 2777   4.130   3.442   3.130
  665SOL     OW 2778   3.868   2.488   5.284
  665SOL    HW1 2779   3.959   2.499   5.257
  665SOL    HW2 2780   3.836   2.577   5.299
  666SOL     OW 2781   4.933   2.055   5.038
  666SOL    HW1 2782   4.950   2.020   4.950
  666SOL    HW2 2783   4.907   1.979   5.090
  667SOL     OW 2784   4.689   2.165   3.943
  667SOL    HW1 2785   4.691   2.250   3.899
  667SOL    HW2 2786   4.621   2.116   3.896
  668SOL     OW 2787   3.873   2.225   5.211
  668SOL    HW1 2788   3.862   2.316   5.239
  668SOL    HW2 2789   3.803   2.178   5.255
  669SOL     OW 2790   4.659   3.553   4.975
  669SOL    HW1 2791   4.624   3.515   4.894
  669SOL    HW2 2792   4.728   3.492   5.001
  670SOL     OW 2793   4.129   3.237   4.005
  670SOL    HW1 2794   4.044   3.192   4.003
  670SOL    HW2 2795   4.190   3.172   4.040
  671SOL     OW 2796   4.305   3.046   4.105
  671SOL    HW1 2797   4.327   3.045   4.198
  671SOL    HW2 2798   4.389   3.044   4.060
  672SOL     OW 2799   4.951   2.289   5.180
  672SOL    HW1 2800   4.923   2.359   5.121
  672SOL    HW2 2801   4.949   2.210   5.125
  673SOL     OW 2802   4.266   2.492   4.579
  673SOL    HW1 2803   4.351   2.502   4.621
  673SOL    HW2 2804   4.216   2.437   4.640
  674SOL     OW 2805   4.123   2.508   5.195
  674SOL    HW1 2806   4.216   2.530   5.201
  674SOL    HW2 2807   4.122   2.425   5.147
  675SOL     OW 2808   4.107   2.263   5.077
  675SOL    HW1 2809   4.023   2.244   5.121
  675SOL    HW2 2810   4.132   2.180   5.037
  676SOL     OW 2811   5.169   2.860   3.544
  676SOL    HW1 2812   5.129   2.774   3.528
  676SOL    HW2 2813   5.166   2.904   3.459
  677SOL     OW 2814   4.659   3.344   4.755
  677SOL    HW1 2815   4.711   3.320   4.831
  677SOL    HW2 2816   4.716   3.330   4.680
  678SOL     OW 2817   4.939   2.095   5.377
  678SOL    HW1 2818   4.951   2.182   5.338
  678SOL    HW2 2819   4.917   2.039   5.302
  679SOL     OW 2820   4.398   3.405   4.705
  679SOL    HW1 2821   4.491   3.389   4.718
  679SOL    HW2 2822   4.355   3.327   4.739
  680SOL     OW 2823   4.507   3.620   5.218
  680SOL    HW1 2824   4.553   3.560   5.160
  680SOL    HW2 2825   4.511   3.705   5.174
  681SOL     OW 2826   5.528   3.568   5.287
  681SOL    HW1 2827   5.474   3.490   5.277
  681SOL    HW2 2828   5.511   3.619   5.208
  682SOL     OW 2829   4.722   3.001   5.049
  682SOL    HW1 2830   4.778   3.078   5.037
  682SOL    HW2 2831   4.633   3.033   5.035
  683SOL     OW 2832   5.044   2.656   5.599
  683SOL    HW1 2833   5.023   2.574   5.555
  683SOL    HW2 2834   5.073   2.714   5.529
  684SOL     OW 2835   4.523   3.325   5.770
  684SOL    HW1 2836   4.483   3.355   5.688
  684SOL    HW2 2837   4.451   3.286   5.819
  685SOL     OW 2838   3.867   4.012   0.525
  685SOL    HW1 2839   3.801   4.074   0.556
  685SOL    HW2 2840   3.816   3.935   0.498
  686SOL     OW 2841   4.812   4.464   0.794
  686SOL    HW1 2842   4.815   4.434   0.703
  686SOL    HW2 2843   4.806   4.559   0.788
  687SOL     OW 2844   5.261   4.351   0.724
  687SOL    HW1 2845   5.205   4.330   0.649
  687SOL    HW2 2846   5.199   4.373   0.794
  688SOL     OW 2847   3.900   5.145   0.510
  688SOL    HW1 2848   3.990   5.175   0.503
  688SOL    HW2 2849   3.902   5.055   0.477
  689SOL     OW 2850   5.458   4.625   0.796
  689SOL    HW1 2851   5.424   4.633   0.885
  689SOL    HW2 2852   5.451   4.713   0.760
  690SOL     OW 2853   3.860   4.588   1.565
  690SOL    HW1 2854   3.820   4.503   1.584
  690SOL    HW2 2855   3.925   4.570   1.498
  691SOL     OW 2856   5.026   4.846   1.452
  691SOL    HW1 2857   5.069   4.898   1.385
  691SOL    HW2 2858   4.993   4.910   1.516
  692SOL     OW 2859   5.137   4.441   1.526
  692SOL    HW1 2860   5.184   4.378   1.580
  692SOL    HW2 2861   5.165   4.423   1.437
  693SOL     OW 2862   3.763   4.463   0.637
  693SOL    HW1 2863   3.820   4.490   0.565
  693SOL    HW2 2864   3.758   4.540   0.694
  694SOL     OW 2865   4.341   4.006   0.786
  694SOL    HW1 2866   4.280   4.005   0.860
  694SOL    HW2 2867   4.345   4.098   0.759
  695SOL     OW 2868   4.920   5.042   1.621
  695SOL    HW1 2869   4.901   5.060   1.713
  695SOL    HW2 2870   4.906   5.125   1.576
  696SOL     OW 2871   4.950   5.687   0.322
  696SOL    HW1 2872   4.934   5.605   0.275
  696SOL    HW2 2873   5.015   5.732   0.269
  697SOL     OW 2874   3.812   4.095   1.493
  697SOL    HW1 2875   3.753   4.034   1.449
  697SOL    HW2 2876   3.897   4.050   1.492
  698SOL     OW 2877   5.252   5.151   0.193
  698SOL    HW1 2878   5.172   5.106   0.222
  698SOL    HW2 2879   5.309   5.080   0.161
  699SOL     OW 2880   3.832   5.375   1.217
  699SOL    HW1 2881   3.925   5.354   1.227
  699SOL    HW2 2882   3.831   5.453   1.161
  700SOL     OW 2883   4.270   4.015   0.266
  700SOL    HW1 2884   4.350   4.027   0.215
  700SOL    HW2 2885   4.218   3.953   0.216
  701SOL     OW 2886   4.573   4.320   0.844
  701SOL    HW1 2887   4.655   4.370   0.846
  701SOL    HW2 2888   4.600   4.230   0.858
  702SOL     OW 2889   4.180   3.909   0.583
  702SOL    HW1 2890   4.135   3.837   0.627
  702SOL    HW2 2891   4.247   3.938   0.644
  703SOL     OW 2892   4.808   4.600   1.561
  703SOL    HW1 2893   4.802   4.673   1.624
  703SOL    HW2 2894   4.733   4.545   1.581
  704SOL     OW 2895   5.448   5.359   1.879
  704SOL    HW1 2896   5.474   5.449   1.859
  704SOL    HW2 2897   5.448   5.314   1.794
  705SOL     OW 2898   5.370   4.631   1.048
  705SOL    HW1 2899   5.410   4.671   1.126
  705SOL    HW2 2900   5.289   4.591   1.081
  706SOL     OW 2901   4.796   4.814   1.726
  706SOL    HW1 2902   4.785   4.857   1.811
  706SOL    HW2 2903   4.832   4.881   1.669
  707SOL     OW 2904   4.310   4.284   0.789
  707SOL    HW1 2905   4.284   4.353   0.728
  707SOL    HW2 2906   4.400   4.307   0.813
  708SOL     OW 2907   4.950   5.197   0.506
  708SOL    HW1 2908   4.983   5.255   0.576
  708SOL    HW2 2909   4.924   5.257   0.436
  709SOL     OW 2910   4.009   5.157   1.275
  709SOL    HW1 2911   4.097   5.130   1.246
  709SOL    HW2 2912   3.992   5.103   1.352
  710SOL     OW 2913   5.069   4.406   0.905
  710SOL    HW1 2914   4.977   4.425   0.887
  710SOL    HW2 2915   5.082   4.433   0.996
  711SOL     OW 2916   4.156   4.122   0.955
  711SOL    HW1 2917   4.070   4.160   0.970
  711SOL    HW2 2918   4.204   4.189   0.908
  712SOL     OW 2919   3.756   4.340   1.598
  712SOL    HW1 2920   3.783   4.258   1.556
  712SOL    HW2 2921   3.675   4.317   1.644
  713SOL     OW 2922   5.042   5.320   0.982
  713SOL    HW1 2923   5.029   5.370   0.901
  713SOL    HW2 2924   5.122   5.271   0.967
  714SOL     OW 2925   5.262   5.552   0.091
  714SOL    HW1 2926   5.261   5.644   0.119
  714SOL    HW2 2927   5.231   5.554   0.001
  715SOL     OW 2928   4.799   4.729   0.724
  715SOL    HW1 2929   4.722   4.778   0.697
  715SOL    HW2 2930   4.871   4.791   0.719
  716SOL     OW 2931   4.605   4.047   0.869
  716SOL    HW1 2932   4.519   4.019   0.836
  716SOL    HW2 2933   4.634   3.974   0.925
  717SOL     OW 2934   3.947   4.899   0.401
  717SOL    HW1 2935   3.961   4.812   0.439
  717SOL    HW2 2936   3.935   4.882   0.308
  718SOL     OW 2937   3.735   4.008   5.844
  718SOL    HW1 2938   3.749   4.065   5.920
  718SOL    HW2 2939   3.648   4.031   5.812
  719SOL     OW 2940   5.013   5.056   0.278
  719SOL    HW1 2941   4.962   5.122   0.231
  719SOL    HW2 2942   4.997   5.074   0.370
  720SOL     OW 2943   3.936   4.934   1.777
  720SOL    HW1 2944   3.963   4.990   1.850
  720SOL    HW2 2945   3.931   4.992   1.702
  721SOL     OW 2946   4.015   4.257   0.430
  721SOL    HW1 2947   3.934   4.254   0.481
  721SOL    HW2 2948   4.028   4.349   0.410
  722SOL     OW 2949   5.483   4.184   0.867
  722SOL    HW1 2950   5.538   4.113   0.900
  722SOL    HW2 2951   5.394   4.157   0.887
  723SOL     OW 2952   5.333   5.083   2.111
  723SOL    HW1 2953   5.361   5.004   2.158
  723SOL    HW2 2954   5.256   5.056   2.062
  724SOL     OW 2955   4.389   5.189   2.466
  724SOL    HW1 2956   4.331   5.113   2.471
  724SOL    HW2 2957   4.430   5.193   2.553
  725SOL     OW 2958   4.015   3.940   3.754
  725SOL    HW1 2959   3.976   4.025   3.772
  725SOL    HW2 2960   3.971   3.909   3.675
  726SOL     OW 2961   5.177   5.234   2.877
  726SOL    HW1 2962   5.091   5.197   2.895
  726SOL    HW2 2963   5.176   5.255   2.784
  727SOL     OW 2964   4.336   4.373   2.192
  727SOL    HW1 2965   4.348   4.379   2.097
  727SOL    HW2 2966   4.420   4.403   2.229
  728SOL     OW 2967   4.522   4.228   3.397
  728SOL    HW1 2968   4.515   4.156   3.460
  728SOL    HW2 2969   4.433   4.241   3.366
  729SOL     OW 2970   4.566   4.757   3.443
  729SOL    HW1 2971   4.611   4.676   3.421
  729SOL    HW2 2972   4.555   4.803   3.360
  730SOL     OW 2973   4.783   4.290   3.363
  730SOL    HW1 2974   4.690   4.273   3.375
  730SOL    HW2 2975   4.805   4.248   3.280
  731SOL     OW 2976   4.586   4.455   2.270
  731SOL    HW1 2977   4.651   4.394   2.305
  731SOL    HW2 2978   4.621   4.542   2.289
  732SOL     OW 2979   5.352   4.470   3.787
  732SOL    HW1 2980   5.273   4.419   3.772
  732SOL    HW2 2981   5.417   4.430   3.729
  733SOL     OW 2982   3.921   3.825   3.525
  733SOL    HW1 2983   3.959   3.795   3.443
  733SOL    HW2 2984   3.845   3.768   3.539
  734SOL     OW 2985   4.479   4.022   3.567
  734SOL    HW1 2986   4.533   3.960   3.617
  734SOL    HW2 2987   4.391   3.987   3.573
  735SOL     OW 2988   4.529   5.103   3.062
  735SOL    HW1 2989   4.522   5.107   2.967
  735SOL    HW2 2990   4.520   5.194   3.091
  736SOL     OW 2991   5.118   4.987   1.979
  736SOL    HW1 2992   5.031   5.027   1.977
  736SOL    HW2 2993   5.112   4.910   1.924
  737SOL     OW 2994   5.355   5.378   3.425
  737SOL    HW1 2995   5.352   5.457   3.479
  737SOL    HW2 2996   5.323   5.309   3.482
  738SOL     OW 2997   4.235   3.907   3.591
  738SOL    HW1 2998   4.184   3.854   3.530
  738SOL    HW2 2999   4.175   3.924   3.663
  739SOL     OW 3000   4.904   4.289   3.608
  739SOL    HW1 3001   4.824   4.264   3.654
  739SOL    HW2 3002   4.877   4.297   3.516
  740SOL     OW 3003   4.271   5.405   2.626
  740SOL    HW1 3004   4.324   5.372   2.698
  740SOL    HW2 3005   4.294   5.351   2.551
  741SOL     OW 3006   5.341   5.645   3.247
  741SOL    HW1 3007   5.293   5.718   3.208
  741SOL    HW2 3008   5.332   5.658   3.342
  742SOL     OW 3009   4.546   4.866   3.196
  742SOL    HW1 3010   4.545   4.811   3.117
  742SOL    HW2 3011   4.540   4.955   3.163
  743SOL     OW 3012   4.104   4.271   2.296
  743SOL    HW1 3013   4.179   4.315   2.257
  743SOL    HW2 3014   4.142   4.209   2.358
  744SOL     OW 3015   5.396   5.289   3.033
  744SOL    HW1 3016   5.312   5.276   2.988
  744SOL    HW2 3017   5.458   5.234   2.985
  745SOL     OW 3018   4.509   5.064   2.034
  745SOL    HW1 3019   4.440   4.999   2.027
  745SOL    HW2 3020   4.578   5.033   1.975
  746SOL     OW 3021   4.617   5.261   2.334
  746SOL    HW1 3022   4.531   5.235   2.367
  746SOL    HW2 3023   4.664   5.294   2.410
  747SOL     OW 3024   3.904   4.182   3.812
  747SOL    HW1 3025   3.890   4.193   3.906
  747SOL    HW2 3026   3.891   4.270   3.776
  748SOL     OW 3027   5.415   5.053   4.397
  748SOL    HW1 3028   5.462   5.038   4.480
  748SOL    HW2 3029   5.324   5.065   4.423
  749SOL     OW 3030   4.362   4.727   4.407
  749SOL    HW1 3031   4.436   4.766   4.454
  749SOL    HW2 3032   4.351   4.783   4.330
  750SOL     OW 3033   5.331   5.132   5.007
  750SOL    HW1 3034   5.324   5.197   5.077
  750SOL    HW2 3035   5.241   5.117   4.979
  751SOL     OW 3036   3.941   5.581   4.366
  751SOL    HW1 3037   3.923   5.671   4.339
  751SOL    HW2 3038   3.975   5.589   4.455
  752SOL     OW 3039   3.860   4.228   4.078
  752SOL    HW1 3040   3.819   4.156   4.126
  752SOL    HW2 3041   3.900   4.282   4.146
  753SOL     OW 3042   3.995   4.400   5.100
  753SOL    HW1 3043   3.942   4.377   5.176
  753SOL    HW2 3044   3.974   4.492   5.082
  754SOL     OW 3045   4.348   4.913   4.198
  754SOL    HW1 3046   4.257   4.933   4.173
  754SOL    HW2 3047   4.393   4.899   4.115
  755SOL     OW 3048   5.396   4.655   3.981
  755SOL    HW1 3049   5.387   4.592   3.910
  755SOL    HW2 3050   5.313   4.650   4.029
  756SOL     OW 3051   4.487   4.094   5.006
  756SOL    HW1 3052   4.583   4.091   5.001
  756SOL    HW2 3053   4.461   4.002   5.014
  757SOL     OW 3054   4.038   5.023   5.383
  757SOL    HW1 3055   4.123   5.058   5.409
  757SOL    HW2 3056   3.993   5.006   5.465
  758SOL     OW 3057   3.932   3.748   3.934
  758SOL    HW1 3058   3.960   3.818   3.875
  758SOL    HW2 3059   4.012   3.698   3.951
  759SOL     OW 3060   5.150   4.298   3.726
  759SOL    HW1 3061   5.067   4.309   3.680
  759SOL    HW2 3062   5.153   4.206   3.749
  760SOL     OW 3063   4.579   3.815   5.028
  760SOL    HW1 3064   4.609   3.729   4.999
  760SOL    HW2 3065   4.653   3.874   5.012
  761SOL     OW 3066   4.763   4.031   5.000
  761SOL    HW1 3067   4.821   4.041   5.076
  761SOL    HW2 3068   4.820   4.048   4.925
  762SOL     OW 3069   4.276   4.482   4.503
  762SOL    HW1 3070   4.341   4.435   4.452
  762SOL    HW2 3071   4.288   4.574   4.477
  763SOL     OW 3072   3.968   3.737   5.634
  763SOL    HW1 3073   3.947   3.650   5.599
  763SOL    HW2 3074   4.032   3.773   5.574
  764SOL     OW 3075   3.982   4.953   5.125
  764SOL    HW1 3076   4.011   4.862   5.134
  764SOL    HW2 3077   3.995   4.991   5.212
  765SOL     OW 3078   4.143   4.355   4.703
  765SOL    HW1 3079   4.104   4.282   4.655
  765SOL    HW2 3080   4.187   4.406   4.635
  766SOL     OW 3081   3.799   5.504   4.608
  766SOL    HW1 3082   3.799   5.502   4.512
  766SOL    HW2 3083   3.841   5.587   4.631
  767SOL     OW 3084   4.354   4.335   5.007
  767SOL    HW1 3085   4.387   4.246   4.997
  767SOL    HW2 3086   4.419   4.379   5.061
  768SOL     OW 3087   5.715   3.619   4.112
  768SOL    HW1 3088   5.793   3.575   4.079
  768SOL    HW2 3089   5.737   3.643   4.202
  769SOL     OW 3090   4.411   5.173   4.285
  769SOL    HW1 3091   4.507   5.178   4.286
  769SOL    HW2 3092   4.392   5.083   4.257
  770SOL     OW 3093   4.900   5.403   5.793
  770SOL    HW1 3094   4.912   5.396   5.888
  770SOL    HW2 3095   4.808   5.383   5.778
  771SOL     OW 3096   5.145   5.502   5.727
  771SOL    HW1 3097   5.057   5.473   5.751
  771SOL    HW2 3098   5.156   5.471   5.637
  772SOL     OW 3099   3.893   4.752   0.164
  772SOL    HW1 3100   3.936   4.693   0.226
  772SOL    HW2 3101   3.800   4.727   0.168
  773SOL     OW 3102   3.862   5.587   1.048
  773SOL    HW1 3103   3.867   5.682   1.058
  773SOL    HW2 3104   3.865   5.572   0.954
  774SOL     OW 3105   4.630   5.576   0.494
  774SOL    HW1 3106   4.608   5.664   0.463
  774SOL    HW2 3107   4.652   5.527   0.415
  775SOL     OW 3108   4.811   5.649   0.681
  775SOL    HW1 3109   4.741   5.613   0.627
  775SOL    HW2 3110   4.853   5.573   0.721
  776SOL     OW 3111   5.278   5.423   0.447
  776SOL    HW1 3112   5.353   5.468   0.484
  776SOL    HW2 3113   5.218   5.413   0.521
  777SOL     OW 3114   3.989   5.831   2.728
  777SOL    HW1 3115   4.064   5.875   2.768
  777SOL    HW2 3116   4.026   5.756   2.682
  778SOL     OW 3117   5.383   5.771   2.414
  778SOL    HW1 3118   5.399   5.683   2.379
  778SOL    HW2 3119   5.295   5.793   2.382
  779SOL     OW 3120   5.359   5.659   3.522
  779SOL    HW1 3121   5.448   5.677   3.553
  779SOL    HW2 3122   5.302   5.703   3.585
  780SOL     OW 3123   4.123   5.635   2.598
  780SOL    HW1 3124   4.177   5.664   2.525
  780SOL    HW2 3125   4.160   5.551   2.625
  781SOL     OW 3126   4.698   5.447   2.037
  781SOL    HW1 3127   4.674   5.530   2.077
  781SOL    HW2 3128   4.747   5.471   1.958
  782SOL     OW 3129   5.653   5.765   2.360
  782SOL    HW1 3130   5.564   5.786   2.389
  782SOL    HW2 3131   5.645   5.677   2.321
  783SOL     OW 3132   3.948   5.737   4.611
  783SOL    HW1 3133   3.993   5.781   4.683
  783SOL    HW2 3134   3.946   5.801   4.540
  784SOL     OW 3135   3.660   0.033   4.248
  784SOL    HW1 3136   3.754   0.026   4.268
  784SOL    HW2 3137   3.617   0.027   4.334
  785SOL     OW 3138   4.426   0.031   4.569
  785SOL    HW1 3139   4.454   0.034   4.660
  785SOL    HW2 3140   4.342   0.076   4.567
  786SOL     OW 3141   5.163   5.686   4.015
  786SOL    HW1 3142   5.252   5.671   4.047
  786SOL    HW2 3143   5.107   5.663   4.090
  787SOL     OW 3144   4.308   5.808   3.992
  787SOL    HW1 3145   4.362   5.734   3.963
  787SOL    HW2 3146   4.310   5.869   3.918
  788SOL     OW 3147   4.130   5.577   4.168
  788SOL    HW1 3148   4.059   5.561   4.230
  788SOL    HW2 3149   4.151   5.490   4.133
  789SOL     OW 3150   5.083   0.184   5.033
  789SOL    HW1 3151   5.090   0.120   5.104
  789SOL    HW2 3152   4.991   0.182   5.008
  790SOL     OW 3153   4.115   5.862   4.796
  790SOL    HW1 3154   4.135   5.922   4.868
  790SOL    HW2 3155   4.165   5.784   4.815
  791SOL     OW 3156   3.743   0.118   5.477
  791SOL    HW1 3157   3.699   0.158   5.553
  791SOL    HW2 3158   3.678   0.121   5.407
  792SOL     OW 3159   0.067   1.590   1.015
  792SOL    HW1 3160  -0.009   1.548   1.055
  792SOL    HW2 3161   0.121   1.517   0.983
  793SOL     OW 3162   5.647   1.767   0.313
  793SOL    HW1 3163   5.600   1.775   0.230
  793SOL    HW2 3164   5.580   1.739   0.376
  794SOL     OW 3165   5.734   0.784   1.525
  794SOL    HW1 3166   5.752   0.727   1.450
  794SOL    HW2 3167   5.774   0.867   1.501
  795SOL     OW 3168   5.709   0.539   1.392
  795SOL    HW1 3169   5.783   0.493   1.353
  795SOL    HW2 3170   5.634   0.513   1.338
  796SOL     OW 3171   5.669   1.518   1.383
  796SOL    HW1 3172   5.583   1.558   1.369
  796SOL    HW2 3173   5.728   1.592   1.389
  797SOL     OW 3174   5.759   1.254   1.366
  797SOL    HW1 3175   5.673   1.212   1.361
  797SOL    HW2 3176   5.739   1.348   1.371
  798SOL     OW 3177  -0.017   0.999   1.433
  798SOL    HW1 3178   0.063   0.971   1.388
  798SOL    HW2 3179  -0.028   1.091   1.407
  799SOL     OW 3180   5.651   0.380   0.210
  799SOL    HW1 3181   5.703   0.311   0.251
  799SOL    HW2 3182   5.565   0.341   0.196
  800SOL     OW 3183   5.834   0.981   0.307
  800SOL    HW1 3184   5.753   1.025   0.330
  800SOL    HW2 3185   5.895   1.004   0.378
  801SOL     OW 3186   5.720   0.685   1.781
  801SOL    HW1 3187   5.752   0.720   1.864
  801SOL    HW2 3188   5.754   0.746   1.715
  802SOL     OW 3189   0.049   1.329   2.437
  802SOL    HW1 3190   0.086   1.401   2.487
  802SOL    HW2 3191  -0.044   1.350   2.430
  803SOL     OW 3192   5.770   0.377   4.804
  803SOL    HW1 3193   5.685   0.366   4.847
  803SOL    HW2 3194   5.749   0.405   4.715
  804SOL     OW 3195   5.862   1.692   4.243
  804SOL    HW1 3196   5.877   1.774   4.290
  804SOL    HW2 3197   5.781   1.706   4.195
  805SOL     OW 3198   5.668   1.794   5.331
  805SOL    HW1 3199   5.630   1.775   5.417
  805SOL    HW2 3200   5.593   1.807   5.273
  806SOL     OW 3201   5.648   0.591   5.060
  806SOL    HW1 3202   5.590   0.601   5.136
  806SOL    HW2 3203   5.596   0.539   4.998
  807SOL     OW 3204   0.326   1.344   4.430
  807SOL    HW1 3205   0.265   1.335   4.504
  807SOL    HW2 3206   0.274   1.387   4.362
  808SOL     OW 3207   5.625   1.284   4.732
  808SOL    HW1 3208   5.576   1.308   4.810
  808SOL    HW2 3209   5.707   1.333   4.740
  809SOL     OW 3210   5.815   1.120   4.338
  809SOL    HW1 3211   5.904   1.137   4.368
  809SOL    HW2 3212   5.813   1.155   4.249
  810SOL     OW 3213   0.004   0.608   5.764
  810SOL    HW1 3214   0.058   0.687   5.775
  810SOL    HW2 3215  -0.028   0.614   5.674
  811SOL     OW 3216   0.091   2.666   1.503
  811SOL    HW1 3217   0.028   2.647   1.433
  811SOL    HW2 3218   0.175   2.671   1.458
  812SOL     OW 3219   5.893   1.802   0.419
  812SOL    HW1 3220   5.937   1.724   0.386
  812SOL    HW2 3221   5.805   1.797   0.384
  813SOL     OW 3222   5.487   3.255   1.388
  813SOL    HW1 3223   5.436   3.258   1.469
  813SOL    HW2 3224   5.573   3.290   1.412
  814SOL     OW 3225   0.102   2.799   0.496
  814SOL    HW1 3226   0.137   2.826   0.581
  814SOL    HW2 3227   0.008   2.788   0.512
  815SOL     OW 3228   5.629   3.305   2.525
  815SOL    HW1 3229   5.549   3.321   2.575
  815SOL    HW2 3230   5.623   3.213   2.499
  816SOL     OW 3231   5.596   2.869   2.673
  816SOL    HW1 3232   5.606   2.817   2.753
  816SOL    HW2 3233   5.520   2.925   2.690
  817SOL     OW 3234   5.605   3.034   2.455
  817SOL    HW1 3235   5.622   2.969   2.523
  817SOL    HW2 3236   5.656   3.004   2.380
  818SOL     OW 3237   5.830   2.099   4.703
  818SOL    HW1 3238   5.843   2.116   4.796
  818SOL    HW2 3239   5.735   2.108   4.691
  819SOL     OW 3240   5.874   2.813   5.419
  819SOL    HW1 3241   5.812   2.744   5.444
  819SOL    HW2 3242   5.935   2.818   5.492
  820SOL     OW 3243   5.886   3.335   5.447
  820SOL    HW1 3244   5.807   3.327   5.393
  820SOL    HW2 3245   5.920   3.246   5.454
  821SOL     OW 3246   5.293   3.183   4.904
  821SOL    HW1 3247   5.348   3.220   4.974
  821SOL    HW2 3248   5.356   3.147   4.841
  822SOL     OW 3249   5.712   3.608   5.481
  822SOL    HW1 3250   5.644   3.587   5.417
  822SOL    HW2 3251   5.710   3.703   5.488
  823SOL     OW 3252   5.714   4.409   0.681
  823SOL    HW1 3253   5.762   4.491   0.686
  823SOL    HW2 3254   5.776   4.346   0.647
  824SOL     OW 3255   5.608   5.557   3.333
  824SOL    HW1 3256   5.654   5.552   3.417
  824SOL    HW2 3257   5.559   5.639   3.337
  825SOL     OW 3258   0.128   3.952   1.930
  825SOL    HW1 3259   0.086   4.002   2.000
  825SOL    HW2 3260   0.077   3.973   1.851
  826SOL     OW 3261   5.740   4.328   5.060
  826SOL    HW1 3262   5.775   4.256   5.113
  826SOL    HW2 3263   5.690   4.381   5.122
  827SOL     OW 3264   5.843   5.043   4.835
  827SOL    HW1 3265   5.759   5.029   4.791
  827SOL    HW2 3266   5.821   5.095   4.913
  828SOL     OW 3267   5.632   4.918   4.298
  828SOL    HW1 3268   5.552   4.968   4.315
  828SOL    HW2 3269   5.620   4.880   4.211
  829SOL     OW 3270   5.614   4.798   4.056
  829SOL    HW1 3271   5.647   4.820   3.968
  829SOL    HW2 3272   5.536   4.744   4.039
  830SOL     OW 3273   0.251   3.859   5.871
  830SOL    HW1 3274   0.207   3.844   5.788
  830SOL    HW2 3275   0.252   3.955   5.881
  831SOL     OW 3276   5.793   0.111   2.413
  831SOL    HW1 3277   5.716   0.155   2.451
  831SOL    HW2 3278   5.762   0.024   2.389
  832SOL     OW 3279   5.842   5.786   3.353
  832SOL    HW1 3280   5.776   5.778   3.423
  832SOL    HW2 3281   5.805   5.736   3.280
  833SOL     OW 3282   5.672   0.043   4.178
  833SOL    HW1 3283   5.675  -0.007   4.259
  833SOL    HW2 3284   5.635   0.127   4.203
  834SOL     OW 3285   5.750   5.849   3.925
  834SOL    HW1 3286   5.665   5.824   3.888
  834SOL    HW2 3287   5.729   5.876   4.015
  835NA      NA 3288   0.810   0.528   0.549
  836NA      NA 3289   0.054   0.802   0.187
  837NA      NA 3290   1.515   0.287   0.329
  838NA      NA 3291   1.846   5.802   1.607
  839NA      NA 3292   0.737   1.177   3.463
  840NA      NA 3293   0.859   0.116   2.304
  841NA      NA 3294   1.232   1.063   3.491
  842NA      NA 3295   0.339   0.163   2.312
  843NA      NA 3296   0.516   0.473   3.365
  844NA      NA 3297   5.705   1.183   4.535
  845NA      NA 3298   0.707   5.622   3.973
  846NA      NA 3299   0.436   0.908   5.400
  847NA      NA 3300   1.567   1.786   4.476
  848NA      NA 3301   0.414   2.932   1.412
  849NA      NA 3302   1.475   3.949   0.752
  850NA      NA 3303   1.317   3.459   0.690
  851NA      NA 3304   0.623   2.320   1.616
  852NA      NA 3305   1.560   2.315   1.003
  853NA      NA 3306   0.165   1.968   0.801
  854NA      NA 3307   1.788   1.694   0.795
  855NA      NA 3308   0.563   3.504   0.102
  856NA      NA 3309   0.792   3.003   2.481
  857NA      NA 3310   1.293   3.276   2.843
  858NA      NA 3311   0.946   3.484   4.198
  859NA      NA 3312   1.058   2.197   3.833
  860NA      NA 3313   1.934   2.242   5.533
  861NA      NA 3314   0.044   3.241   3.879
  862NA      NA 3315   0.045   3.540   5.552
  863NA      NA 3316   0.239   2.798   0.308
  864NA      NA 3317   1.370   2.196   0.535
  865NA      NA 3318   0.568   5.053   0.764
  866NA      NA 3319   0.786   4.804   1.418
  867NA      NA 3320   0.769   4.499   1.641
  868NA      NA 3321   0.702   4.140   3.480
  869NA      NA 3322   0.944   4.857   5.439
  870NA      NA 3323   5.765   4.868   4.486
  871NA      NA 3324   0.849   4.938   3.943
  872NA      NA 3325   1.898   4.419   5.217
  873NA      NA 3326   5.198   5.378   0.230
  874NA      NA 3327   1.873   5.854   4.081
  875NA      NA 3328   0.005   5.802   3.738
  876NA      NA 3329   1.549   5.753   4.995
  877NA      NA 3330   2.439   0.774   0.937
  878NA      NA 3331   2.380   1.189   0.195
  879NA      NA 3332   1.714   0.237   2.362
  880NA      NA 3333   3.390   1.042   2.127
  881NA      NA 3334   2.432   1.029   3.270
  882NA      NA 3335   2.868   0.396   1.908
  883NA      NA 3336   3.764   0.008   2.735
  884NA      NA 3337   3.257   0.128   2.791
  885NA      NA 3338   2.584   5.850   4.088
  886NA      NA 3339   3.258   1.246   4.641
  887NA      NA 3340   3.487   0.231   3.874
  888NA      NA 3341   2.710   0.192   5.785
  889NA      NA 3342   3.078   2.177   0.293
  890NA      NA 3343   2.092   3.434   4.663
  891NA      NA 3344   1.966   3.106   0.201
  892NA      NA 3345   1.804   4.323   1.164
  893NA      NA 3346   3.755   5.162   1.277
  894NA      NA 3347   2.948   5.463   3.285
  895NA      NA 3348   2.752   4.645   2.641
  896NA      NA 3349   2.251   5.303   4.915
  897NA      NA 3350   3.963   4.925   4.892
  898NA      NA 3351   2.754   4.769   4.983
  899NA      NA 3352   2.573   5.581   0.542
  900NA      NA 3353   3.853   0.494   1.291
  901NA      NA 3354   4.221   1.706   1.783
  902NA      NA 3355   4.708   0.587   2.694
  903NA      NA 3356   5.161   1.796   3.171
  904NA      NA 3357   4.199   1.573   3.285
  905NA      NA 3358   4.392   0.917   4.955
  906NA      NA 3359   3.855   1.025   5.376
  907NA      NA 3360   5.201   0.349   4.912
  908NA      NA 3361   4.385   1.188   3.754
  909NA      NA 3362   4.196   2.553   1.805
  910NA      NA 3363   5.153   3.085   1.202
  911NA      NA 3364   4.854   2.449   1.129
  912NA      NA 3365   5.190   3.087   3.015
  913NA      NA 3366   4.908   1.890   5.491
  914NA      NA 3367   3.893   3.835   5.835
  915NA      NA 3368   5.116   3.275   5.040
  916NA      NA 3369   4.735   3.308   5.863
  917NA      NA 3370   5.015   5.671   0.546
  918NA      NA 3371   4.074   4.030   0.407
  919NA      NA 3372   5.001   4.611   1.426
  920NA      NA 3373   3.786   4.794   1.651
  921NA      NA 3374   5.444   5.432   3.213
  922NA      NA 3375   4.156   4.434   4.922
  923NA      NA 3376   3.966   0.041   5.467
  924NA      NA 3377   4.497   4.837   3.650
  925NA      NA 3378   5.370   4.985   4.820
  926NA      NA 3379   4.674   5.222   2.108
  927NA      NA 3380   4.200   5.801   4.205
  928NA      NA 3381   5.592   0.597   1.600
  929NA      NA 3382   5.665   1.920   3.123
  930NA      NA 3383   5.490   4.396   0.763
  931NA      NA 3384   0.278   3.900   2.112
  932NA      NA 3385   5.420   5.300   2.106
  933CL      CL 3386   1.755   0.243   1.984
  934CL      CL 3387   0.599   0.134   2.336
  935CL      CL 3388   0.767   1.907   1.626
  936CL      CL 3389   1.313   1.112   0.400
  937CL      CL 3390   0.569   0.418   1.189
  938CL      CL 3391   0.188   1.585   2.566
  939CL      CL 3392   0.683   0.667   3.362
  940CL      CL 3393   1.005   1.194   3.498
  941CL      CL 3394   0.460   3.459   0.343
  942CL      CL 3395   1.493   2.233   0.766
  943CL      CL 3396   0.505   3.142   1.277
  944CL      CL 3397   0.858   2.388   3.337
  945CL      CL 3398   0.711   2.529   2.116
  946CL      CL 3399   1.703   2.241   5.661
  947CL      CL 3400   1.606   2.041   4.411
  948CL      CL 3401   1.320   2.158   3.877
  949CL      CL 3402   0.910   3.367   3.961
  950CL      CL 3403   1.324   0.143   0.224
  951CL      CL 3404   0.839   4.540   1.390
  952CL      CL 3405   0.635   4.836   0.635
  953CL      CL 3406   0.573   4.668   1.714
  954CL      CL 3407   1.350   3.729   0.676
  955CL      CL 3408   1.256   4.877   2.518
  956CL      CL 3409   0.638   5.808   3.797
  957CL      CL 3410   0.940   5.136   4.089
  958CL      CL 3411   1.029   3.423   2.474
  959CL      CL 3412   0.753   4.704   3.845
  960CL      CL 3413   0.701   4.916   5.510
  961CL      CL 3414   1.808   4.450   4.969
  962CL      CL 3415   3.015   1.956   0.162
  963CL      CL 3416   2.498   1.028   0.875
  964CL      CL 3417   2.811   0.224   2.094
  965CL      CL 3418   3.160   0.979   2.006
  966CL      CL 3419   2.137   0.006   4.080
  967CL      CL 3420   3.261   0.333   3.779
  968CL      CL 3421   3.158   1.448   4.774
  969CL      CL 3422   3.601   1.104   5.317
  970CL      CL 3423   1.883   3.041   0.442
  971CL      CL 3424   2.935   3.497   0.661
  972CL      CL 3425   1.748   4.254   0.904
  973CL      CL 3426   1.822   5.579   1.473
  974CL      CL 3427   2.552   5.357   0.400
  975CL      CL 3428   2.703   4.880   2.535
  976CL      CL 3429   2.697   5.565   3.268
  977CL      CL 3430   2.375   5.101   5.035
  978CL      CL 3431   2.066   5.454   5.037
  979CL      CL 3432   2.706   4.513   4.994
  980CL      CL 3433   3.998   3.861   0.193
  981CL      CL 3434   2.603   0.285   0.125
  982CL      CL 3435   3.318   0.153   5.793
  983CL      CL 3436   3.136   0.125   4.939
  984CL      CL 3437   5.080   2.062   1.341
  985CL      CL 3438   0.159   1.034   0.543
  986CL      CL 3439   5.066   1.740   0.092
  987CL      CL 3440   3.611   0.568   1.226
  988CL      CL 3441   5.220   5.843   0.228
  989CL      CL 3442   5.661   5.723   3.611
  990CL      CL 3443   3.523   0.087   2.790
  991CL      CL 3444   4.631   0.509   2.460
  992CL      CL 3445   3.978   0.018   4.322
  993CL      CL 3446   5.455   0.401   4.884
  994CL      CL 3447   0.037   1.332   4.585
  995CL      CL 3448   4.611   0.784   4.877
  996CL      CL 3449   4.615   1.060   3.739
  997CL      CL 3450   4.247   1.362   3.616
  998CL      CL 3451   0.155   0.882   5.831
  999CL      CL 3452   4.860   1.814   5.242
 1000CL      CL 3453   3.892   2.728   0.629
 1001CL      CL 3454   4.080   2.059   1.708
 1002CL      CL 3455   4.941   2.943   1.142
 1003CL      CL 3456   5.186   3.316   2.889
 1004CL      CL 3457   4.166   1.833   3.217
 1005CL      CL 3458   4.228   2.807   1.849
 1006CL      CL 3459   5.192   2.940   3.234
 1007CL      CL 3460   5.422   1.860   3.195
 1008CL      CL 3461   0.097   3.442   4.048
 1009CL      CL 3462   5.332   3.342   5.178
 1010CL      CL 3463   4.858   3.293   4.996
 1011CL      CL 3464   0.231   2.867   0.053
 1012CL      CL 3465   3.820   5.003   1.483
 1013CL      CL 3466   5.121   4.512   1.210
 1014CL      CL 3467   5.067   5.448   0.684
 1015CL      CL 3468   3.963   4.570   0.418
 1016CL      CL 3469   4.928   5.377   0.229
 1017CL      CL 3470   0.101   4.058   2.228
 1018CL      CL 3471   5.461   5.498   2.268
 1019CL      CL 3472   4.425   4.893   3.890
 1020CL      CL 3473   4.497   5.200   2.757
 1021CL      CL 3474   4.813   5.077   1.927
 1022CL      CL 3475   4.041   4.678   4.949
 1023CL      CL 3476   5.110   5.007   4.816
 1024CL      CL 3477   5.583   4.968   4.664
 1025CL      CL 3478   5.369   0.473   1.551
 1026CL      CL 3479   4.770   0.647   2.940
 1027CL      CL 3480   4.269   0.089   5.056
 1028CL      CL 3481   0.356   2.685   1.322
 1029CL      CL 3482   0.431   5.211   0.934
 1030CL      CL 3483   0.118   3.794   5.590
   5.88059   5.88059   5.88059
