Generic title in water
 3483
    1PEO     C1    1   2.920   2.894   3.625
    1PEO     H3    2   2.878   2.872   3.526
    1PEO     H4    3   2.837   2.927   3.688
    1PEO      O    4   2.982   2.777   3.667
    1PEO     C2    5   3.122   2.802   3.715
    1PEO     H5    6   3.177   2.879   3.659
    1PEO     H6    7   3.180   2.709   3.704
    1PEO     C3    8   3.140   2.845   3.868
    1PEO     H7    9   3.243   2.826   3.900
    1PEO     H8   10   3.057   2.790   3.915
    1PEO     O1   11   3.106   2.989   3.883
    1PEO     C4   12   3.201   3.080   3.831
    1PEO     H9   13   3.173   3.186   3.836
    1PEO    H10   14   3.223   3.063   3.725
    1PEO     C5   15   3.336   3.075   3.913
    1PEO    H11   16   3.397   3.158   3.876
    1PEO    H12   17   3.383   2.984   3.875
    1PEO     O2   18   3.321   3.075   4.054
    1PEO     C6   19   3.247   3.191   4.114
    1PEO    H13   20   3.222   3.174   4.219
    1PEO    H14   21   3.146   3.190   4.071
    1PEO     C7   22   3.316   3.324   4.093
    1PEO    H15   23   3.423   3.306   4.106
    1PEO    H16   24   3.272   3.388   4.171
    1PEO     O3   25   3.292   3.377   3.963
    1PEO     C8   26   3.376   3.493   3.947
    1PEO    H17   27   3.389   3.550   4.040
    1PEO    H18   28   3.337   3.567   3.875
    1PEO     C9   29   3.514   3.449   3.902
    1PEO    H19   30   3.560   3.533   3.848
    1PEO    H20   31   3.511   3.366   3.831
    1PEO     O4   32   3.596   3.402   4.009
    1PEO    C10   33   3.703   3.491   4.045
    1PEO    H21   34   3.742   3.462   4.143
    1PEO    H22   35   3.678   3.597   4.047
    2PEO     C1   36   3.802   3.453   3.938
    2PEO     H3   37   3.892   3.510   3.967
    2PEO     H4   38   3.784   3.487   3.835
    2PEO      O   39   3.815   3.307   3.944
    2PEO     C2   40   3.916   3.249   3.866
    2PEO     H5   41   4.013   3.299   3.878
    2PEO     H6   42   3.877   3.267   3.765
    2PEO     C3   43   3.930   3.099   3.900
    2PEO     H7   44   4.013   3.062   3.838
    2PEO     H8   45   3.834   3.048   3.890
    2PEO     O1   46   3.984   3.080   4.035
    2PEO     C4   47   3.995   2.938   4.068
    2PEO     H9   48   3.906   2.883   4.037
    2PEO    H10   49   4.017   2.927   4.175
    2PEO     C5   50   4.105   2.856   3.993
    2PEO    H11   51   4.135   2.770   4.054
    2PEO    H12   52   4.199   2.913   3.987
    2PEO     O2   53   4.070   2.825   3.859
    2PEO     C6   54   3.994   2.714   3.824
    2PEO    H13   55   3.943   2.731   3.729
    2PEO    H14   56   3.916   2.690   3.897
    2PEO     C7   57   4.096   2.597   3.812
    2PEO    H15   58   4.121   2.558   3.911
    2PEO    H16   59   4.184   2.642   3.764
    2PEO     O3   60   4.044   2.491   3.727
    2PEO     C8   61   3.958   2.394   3.804
    2PEO    H17   62   3.855   2.431   3.808
    2PEO    H18   63   3.990   2.379   3.908
    2PEO     C9   64   3.962   2.276   3.696
    2PEO    H19   65   4.051   2.219   3.726
    2PEO    H20   66   3.975   2.311   3.594
    2PEO     O4   67   3.851   2.192   3.722
    2PEO    C10   68   3.722   2.236   3.667
    2PEO    H21   69   3.732   2.285   3.570
    2PEO    H22   70   3.681   2.312   3.735
    3PEO     C1   71   3.632   2.122   3.673
    3PEO     H3   72   3.661   2.056   3.756
    3PEO     H4   73   3.648   2.055   3.588
    3PEO      O   74   3.495   2.161   3.675
    3PEO     C2   75   3.440   2.212   3.547
    3PEO     H5   76   3.333   2.190   3.542
    3PEO     H6   77   3.489   2.161   3.463
    3PEO     C3   78   3.439   2.367   3.550
    3PEO     H7   79   3.443   2.387   3.658
    3PEO     H8   80   3.342   2.407   3.517
    3PEO     O1   81   3.545   2.435   3.481
    3PEO     C4   82   3.582   2.562   3.542
    3PEO     H9   83   3.669   2.603   3.489
    3PEO    H10   84   3.616   2.543   3.645
    3PEO     C5   85   3.475   2.675   3.516
    3PEO    H11   86   3.383   2.619   3.495
    3PEO    H12   87   3.490   2.747   3.436
    3PEO     O2   88   3.455   2.748   3.641
    3PEO     C6   89   3.565   2.799   3.718
    3PEO    H13   90   3.641   2.724   3.744
    3PEO    H14   91   3.530   2.845   3.810
    3PEO     C7   92   3.632   2.912   3.644
    3PEO    H15   93   3.674   2.992   3.706
    3PEO    H16   94   3.554   2.954   3.579
    3PEO     O3   95   3.741   2.862   3.560
    3PEO     C8   96   3.846   2.956   3.503
    3PEO    H17   97   3.930   2.905   3.455
    3PEO    H18   98   3.897   3.016   3.580
    3PEO     C9   99   3.767   3.058   3.404
    3PEO    H19  100   3.701   2.991   3.348
    3PEO    H20  101   3.837   3.106   3.334
    3PEO     O4  102   3.694   3.160   3.484
    3PEO    C10  103   3.605   3.234   3.415
    3PEO    H21  104   3.519   3.177   3.378
    3PEO    H22  105   3.642   3.298   3.334
    4PEO     C1  106   3.559   3.337   3.524
    4PEO     H3  107   3.649   3.389   3.562
    4PEO     H4  108   3.503   3.282   3.600
    4PEO      O  109   3.476   3.428   3.459
    4PEO     C2  110   3.421   3.515   3.549
    4PEO     H5  111   3.501   3.563   3.607
    4PEO     H6  112   3.355   3.454   3.614
    4PEO     C3  113   3.331   3.624   3.488
    4PEO     H7  114   3.268   3.585   3.407
    4PEO     H8  115   3.395   3.697   3.436
    4PEO     O1  116   3.236   3.693   3.581
    4PEO     C4  117   3.130   3.615   3.643
    4PEO     H9  118   3.127   3.634   3.751
    4PEO    H10  119   3.145   3.507   3.636
    4PEO     C5  120   3.001   3.671   3.586
    4PEO    H11  121   2.969   3.774   3.605
    4PEO    H12  122   2.925   3.609   3.635
    4PEO     O2  123   2.995   3.639   3.442
    4PEO     C6  124   2.899   3.539   3.417
    4PEO    H13  125   2.805   3.565   3.467
    4PEO    H14  126   2.944   3.455   3.472
    4PEO     C7  127   2.880   3.513   3.268
    4PEO    H15  128   2.816   3.588   3.220
    4PEO    H16  129   2.828   3.416   3.269
    4PEO     O3  130   3.006   3.505   3.202
    4PEO     C8  131   3.116   3.418   3.240
    4PEO    H17  132   3.152   3.443   3.340
    4PEO    H18  133   3.199   3.459   3.181
    4PEO     C9  134   3.073   3.273   3.225
    4PEO    H19  135   3.152   3.219   3.170
    4PEO    H20  136   2.990   3.268   3.153
    4PEO     O4  137   3.036   3.211   3.351
    4PEO    C10  138   3.134   3.192   3.451
    4PEO    H21  139   3.073   3.162   3.538
    4PEO    H22  140   3.187   3.285   3.477
    5PEO     C1  141   3.228   3.077   3.407
    5PEO     H3  142   3.294   3.064   3.494
    5PEO     H4  143   3.288   3.108   3.321
    5PEO      O  144   3.153   2.948   3.381
    5PEO     C2  145   3.232   2.832   3.355
    5PEO     H5  146   3.172   2.743   3.381
    5PEO     H6  147   3.310   2.845   3.431
    5PEO     C3  148   3.281   2.830   3.218
    5PEO     H7  149   3.303   2.931   3.181
    5PEO     H8  150   3.209   2.794   3.143
    5PEO     O1  151   3.396   2.741   3.207
    5PEO     C4  152   3.438   2.700   3.082
    5PEO     H9  153   3.359   2.630   3.052
    5PEO    H10  154   3.531   2.644   3.094
    5PEO     C5  155   3.474   2.812   2.987
    5PEO    H11  156   3.549   2.780   2.913
    5PEO    H12  157   3.534   2.886   3.040
    5PEO     O2  158   3.354   2.870   2.922
    5PEO     C6  159   3.258   2.784   2.853
    5PEO    H13  160   3.208   2.722   2.929
    5PEO    H14  161   3.309   2.716   2.784
    5PEO     C7  162   3.168   2.867   2.765
    5PEO    H15  163   3.124   2.820   2.676
    5PEO    H16  164   3.229   2.944   2.717
    5PEO     O3  165   3.069   2.944   2.846
    5PEO     C8  166   2.963   2.859   2.894
    5PEO    H17  167   2.905   2.914   2.969
    5PEO    H18  168   2.997   2.774   2.954
    5PEO     C9  169   2.871   2.822   2.779
    5PEO    H19  170   2.910   2.726   2.743
    5PEO    H20  171   2.874   2.884   2.688
    5PEO     O4  172   2.740   2.794   2.832
    5PEO    C10  173   2.663   2.906   2.874
    5PEO    H21  174   2.701   2.967   2.957
    5PEO    H22  175   2.561   2.879   2.906
    6PET     C9  176   2.633   2.998   2.753
    6PET     H6  177   2.534   3.045   2.761
    6PET     H7  178   2.633   2.927   2.669
    6PET     O2  179   2.741   3.095   2.729
    6PET     C8  180   2.767   3.197   2.820
    6PET     O1  181   2.681   3.223   2.906
    6PET     C4  182   2.899   3.268   2.805
    6PET     C5  183   2.995   3.219   2.719
    6PET     C6  184   3.116   3.294   2.711
    6PET     H4  185   3.196   3.254   2.649
    6PET     H3  186   2.975   3.136   2.652
    6PET     C3  187   2.926   3.382   2.882
    6PET     H2  188   2.854   3.420   2.954
    6PET     C2  189   3.041   3.458   2.871
    6PET     H1  190   3.057   3.547   2.930
    6PET     C1  191   3.142   3.414   2.783
    6PET     C7  192   3.272   3.491   2.771
    6PET     O3  193   3.294   3.597   2.832
    6PET     O4  194   3.365   3.429   2.700
    6PET    C10  195   3.486   3.503   2.670
    6PET     H8  196   3.530   3.542   2.763
    6PET     H9  197   3.483   3.596   2.612
    6PET    C11  198   3.575   3.401   2.594
    6PET    H10  199   3.675   3.445   2.584
    6PET    H11  200   3.546   3.406   2.489
    6PET    C12  201   3.607   3.252   2.655
    6PET    H13  202   3.626   3.183   2.572
    6PET    H14  203   3.517   3.210   2.701
    7PET     C9  204   3.731   3.251   2.753
    7PET     H6  205   3.814   3.296   2.697
    7PET     H7  206   3.762   3.150   2.783
    7PET     O2  207   3.704   3.322   2.872
    7PET     C8  208   3.791   3.308   2.975
    7PET     O1  209   3.869   3.218   2.996
    7PET     C4  210   3.761   3.405   3.095
    7PET     C5  211   3.632   3.459   3.105
    7PET     C6  212   3.618   3.572   3.194
    7PET     H4  213   3.518   3.612   3.202
    7PET     H3  214   3.550   3.411   3.054
    7PET     C3  215   3.863   3.429   3.189
    7PET     H2  216   3.958   3.377   3.186
    7PET     C2  217   3.841   3.526   3.287
    7PET     H1  218   3.926   3.537   3.353
    7PET     C1  219   3.726   3.608   3.279
    7PET     C7  220   3.706   3.712   3.384
    7PET     O3  221   3.775   3.711   3.485
    7PET     O4  222   3.602   3.800   3.365
    7PET    C10  223   3.559   3.888   3.467
    7PET     H8  224   3.652   3.928   3.508
    7PET     H9  225   3.484   3.838   3.530
    7PET    C11  226   3.493   4.012   3.395
    7PET    H10  227   3.432   3.967   3.315
    7PET    H11  228   3.561   4.079   3.341
    7PET    C12  229   3.408   4.112   3.485
    7PET    H13  230   3.390   4.199   3.422
    7PET    H14  231   3.461   4.149   3.574
    8PET     C9  232   3.271   4.067   3.524
    8PET     H6  233   3.230   4.005   3.443
    8PET     H7  234   3.199   4.149   3.538
    8PET     O2  235   3.283   3.987   3.646
    8PET     C8  236   3.173   3.953   3.714
    8PET     O1  237   3.054   3.980   3.673
    8PET     C4  238   3.203   3.910   3.862
    8PET     C5  239   3.329   3.853   3.900
    8PET     C6  240   3.350   3.814   4.032
    8PET     H4  241   3.451   3.788   4.061
    8PET     H3  242   3.417   3.843   3.837
    8PET     C3  243   3.110   3.928   3.957
    8PET     H2  244   3.019   3.977   3.926
    8PET     C2  245   3.122   3.880   4.085
    8PET     H1  246   3.035   3.892   4.150
    8PET     C1  247   3.245   3.826   4.123
    8PET     C7  248   3.263   3.772   4.260
    8PET     O3  249   3.186   3.774   4.358
    8PET     O4  250   3.401   3.730   4.272
    8PET    C10  251   3.445   3.695   4.405
    8PET     H8  252   3.386   3.608   4.436
    8PET     H9  253   3.415   3.771   4.477
    8PET    C11  254   3.595   3.654   4.412
    8PET    H10  255   3.647   3.744   4.376
    8PET    H11  256   3.607   3.569   4.345
    8PET    C12  257   3.638   3.601   4.552
    8PET    H13  258   3.618   3.685   4.619
    8PET    H14  259   3.746   3.587   4.534
    9PET     C9  260   3.568   3.477   4.607
    9PET     H6  261   3.460   3.492   4.625
    9PET     H7  262   3.603   3.441   4.705
    9PET     O2  263   3.581   3.369   4.506
    9PET     C8  264   3.510   3.256   4.520
    9PET     O1  265   3.443   3.226   4.617
    9PET     C4  266   3.519   3.161   4.404
    9PET     C5  267   3.426   3.051   4.410
    9PET     C6  268   3.437   2.946   4.313
    9PET     H4  269   3.369   2.863   4.332
    9PET     H3  270   3.353   3.036   4.489
    9PET     C3  271   3.608   3.166   4.293
    9PET     H2  272   3.674   3.253   4.285
    9PET     C2  273   3.609   3.062   4.193
    9PET     H1  274   3.671   3.079   4.106
    9PET     C1  275   3.527   2.950   4.207
    9PET     C7  276   3.537   2.835   4.111
    9PET     O3  277   3.632   2.824   4.032
    9PET     O4  278   3.436   2.736   4.125
    9PET    C10  279   3.432   2.634   4.029
    9PET     H8  280   3.525   2.576   4.031
    9PET     H9  281   3.427   2.682   3.931
    9PET    C11  282   3.305   2.550   4.043
    9PET    H10  283   3.223   2.609   4.085
    9PET    H11  284   3.316   2.470   4.116
    9PET    C12  285   3.248   2.495   3.913
    9PET    H13  286   3.330   2.438   3.869
    9PET    H14  287   3.226   2.572   3.838
   10PET     C9  288   3.127   2.390   3.931
   10PET     H6  289   3.036   2.441   3.965
   10PET     H7  290   3.152   2.305   3.995
   10PET     O2  291   3.094   2.335   3.802
   10PET     C8  292   3.000   2.235   3.793
   10PET     O1  293   2.946   2.189   3.892
   10PET     C4  294   2.977   2.187   3.647
   10PET     C5  295   3.056   2.245   3.548
   10PET     C6  296   3.050   2.196   3.409
   10PET     H4  297   3.115   2.256   3.347
   10PET     H3  298   3.116   2.335   3.558
   10PET     C3  299   2.900   2.072   3.606
   10PET     H2  300   2.844   2.025   3.687
   10PET     C2  301   2.895   2.024   3.471
   10PET     H1  302   2.830   1.941   3.447
   10PET     C1  303   2.974   2.084   3.374
   10PET     C7  304   2.965   2.022   3.240
   10PET     O3  305   2.936   1.903   3.215
   10PET     O4  306   2.965   2.112   3.138
   10PET    C10  307   2.978   2.059   3.002
   10PET     H8  308   2.893   1.998   2.971
   10PET     H9  309   3.069   1.999   3.016
   10PET    C11  310   3.019   2.171   2.902
   10PET    H10  311   2.939   2.242   2.878
   10PET    H11  312   3.038   2.119   2.807
   10PET    C12  313   3.144   2.254   2.927
   10PET    H13  314   3.163   2.332   2.852
   10PET    H14  315   3.233   2.191   2.921
   11PET     C9  316   3.147   2.327   3.055
   11PET     H6  317   3.230   2.398   3.064
   11PET     H7  318   3.144   2.259   3.141
   11PET     O2  319   3.019   2.406   3.073
   11PET     C8  320   3.004   2.489   3.185
   11PET     O1  321   3.083   2.484   3.277
   11PET     C4  322   2.874   2.561   3.187
   11PET     C5  323   2.849   2.659   3.284
   11PET     C6  324   2.730   2.735   3.291
   11PET     H4  325   2.725   2.813   3.366
   11PET     H3  326   2.933   2.683   3.348
   11PET     C3  327   2.775   2.539   3.094
   11PET     H2  328   2.783   2.465   3.014
   11PET     C2  329   2.649   2.607   3.098
   11PET     H1  330   2.580   2.586   3.018
   11PET     C1  331   2.632   2.705   3.200
   11PET     C7  332   2.499   2.777   3.200
   11PET     O3  333   2.408   2.755   3.117
   11PET     O4  334   2.495   2.877   3.295
   11PET    C10  335   2.383   2.953   3.301
   11PET     H8  336   2.339   2.986   3.206
   11PET     H9  337   2.405   3.045   3.358
   11PET    C11  338   2.254   2.882   3.365
   11PET    H10  339   2.224   2.802   3.297
   11PET    H11  340   2.178   2.961   3.376
   11PET    C12  341   2.287   2.820   3.504
   11PET    H13  342   2.320   2.893   3.579
   11PET    H14  343   2.375   2.757   3.493
   12PET     C9  344   2.174   2.742   3.567
   12PET     H6  345   2.094   2.811   3.598
   12PET     H7  346   2.210   2.682   3.652
   12PET     O2  347   2.115   2.649   3.480
   12PET     C8  348   2.185   2.534   3.437
   12PET     O1  349   2.295   2.501   3.471
   12PET     C4  350   2.109   2.439   3.354
   12PET     C5  351   1.977   2.464   3.315
   12PET     C6  352   1.903   2.378   3.230
   12PET     H4  353   1.801   2.403   3.202
   12PET     H3  354   1.938   2.560   3.349
   12PET     C3  355   2.168   2.317   3.311
   12PET     H2  356   2.265   2.285   3.348
   12PET     C2  357   2.097   2.227   3.232
   12PET     H1  358   2.146   2.136   3.199
   12PET     C1  359   1.969   2.260   3.184
   12PET     C7  360   1.885   2.175   3.099
   12PET     O3  361   1.914   2.060   3.065
   12PET     O4  362   1.777   2.234   3.042
   12PET    C10  363   1.702   2.157   2.948
   12PET     H8  364   1.684   2.058   2.992
   12PET     H9  365   1.775   2.150   2.865
   12PET    C11  366   1.583   2.243   2.891
   12PET    H10  367   1.502   2.255   2.964
   12PET    H11  368   1.537   2.183   2.812
   12PET    C12  369   1.617   2.385   2.829
   12PET    H13  370   1.514   2.414   2.805
   12PET    H14  371   1.661   2.364   2.731
   13PET     C9  372   1.706   2.496   2.901
   13PET     H6  373   1.674   2.488   3.006
   13PET     H7  374   1.681   2.595   2.862
   13PET     O2  375   1.847   2.468   2.870
   13PET     C8  376   1.941   2.528   2.947
   13PET     O1  377   1.921   2.611   3.027
   13PET     C4  378   2.083   2.469   2.919
   13PET     C5  379   2.113   2.361   2.831
   13PET     C6  380   2.243   2.311   2.814
   13PET     H4  381   2.273   2.231   2.746
   13PET     H3  382   2.032   2.308   2.781
   13PET     C3  383   2.193   2.525   2.990
   13PET     H2  384   2.172   2.610   3.054
   13PET     C2  385   2.316   2.462   2.988
   13PET     H1  386   2.384   2.489   3.068
   13PET     C1  387   2.339   2.354   2.907
   13PET     C7  388   2.470   2.280   2.899
   13PET     O3  389   2.581   2.332   2.895
   13PET     O4  390   2.447   2.145   2.900
   13PET    C10  391   2.549   2.049   2.939
   13PET     H8  392   2.647   2.071   2.895
   13PET     H9  393   2.524   1.949   2.900
   13PET    C11  394   2.573   2.043   3.094
   13PET    H10  395   2.655   1.974   3.118
   13PET    H11  396   2.478   2.003   3.133
   13PET    C12  397   2.605   2.169   3.167
   13PET    H13  398   2.527   2.243   3.147
   13PET    H14  399   2.699   2.221   3.145
   14PET     C9  400   2.588   2.144   3.319
   14PET     H6  401   2.670   2.077   3.351
   14PET     H7  402   2.486   2.107   3.335
   14PET     O2  403   2.598   2.276   3.380
   14PET     C8  404   2.620   2.262   3.518
   14PET     O1  405   2.635   2.157   3.584
   14PET     C4  406   2.633   2.399   3.588
   14PET     C5  407   2.653   2.396   3.730
   14PET     C6  408   2.665   2.519   3.802
   14PET     H4  409   2.706   2.525   3.903
   14PET     H3  410   2.669   2.307   3.790
   14PET     C3  411   2.618   2.524   3.527
   14PET     H2  412   2.595   2.521   3.421
   14PET     C2  413   2.607   2.645   3.602
   14PET     H1  414   2.575   2.734   3.549
   14PET     C1  415   2.637   2.642   3.736
   14PET     C7  416   2.621   2.768   3.819
   14PET     O3  417   2.634   2.766   3.941
   14PET     O4  418   2.603   2.887   3.744
   14PET    C10  419   2.600   3.006   3.821
   14PET     H8  420   2.640   3.091   3.764
   14PET     H9  421   2.668   2.994   3.906
   14PET    C11  422   2.451   3.038   3.863
   14PET    H10  423   2.422   2.955   3.928
   14PET    H11  424   2.385   3.034   3.775
   14PET    C12  425   2.426   3.179   3.914
   14PET    H13  426   2.329   3.170   3.964
   14PET    H14  427   2.410   3.252   3.834
   15PET     C9  428   2.522   3.230   4.032
   15PET     H6  429   2.476   3.324   4.064
   15PET     H7  430   2.625   3.245   3.995
   15PET     O2  431   2.518   3.133   4.123
   15PET     C8  432   2.574   3.151   4.242
   15PET     O1  433   2.600   3.261   4.285
   15PET     C4  434   2.590   3.026   4.325
   15PET     C5  435   2.574   2.898   4.267
   15PET     C6  436   2.588   2.791   4.343
   15PET     H4  437   2.583   2.694   4.294
   15PET     H3  438   2.543   2.887   4.164
   15PET     C3  439   2.616   3.040   4.467
   15PET     H2  440   2.622   3.138   4.514
   15PET     C2  441   2.634   2.924   4.540
   15PET     H1  442   2.643   2.927   4.649
   15PET     C1  443   2.618   2.798   4.478
   15PET     C7  444   2.636   2.677   4.561
   15PET     O3  445   2.646   2.678   4.684
   15PET     O4  446   2.665   2.560   4.485
   15PET    C10  447   2.689   2.437   4.558
   15PET     H8  448   2.596   2.407   4.608
   15PET     H9  449   2.763   2.458   4.636
   15PET    C11  450   2.737   2.320   4.468
   15PET    H10  451   2.660   2.273   4.405
   15PET    H11  452   2.759   2.240   4.540
   15PET    C12  453   2.867   2.345   4.379
   15PET    H13  454   2.915   2.250   4.354
   15PET    H14  455   2.930   2.385   4.459
   16PET     C9  456   2.849   2.430   4.251
   16PET     H6  457   2.757   2.421   4.191
   16PET     H7  458   2.916   2.390   4.174
   16PET     O2  459   2.901   2.559   4.282
   16PET     C8  460   2.928   2.636   4.171
   16PET     O1  461   2.926   2.599   4.060
   16PET     C4  462   2.947   2.778   4.206
   16PET     C5  463   2.985   2.825   4.333
   16PET     C6  464   2.988   2.953   4.376
   16PET     H4  465   3.006   2.976   4.481
   16PET     H3  466   2.994   2.749   4.410
   16PET     C3  467   2.918   2.884   4.113
   16PET     H2  468   2.886   2.852   4.015
   16PET     C2  469   2.938   3.013   4.142
   16PET     H1  470   2.908   3.094   4.076
   16PET     C1  471   2.962   3.055   4.280
   16PET     C7  472   2.955   3.200   4.317
   16PET     O3  473   2.998   3.245   4.424
   16PET     O4  474   2.907   3.274   4.219
   16PET    C10  475   2.878   3.414   4.249
   16PET     H8  476   2.965   3.479   4.265
   16PET     H9  477   2.812   3.424   4.336
   16PET    C11  478   2.797   3.481   4.143
   16PET    H10  479   2.740   3.564   4.187
   16PET    H11  480   2.726   3.417   4.088
   16PET    C12  481   2.899   3.538   4.031
   16PET    H13  482   2.984   3.586   4.081
   16PET    H14  483   2.844   3.611   3.971
   17PET     C9  484   2.948   3.433   3.937
   17PET     H6  485   2.983   3.348   3.996
   17PET     H7  486   3.025   3.485   3.878
   17PET     O2  487   2.838   3.411   3.850
   17PET     C8  488   2.862   3.346   3.730
   17PET     O1  489   2.967   3.297   3.709
   17PET     C4  490   2.739   3.327   3.645
   17PET     C5  491   2.614   3.402   3.674
   17PET     C6  492   2.498   3.377   3.605
   17PET     H4  493   2.407   3.431   3.633
   17PET     H3  494   2.604   3.473   3.756
   17PET     C3  495   2.741   3.240   3.528
   17PET     H2  496   2.830   3.180   3.510
   17PET     C2  497   2.627   3.243   3.442
   17PET     H1  498   2.613   3.194   3.347
   17PET     C1  499   2.501   3.304   3.478
   17PET     C7  500   2.372   3.295   3.394
   17PET     O3  501   2.264   3.314   3.449
   17PET     O4  502   2.393   3.276   3.261
   17PET    C10  503   2.280   3.282   3.174
   17PET     H8  504   2.206   3.359   3.201
   17PET     H9  505   2.227   3.187   3.190
   17PET    C11  506   2.331   3.286   3.027
   17PET    H10  507   2.365   3.183   3.007
   17PET    H11  508   2.413   3.357   3.012
   17PET    C12  509   2.222   3.303   2.925
   17PET    H13  510   2.173   3.397   2.951
   17PET    H14  511   2.158   3.217   2.948
   18PET     C9  512   2.275   3.294   2.785
   18PET     H6  513   2.370   3.241   2.776
   18PET     H7  514   2.286   3.384   2.722
   18PET     O2  515   2.165   3.221   2.714
   18PET     C8  516   2.170   3.092   2.691
   18PET     O1  517   2.260   3.021   2.726
   18PET     C4  518   2.056   3.036   2.612
   18PET     C5  519   2.064   2.904   2.559
   18PET     C6  520   1.970   2.854   2.471
   18PET     H4  521   1.979   2.759   2.420
   18PET     H3  522   2.160   2.855   2.574
   18PET     C3  523   1.933   3.107   2.587
   18PET     H2  524   1.915   3.202   2.637
   18PET     C2  525   1.834   3.057   2.508
   18PET     H1  526   1.741   3.111   2.488
   18PET     C1  527   1.859   2.930   2.450
   18PET     C7  528   1.748   2.874   2.380
   18PET     O3  529   1.654   2.940   2.337
   18PET     O4  530   1.747   2.738   2.352
   18PET    C10  531   1.672   2.685   2.236
   18PET     H8  532   1.722   2.730   2.150
   18PET     H9  533   1.570   2.726   2.242
   18PET    C11  534   1.680   2.532   2.245
   18PET    H10  535   1.602   2.485   2.183
   18PET    H11  536   1.653   2.504   2.347
   18PET    C12  537   1.816   2.472   2.206
   18PET    H13  538   1.844   2.512   2.108
   18PET    H14  539   1.811   2.363   2.197
   19PET     C9  540   1.935   2.489   2.294
   19PET     H6  541   1.897   2.473   2.396
   19PET     H7  542   1.978   2.590   2.291
   19PET     O2  543   2.030   2.385   2.261
   19PET     C8  544   2.145   2.373   2.339
   19PET     O1  545   2.161   2.420   2.452
   19PET     C4  546   2.231   2.258   2.281
   19PET     C5  547   2.210   2.209   2.150
   19PET     C6  548   2.274   2.091   2.107
   19PET     H4  549   2.236   2.033   2.024
   19PET     H3  550   2.137   2.254   2.083
   19PET     C3  551   2.332   2.200   2.361
   19PET     H2  552   2.350   2.234   2.462
   19PET     C2  553   2.402   2.091   2.308
   19PET     H1  554   2.479   2.043   2.368
   19PET     C1  555   2.371   2.036   2.182
   19PET     C7  556   2.439   1.914   2.125
   19PET     O3  557   2.368   1.823   2.084
   19PET     O4  558   2.575   1.914   2.136
   19PET    C10  559   2.647   1.809   2.078
   19PET     H8  560   2.665   1.822   1.971
   19PET     H9  561   2.595   1.714   2.094
   19PET    C11  562   2.784   1.800   2.154
   19PET    H10  563   2.830   1.899   2.155
   19PET    H11  564   2.850   1.726   2.108
   19PET    C12  565   2.780   1.739   2.298
   19PET    H13  566   2.886   1.726   2.321
   19PET    H14  567   2.731   1.641   2.304
   20PET     C9  568   2.701   1.811   2.405
   20PET     H6  569   2.727   1.765   2.501
   20PET     H7  570   2.595   1.809   2.378
   20PET     O2  571   2.748   1.950   2.402
   20PET     C8  572   2.701   2.031   2.497
   20PET     O1  573   2.616   1.998   2.575
   20PET     C4  574   2.792   2.157   2.517
   20PET     C5  575   2.791   2.248   2.630
   20PET     C6  576   2.880   2.361   2.636
   20PET     H4  577   2.891   2.429   2.720
   20PET     H3  578   2.740   2.237   2.725
   20PET     C3  579   2.884   2.191   2.417
   20PET     H2  580   2.895   2.124   2.332
   20PET     C2  581   2.971   2.293   2.427
   20PET     H1  582   3.050   2.305   2.353
   20PET     C1  583   2.960   2.387   2.528
   20PET     C7  584   3.042   2.506   2.535
   20PET     O3  585   3.054   2.577   2.633
   20PET     O4  586   3.110   2.515   2.418
   20PET    C10  587   3.215   2.614   2.425
   20PET     H8  588   3.281   2.611   2.513
   20PET     H9  589   3.168   2.713   2.425
   20PET    C11  590   3.303   2.618   2.292
   20PET    H10  591   3.341   2.719   2.270
   20PET    H11  592   3.239   2.596   2.206
   20PET    C12  593   3.414   2.505   2.288
   20PET    H13  594   3.470   2.511   2.194
   20PET    H14  595   3.365   2.409   2.305
   21PET     C9  596   3.517   2.529   2.403
   21PET     H6  597   3.583   2.443   2.422
   21PET     H7  598   3.465   2.529   2.499
   21PET     O2  599   3.585   2.649   2.375
   21PET     C8  600   3.685   2.696   2.458
   21PET     O1  601   3.724   2.651   2.561
   21PET     C4  602   3.728   2.838   2.414
   21PET     C5  603   3.674   2.894   2.298
   21PET     C6  604   3.698   3.027   2.258
   21PET     H4  605   3.636   3.073   2.181
   21PET     H3  606   3.599   2.841   2.240
   21PET     C3  607   3.830   2.902   2.478
   21PET     H2  608   3.881   2.849   2.557
   21PET     C2  609   3.862   3.040   2.445
   21PET     H1  610   3.943   3.080   2.506
   21PET     C1  611   3.784   3.108   2.338
   21PET     C7  612   3.806   3.250   2.306
   21PET     O3  613   3.862   3.323   2.386
   21PET     O4  614   3.777   3.283   2.178
   21PET    C10  615   3.792   3.412   2.118
   21PET     H8  616   3.896   3.437   2.092
   21PET     H9  617   3.766   3.496   2.184
   21PET    C11  618   3.696   3.438   1.994
   21PET    H10  619   3.706   3.539   1.953
   21PET    H11  620   3.592   3.432   2.028
   21PET    C12  621   3.703   3.339   1.882
   21PET    H13  622   3.678   3.239   1.919
   21PET    H14  623   3.807   3.326   1.848
   22PET     C9  624   3.625   3.369   1.752
   22PET     H6  625   3.702   3.385   1.675
   22PET     H7  626   3.577   3.465   1.773
   22PET     O2  627   3.541   3.266   1.708
   22PET     C8  628   3.427   3.239   1.775
   22PET     O1  629   3.396   3.289   1.884
   22PET     C4  630   3.346   3.131   1.704
   22PET     C5  631   3.342   3.124   1.561
   22PET     C6  632   3.276   3.013   1.505
   22PET     H4  633   3.287   2.995   1.398
   22PET     H3  634   3.374   3.204   1.494
   22PET     C3  635   3.263   3.056   1.790
   22PET     H2  636   3.270   3.063   1.898
   22PET     C2  637   3.205   2.947   1.726
   22PET     H1  638   3.150   2.879   1.791
   22PET     C1  639   3.205   2.928   1.591
   22PET     C7  640   3.123   2.807   1.536
   22PET     O3  641   3.140   2.784   1.419
   22PET     O4  642   3.033   2.747   1.609
   22PET    C10  643   2.957   2.628   1.561
   22PET     H8  644   3.025   2.546   1.535
   22PET     H9  645   2.890   2.651   1.478
   22PET    C11  646   2.873   2.586   1.682
   22PET    H10  647   2.929   2.591   1.776
   22PET    H11  648   2.835   2.484   1.669
   22PET    C12  649   2.751   2.674   1.712
   22PET    H13  650   2.669   2.641   1.647
   22PET    H14  651   2.770   2.779   1.687
   23PET     C9  652   2.692   2.675   1.853
   23PET     H6  653   2.687   2.573   1.894
   23PET     H7  654   2.592   2.717   1.843
   23PET     O2  655   2.789   2.769   1.930
   23PET     C8  656   2.779   2.774   2.064
   23PET     O1  657   2.682   2.726   2.132
   23PET     C4  658   2.896   2.827   2.136
   23PET     C5  659   3.003   2.865   2.061
   23PET     C6  660   3.119   2.922   2.126
   23PET     H4  661   3.199   2.968   2.070
   23PET     H3  662   2.996   2.857   1.953
   23PET     C3  663   2.895   2.850   2.276
   23PET     H2  664   2.805   2.817   2.328
   23PET     C2  665   3.006   2.908   2.340
   23PET     H1  666   3.013   2.913   2.448
   23PET     C1  667   3.117   2.948   2.267
   23PET     C7  668   3.225   3.019   2.340
   23PET     O3  669   3.248   3.007   2.460
   23PET     O4  670   3.302   3.101   2.258
   23PET    C10  671   3.377   3.210   2.323
   23PET     H8  672   3.468   3.181   2.378
   23PET     H9  673   3.317   3.265   2.397
   23PET    C11  674   3.407   3.318   2.218
   23PET    H10  675   3.389   3.287   2.115
   23PET    H11  676   3.516   3.324   2.230
   23PET    C12  677   3.347   3.467   2.229
   23PET    H13  678   3.326   3.473   2.337
   23PET    H14  679   3.252   3.473   2.175
   24PET     C9  680   3.436   3.584   2.175
   24PET     H6  681   3.544   3.563   2.181
   24PET     H7  682   3.426   3.681   2.225
   24PET     O2  683   3.397   3.592   2.044
   24PET     C8  684   3.465   3.671   1.962
   24PET     O1  685   3.566   3.735   1.996
   24PET     C4  686   3.415   3.673   1.815
   24PET     C5  687   3.321   3.578   1.771
   24PET     C6  688   3.295   3.570   1.629
   24PET     H4  689   3.225   3.496   1.591
   24PET     H3  690   3.263   3.519   1.841
   24PET     C3  691   3.495   3.733   1.719
   24PET     H2  692   3.585   3.789   1.742
   24PET     C2  693   3.458   3.734   1.584
   24PET     H1  694   3.523   3.797   1.524
   24PET     C1  695   3.351   3.653   1.536
   24PET     C7  696   3.298   3.659   1.395
   24PET     O3  697   3.194   3.603   1.362
   24PET     O4  698   3.371   3.743   1.317
   24PET    C10  699   3.328   3.796   1.191
   24PET     H8  700   3.320   3.709   1.125
   24PET     H9  701   3.409   3.858   1.151
   24PET    C11  702   3.196   3.892   1.205
   24PET    H10  703   3.111   3.859   1.266
   24PET    H11  704   3.164   3.903   1.101
   24PET    C12  705   3.232   4.033   1.249
   24PET    H13  706   3.142   4.095   1.260
   24PET    H14  707   3.300   4.086   1.181
   25PET     C9  708   3.306   4.048   1.390
   25PET     H6  709   3.327   4.155   1.389
   25PET     H7  710   3.389   3.976   1.392
   25PET     O2  711   3.217   4.021   1.493
   25PET     C8  712   3.278   4.005   1.614
   25PET     O1  713   3.396   4.035   1.633
   25PET     C4  714   3.191   3.953   1.718
   25PET     C5  715   3.069   3.890   1.686
   25PET     C6  716   2.990   3.847   1.793
   25PET     H4  717   2.888   3.816   1.773
   25PET     H3  718   3.020   3.876   1.589
   25PET     C3  719   3.244   3.947   1.850
   25PET     H2  720   3.340   3.995   1.869
   25PET     C2  721   3.169   3.879   1.952
   25PET     H1  722   3.213   3.872   2.051
   25PET     C1  723   3.037   3.830   1.926
   25PET     C7  724   2.953   3.753   2.026
   25PET     O3  725   2.845   3.701   1.996
   25PET     O4  726   3.026   3.726   2.145
   25PET    C10  727   2.947   3.678   2.254
   25PET     H8  728   2.889   3.590   2.224
   25PET     H9  729   2.881   3.755   2.296
   25PET    C11  730   3.042   3.647   2.361
   25PET    H10  731   3.134   3.704   2.342
   25PET    H11  732   3.057   3.538   2.360
   25PET    C12  733   2.991   3.675   2.500
   25PET    H13  734   2.933   3.767   2.507
   25PET    H14  735   3.077   3.686   2.567
   26PET     C9  736   2.897   3.569   2.551
   26PET     H6  737   2.851   3.604   2.645
   26PET     H7  738   2.941   3.468   2.548
   26PET     O2  739   2.783   3.553   2.454
   26PET     C8  740   2.667   3.493   2.500
   26PET     O1  741   2.641   3.474   2.615
   26PET     C4  742   2.562   3.470   2.382
   26PET     C5  743   2.424   3.435   2.416
   26PET     C6  744   2.332   3.388   2.317
   26PET     H4  745   2.230   3.362   2.343
   26PET     H3  746   2.399   3.446   2.522
   26PET     C3  747   2.598   3.454   2.247
   26PET     H2  748   2.692   3.492   2.208
   26PET     C2  749   2.499   3.414   2.148
   26PET     H1  750   2.517   3.400   2.042
   26PET     C1  751   2.363   3.380   2.182
   26PET     C7  752   2.264   3.321   2.076
   26PET     O3  753   2.301   3.319   1.961
   26PET     O4  754   2.140   3.286   2.123
   26PET    C10  755   2.047   3.248   2.020
   26PET     H8  756   2.090   3.164   1.964
   26PET     H9  757   2.043   3.321   1.939
   26PET    C11  758   1.913   3.206   2.087
   26PET    H10  759   1.825   3.226   2.025
   26PET    H11  760   1.895   3.281   2.165
   26PET    C12  761   1.907   3.070   2.148
   26PET    H13  762   1.812   3.057   2.201
   26PET    H14  763   1.969   3.060   2.237
   27PET     C9  764   1.898   2.942   2.055
   27PET     H6  765   1.804   2.947   1.998
   27PET     H7  766   1.903   2.847   2.110
   27PET     O2  767   2.013   2.937   1.966
   27PET     C8  768   2.007   2.830   1.874
   27PET     O1  769   1.916   2.755   1.865
   27PET     C4  770   2.140   2.822   1.795
   27PET     C5  771   2.241   2.914   1.822
   27PET     C6  772   2.347   2.925   1.733
   27PET     H4  773   2.418   3.007   1.742
   27PET     H3  774   2.228   2.987   1.901
   27PET     C3  775   2.137   2.735   1.686
   27PET     H2  776   2.056   2.666   1.668
   27PET     C2  777   2.249   2.744   1.594
   27PET     H1  778   2.264   2.672   1.514
   27PET     C1  779   2.352   2.837   1.622
   27PET     C7  780   2.461   2.851   1.523
   27PET     O3  781   2.477   2.767   1.433
   27PET     O4  782   2.521   2.978   1.526
   27PET    C10  783   2.651   2.988   1.454
   27PET     H8  784   2.652   2.941   1.355
   27PET     H9  785   2.730   2.944   1.516
   27PET    C11  786   2.678   3.131   1.440
   27PET    H10  787   2.671   3.186   1.535
   27PET    H11  788   2.592   3.178   1.390
   27PET    C12  789   2.815   3.180   1.377
   27PET    H13  790   2.822   3.288   1.360
   27PET    H14  791   2.821   3.148   1.272
   28PET     C9  792   2.936   3.121   1.449
   28PET     H6  793   3.023   3.165   1.400
   28PET     H7  794   2.922   3.014   1.426
   28PET     O2  795   2.922   3.130   1.596
   28PET     C8  796   2.974   3.235   1.674
   28PET     O1  797   3.036   3.321   1.625
   28PET     C4  798   2.934   3.220   1.820
   28PET     C5  799   2.818   3.154   1.864
   28PET     C6  800   2.790   3.137   1.998
   28PET     H4  801   2.705   3.073   2.024
   28PET     H3  802   2.749   3.095   1.805
   28PET     C3  803   3.013   3.284   1.909
   28PET     H2  804   3.099   3.340   1.875
   28PET     C2  805   2.993   3.261   2.050
   28PET     H1  806   3.054   3.305   2.128
   28PET     C1  807   2.882   3.188   2.091
   28PET     C7  808   2.840   3.191   2.239
   28PET     O3  809   2.914   3.225   2.326
   28PET     O4  810   2.730   3.114   2.257
   28PET    C10  811   2.688   3.102   2.384
   28PET     H8  812   2.674   3.200   2.432
   28PET     H9  813   2.760   3.045   2.443
   28PET    C11  814   2.543   3.049   2.395
   28PET    H10  815   2.474   3.121   2.351
   28PET    H11  816   2.511   3.048   2.499
   28PET    C12  817   2.521   2.910   2.325
   28PET    H13  818   2.577   2.833   2.380
   28PET    H14  819   2.569   2.918   2.227
   29PET     C9  820   2.371   2.881   2.311
   29PET     H6  821   2.328   2.958   2.247
   29PET     H7  822   2.332   2.888   2.413
   29PET     O2  823   2.357   2.745   2.255
   29PET     C8  824   2.245   2.721   2.195
   29PET     O1  825   2.142   2.780   2.214
   29PET     C4  826   2.260   2.613   2.087
   29PET     C5  827   2.388   2.574   2.042
   29PET     C6  828   2.388   2.474   1.946
   29PET     H4  829   2.485   2.435   1.917
   29PET     H3  830   2.478   2.620   2.081
   29PET     C3  831   2.145   2.564   2.028
   29PET     H2  832   2.047   2.597   2.060
   29PET     C2  833   2.146   2.473   1.924
   29PET     H1  834   2.054   2.431   1.883
   29PET     C1  835   2.271   2.426   1.884
   29PET     C7  836   2.277   2.319   1.775
   29PET     O3  837   2.189   2.311   1.698
   29PET     O4  838   2.390   2.239   1.782
   29PET    C10  839   2.403   2.137   1.670
   29PET     H8  840   2.391   2.180   1.570
   29PET     H9  841   2.325   2.064   1.693
   29PET    C11  842   2.554   2.076   1.679
   29PET    H10  843   2.567   1.990   1.612
   29PET    H11  844   2.569   2.049   1.785
   29PET    C12  845   2.670   2.184   1.653
   29PET    H13  846   2.614   2.278   1.664
   29PET    H14  847   2.692   2.191   1.546
   30PET     C9  848   2.789   2.154   1.739
   30PET     H6  849   2.863   2.215   1.686
   30PET     H7  850   2.809   2.046   1.733
   30PET     O2  851   2.754   2.201   1.866
   30PET     C8  852   2.853   2.288   1.924
   30PET     O1  853   2.961   2.295   1.873
   30PET     C4  854   2.804   2.361   2.060
   30PET     C5  855   2.880   2.468   2.107
   30PET     C6  856   2.847   2.518   2.238
   30PET     H4  857   2.917   2.586   2.286
   30PET     H3  858   2.966   2.492   2.046
   30PET     C3  859   2.681   2.311   2.119
   30PET     H2  860   2.613   2.234   2.083
   30PET     C2  861   2.643   2.374   2.243
   30PET     H1  862   2.547   2.349   2.288
   30PET     C1  863   2.728   2.475   2.298
   30PET     C7  864   2.685   2.530   2.433
   30PET     O3  865   2.743   2.632   2.482
   30PET     O4  866   2.569   2.479   2.487
   30PET    C10  867   2.529   2.510   2.621
   30PET     H8  868   2.618   2.513   2.687
   30PET     H9  869   2.460   2.433   2.656
   30PET    C11  870   2.449   2.639   2.617
   30PET    H10  871   2.361   2.633   2.552
   30PET    H11  872   2.510   2.725   2.587
   30PET    C12  873   2.402   2.673   2.762
   30PET    H13  874   2.316   2.738   2.781
   30PET    H14  875   2.489   2.704   2.820
   31SOL     OW  876   0.230   0.628   0.113
   31SOL    HW1  877   0.137   0.626   0.150
   31SOL    HW2  878   0.231   0.589   0.021
   32SOL     OW  879   0.685   1.012   0.665
   32SOL    HW1  880   0.754   0.996   0.735
   32SOL    HW2  881   0.612   1.069   0.703
   33SOL     OW  882   0.335   1.435   1.061
   33SOL    HW1  883   0.257   1.404   1.008
   33SOL    HW2  884   0.393   1.493   1.004
   34SOL     OW  885   0.122   0.643   0.563
   34SOL    HW1  886   0.077   0.555   0.580
   34SOL    HW2  887   0.121   0.697   0.647
   35SOL     OW  888   0.197   0.976   1.264
   35SOL    HW1  889   0.286   0.931   1.250
   35SOL    HW2  890   0.124   0.911   1.245
   36SOL     OW  891   1.466   1.417   0.953
   36SOL    HW1  892   1.407   1.423   1.033
   36SOL    HW2  893   1.451   1.329   0.907
   37SOL     OW  894   1.667   1.714   0.572
   37SOL    HW1  895   1.626   1.691   0.484
   37SOL    HW2  896   1.649   1.640   0.637
   38SOL     OW  897   0.991   0.410   1.242
   38SOL    HW1  898   0.914   0.444   1.296
   38SOL    HW2  899   0.957   0.359   1.163
   39SOL     OW  900   1.008   1.456   0.477
   39SOL    HW1  901   0.962   1.528   0.425
   39SOL    HW2  902   1.004   1.476   0.575
   40SOL     OW  903   0.249   1.785   1.241
   40SOL    HW1  904   0.306   1.720   1.291
   40SOL    HW2  905   0.233   1.752   1.148
   41SOL     OW  906   0.935   0.236   0.480
   41SOL    HW1  907   0.887   0.277   0.402
   41SOL    HW2  908   1.034   0.234   0.461
   42SOL     OW  909   1.227   1.570   0.793
   42SOL    HW1  910   1.248   1.644   0.728
   42SOL    HW2  911   1.295   1.570   0.866
   43SOL     OW  912   0.459   1.152   0.741
   43SOL    HW1  913   0.388   1.125   0.806
   43SOL    HW2  914   0.433   1.124   0.648
   44SOL     OW  915   1.271   1.797   0.591
   44SOL    HW1  916   1.315   1.861   0.527
   44SOL    HW2  917   1.221   1.849   0.661
   45SOL     OW  918   0.561   0.222   1.147
   45SOL    HW1  919   0.599   0.138   1.184
   45SOL    HW2  920   0.473   0.241   1.191
   46SOL     OW  921   0.527   0.256   0.328
   46SOL    HW1  922   0.554   0.197   0.253
   46SOL    HW2  923   0.527   0.351   0.297
   47SOL     OW  924   0.367   1.100   0.501
   47SOL    HW1  925   0.360   1.183   0.445
   47SOL    HW2  926   0.371   1.020   0.441
   48SOL     OW  927   1.582   0.639   0.472
   48SOL    HW1  928   1.551   0.700   0.545
   48SOL    HW2  929   1.632   0.691   0.403
   49SOL     OW  930   0.732   0.634   1.064
   49SOL    HW1  931   0.791   0.608   0.988
   49SOL    HW2  932   0.704   0.730   1.053
   50SOL     OW  933   0.980   1.573   1.700
   50SOL    HW1  934   0.960   1.617   1.612
   50SOL    HW2  935   1.019   1.482   1.684
   51SOL     OW  936   0.815   0.572   0.325
   51SOL    HW1  937   0.822   0.483   0.279
   51SOL    HW2  938   0.721   0.606   0.317
   52SOL     OW  939   1.347   1.059   1.234
   52SOL    HW1  940   1.371   0.996   1.160
   52SOL    HW2  941   1.257   1.099   1.216
   53SOL     OW  942   1.759   1.747   1.154
   53SOL    HW1  943   1.820   1.777   1.081
   53SOL    HW2  944   1.721   1.658   1.132
   54SOL     OW  945   0.083   1.258   1.022
   54SOL    HW1  946   0.078   1.257   1.122
   54SOL    HW2  947   0.000   1.217   0.984
   55SOL     OW  948   0.916   0.910   0.291
   55SOL    HW1  949   0.979   0.948   0.223
   55SOL    HW2  950   0.956   0.827   0.330
   56SOL     OW  951   1.614   1.292   1.289
   56SOL    HW1  952   1.674   1.295   1.369
   56SOL    HW2  953   1.539   1.356   1.302
   57SOL     OW  954   1.440   0.856   1.398
   57SOL    HW1  955   1.383   0.908   1.335
   57SOL    HW2  956   1.536   0.868   1.374
   58SOL     OW  957   1.183   1.335   0.119
   58SOL    HW1  958   1.084   1.324   0.121
   58SOL    HW2  959   1.217   1.350   0.212
   59SOL     OW  960   1.450   1.220   1.633
   59SOL    HW1  961   1.441   1.210   1.732
   59SOL    HW2  962   1.546   1.213   1.607
   60SOL     OW  963   1.674   0.883   1.254
   60SOL    HW1  964   1.647   0.794   1.217
   60SOL    HW2  965   1.675   0.951   1.181
   61SOL     OW  966   1.730   0.934   1.517
   61SOL    HW1  967   1.768   1.025   1.532
   61SOL    HW2  968   1.722   0.917   1.418
   62SOL     OW  969   0.317   0.547   1.280
   62SOL    HW1  970   0.355   0.488   1.352
   62SOL    HW2  971   0.357   0.521   1.192
   63SOL     OW  972   0.618   1.567   1.284
   63SOL    HW1  973   0.613   1.649   1.341
   63SOL    HW2  974   0.707   1.564   1.239
   64SOL     OW  975   0.438   0.392   3.361
   64SOL    HW1  976   0.520   0.336   3.370
   64SOL    HW2  977   0.357   0.334   3.365
   65SOL     OW  978   0.230   1.434   2.400
   65SOL    HW1  979   0.204   1.530   2.400
   65SOL    HW2  980   0.159   1.380   2.445
   66SOL     OW  981   0.606   0.964   1.985
   66SOL    HW1  982   0.613   1.048   1.931
   66SOL    HW2  983   0.652   0.977   2.073
   67SOL     OW  984   0.122   0.643   2.425
   67SOL    HW1  985   0.077   0.555   2.442
   67SOL    HW2  986   0.121   0.697   2.509
   68SOL     OW  987   0.809   0.004   2.364
   68SOL    HW1  988   0.849   0.095   2.355
   68SOL    HW2  989   0.709   0.012   2.370
   69SOL     OW  990   0.598   0.729   2.132
   69SOL    HW1  991   0.622   0.798   2.064
   69SOL    HW2  992   0.520   0.762   2.186
   70SOL     OW  993   0.130   1.821   3.433
   70SOL    HW1  994   0.120   1.806   3.532
   70SOL    HW2  995   0.044   1.857   3.397
   71SOL     OW  996   1.008   1.456   2.339
   71SOL    HW1  997   0.962   1.528   2.287
   71SOL    HW2  998   1.004   1.476   2.437
   72SOL     OW  999   0.461   1.266   3.589
   72SOL    HW1 1000   0.411   1.267   3.503
   72SOL    HW2 1001   0.398   1.248   3.665
   73SOL     OW 1002   1.111   1.776   2.099
   73SOL    HW1 1003   1.051   1.714   2.149
   73SOL    HW2 1004   1.142   1.732   2.014
   74SOL     OW 1005   0.781   0.264   3.611
   74SOL    HW1 1006   0.848   0.203   3.654
   74SOL    HW2 1007   0.708   0.283   3.676
   75SOL     OW 1008   1.351   0.590   3.295
   75SOL    HW1 1009   1.379   0.547   3.380
   75SOL    HW2 1010   1.376   0.686   3.296
   76SOL     OW 1011   0.922   0.503   2.761
   76SOL    HW1 1012   0.897   0.494   2.665
   76SOL    HW2 1013   0.970   0.421   2.792
   77SOL     OW 1014   1.434   1.188   1.903
   77SOL    HW1 1015   1.466   1.112   1.960
   77SOL    HW2 1016   1.342   1.215   1.933
   78SOL     OW 1017   1.227   1.570   2.655
   78SOL    HW1 1018   1.248   1.644   2.590
   78SOL    HW2 1019   1.295   1.570   2.728
   79SOL     OW 1020   0.459   1.152   2.603
   79SOL    HW1 1021   0.388   1.125   2.668
   79SOL    HW2 1022   0.433   1.124   2.510
   80SOL     OW 1023   0.488   1.385   2.036
   80SOL    HW1 1024   0.401   1.370   2.083
   80SOL    HW2 1025   0.471   1.411   1.941
   81SOL     OW 1026   1.592   1.629   3.487
   81SOL    HW1 1027   1.619   1.663   3.397
   81SOL    HW2 1028   1.671   1.591   3.533
   82SOL     OW 1029   0.705   1.050   2.230
   82SOL    HW1 1030   0.691   1.057   2.329
   82SOL    HW2 1031   0.789   0.999   2.212
   83SOL     OW 1032   1.272   1.445   3.004
   83SOL    HW1 1033   1.319   1.458   3.091
   83SOL    HW2 1034   1.206   1.371   3.013
   84SOL     OW 1035   1.582   0.639   2.334
   84SOL    HW1 1036   1.551   0.700   2.407
   84SOL    HW2 1037   1.632   0.691   2.265
   85SOL     OW 1038   0.354   1.510   3.191
   85SOL    HW1 1039   0.333   1.466   3.104
   85SOL    HW2 1040   0.451   1.536   3.194
   86SOL     OW 1041   0.504   0.050   3.602
   86SOL    HW1 1042   0.462  -0.007   3.532
   86SOL    HW2 1043   0.438   0.119   3.634
   87SOL     OW 1044   0.037   1.310   3.144
   87SOL    HW1 1045   0.090   1.261   3.212
   87SOL    HW2 1046   0.059   1.408   3.149
   88SOL     OW 1047   1.540   0.274   1.987
   88SOL    HW1 1048   1.479   0.199   2.010
   88SOL    HW2 1049   1.562   0.326   2.070
   89SOL     OW 1050   1.303   0.838   1.904
   89SOL    HW1 1051   1.337   0.745   1.919
   89SOL    HW2 1052   1.321   0.865   1.809
   90SOL     OW 1053   1.160   0.207   3.339
   90SOL    HW1 1054   1.160   0.271   3.416
   90SOL    HW2 1055   1.188   0.255   3.256
   91SOL     OW 1056   1.759   1.747   3.016
   91SOL    HW1 1057   1.820   1.777   2.943
   91SOL    HW2 1058   1.721   1.658   2.994
   92SOL     OW 1059   0.263   0.326   2.582
   92SOL    HW1 1060   0.184   0.377   2.548
   92SOL    HW2 1061   0.254   0.311   2.680
   93SOL     OW 1062   0.916   0.910   2.153
   93SOL    HW1 1063   0.979   0.948   2.085
   93SOL    HW2 1064   0.956   0.827   2.192
   94SOL     OW 1065   1.614   1.292   3.151
   94SOL    HW1 1066   1.674   1.295   3.231
   94SOL    HW2 1067   1.539   1.356   3.164
   95SOL     OW 1068   0.072   0.166   2.180
   95SOL    HW1 1069   0.055   0.249   2.126
   95SOL    HW2 1070   0.162   0.129   2.158
   96SOL     OW 1071   0.613   0.842   3.293
   96SOL    HW1 1072   0.669   0.923   3.276
   96SOL    HW2 1073   0.672   0.762   3.296
   97SOL     OW 1074   1.450   1.220   3.495
   97SOL    HW1 1075   1.441   1.210   3.594
   97SOL    HW2 1076   1.546   1.213   3.469
   98SOL     OW 1077   1.705   1.487   2.966
   98SOL    HW1 1078   1.612   1.462   2.939
   98SOL    HW2 1079   1.731   1.437   3.048
   99SOL     OW 1080   1.300   0.453   2.553
   99SOL    HW1 1081   1.241   0.533   2.557
   99SOL    HW2 1082   1.315   0.418   2.646
  100SOL     OW 1083   1.593   0.221   2.744
  100SOL    HW1 1084   1.509   0.220   2.798
  100SOL    HW2 1085   1.595   0.304   2.688
  101SOL     OW 1086   0.875   1.646   2.199
  101SOL    HW1 1087   0.798   1.611   2.145
  101SOL    HW2 1088   0.843   1.717   2.261
  102SOL     OW 1089   0.685   1.012   4.389
  102SOL    HW1 1090   0.754   0.996   4.459
  102SOL    HW2 1091   0.612   1.069   4.427
  103SOL     OW 1092   0.230   1.434   4.262
  103SOL    HW1 1093   0.204   1.530   4.262
  103SOL    HW2 1094   0.159   1.380   4.307
  104SOL     OW 1095   0.620   1.786   5.163
  104SOL    HW1 1096   0.528   1.769   5.198
  104SOL    HW2 1097   0.648   1.878   5.189
  105SOL     OW 1098   1.667   1.714   4.296
  105SOL    HW1 1099   1.626   1.691   4.208
  105SOL    HW2 1100   1.649   1.640   4.361
  106SOL     OW 1101   1.111   1.776   3.961
  106SOL    HW1 1102   1.051   1.714   4.011
  106SOL    HW2 1103   1.142   1.732   3.876
  107SOL     OW 1104   1.632   1.377   3.805
  107SOL    HW1 1105   1.600   1.471   3.795
  107SOL    HW2 1106   1.556   1.314   3.793
  108SOL     OW 1107   1.400   0.107   4.150
  108SOL    HW1 1108   1.376   0.070   4.060
  108SOL    HW2 1109   1.499   0.123   4.154
  109SOL     OW 1110   0.888   1.514   4.919
  109SOL    HW1 1111   0.865   1.489   4.825
  109SOL    HW2 1112   0.949   1.445   4.958
  110SOL     OW 1113   0.297   0.035   3.895
  110SOL    HW1 1114   0.346   0.119   3.874
  110SOL    HW2 1115   0.359  -0.030   3.940
  111SOL     OW 1116   0.459   1.152   4.465
  111SOL    HW1 1117   0.388   1.125   4.530
  111SOL    HW2 1118   0.433   1.124   4.372
  112SOL     OW 1119   1.429   1.173   4.591
  112SOL    HW1 1120   1.374   1.089   4.584
  112SOL    HW2 1121   1.455   1.202   4.499
  113SOL     OW 1122   0.915   0.089   5.126
  113SOL    HW1 1123   0.940   0.069   5.031
  113SOL    HW2 1124   0.987   0.145   5.168
  114SOL     OW 1125   0.980   1.116   5.443
  114SOL    HW1 1126   0.881   1.122   5.453
  114SOL    HW2 1127   1.003   1.036   5.387
  115SOL     OW 1128   1.023   0.766   4.690
  115SOL    HW1 1129   1.038   0.787   4.786
  115SOL    HW2 1130   0.993   0.671   4.681
  116SOL     OW 1131   0.350   0.898   5.528
  116SOL    HW1 1132   0.426   0.942   5.576
  116SOL    HW2 1133   0.385   0.851   5.446
  117SOL     OW 1134   1.303   0.838   3.766
  117SOL    HW1 1135   1.337   0.745   3.781
  117SOL    HW2 1136   1.321   0.865   3.671
  118SOL     OW 1137   0.008   1.326   3.924
  118SOL    HW1 1138  -0.085   1.347   3.893
  118SOL    HW2 1139   0.018   1.227   3.937
  119SOL     OW 1140   0.040   0.544   4.838
  119SOL    HW1 1141   0.125   0.511   4.797
  119SOL    HW2 1142   0.053   0.559   4.936
  120SOL     OW 1143   0.252   1.564   5.468
  120SOL    HW1 1144   0.222   1.621   5.544
  120SOL    HW2 1145   0.245   1.467   5.494
  121SOL     OW 1146   1.302   0.855   4.033
  121SOL    HW1 1147   1.216   0.824   4.075
  121SOL    HW2 1148   1.298   0.841   3.934
  122SOL     OW 1149   1.726   0.135   4.247
  122SOL    HW1 1150   1.799   0.118   4.180
  122SOL    HW2 1151   1.695   0.048   4.285
  123SOL     OW 1152   0.830   1.273   5.146
  123SOL    HW1 1153   0.825   1.306   5.241
  123SOL    HW2 1154   0.744   1.292   5.100
  124SOL     OW 1155   1.014   0.236   4.695
  124SOL    HW1 1156   1.006   0.200   4.602
  124SOL    HW2 1157   1.012   0.160   4.760
  125SOL     OW 1158   0.613   0.842   5.155
  125SOL    HW1 1159   0.669   0.923   5.138
  125SOL    HW2 1160   0.672   0.762   5.158
  126SOL     OW 1161   1.493   1.767   4.683
  126SOL    HW1 1162   1.526   1.831   4.614
  126SOL    HW2 1163   1.559   1.761   4.758
  127SOL     OW 1164   0.859   1.374   3.740
  127SOL    HW1 1165   0.813   1.389   3.828
  127SOL    HW2 1166   0.903   1.459   3.710
  128SOL     OW 1167   0.221   1.314   5.568
  128SOL    HW1 1168   0.156   1.241   5.547
  128SOL    HW2 1169   0.225   1.328   5.666
  129SOL     OW 1170   1.705   1.487   4.828
  129SOL    HW1 1171   1.612   1.462   4.801
  129SOL    HW2 1172   1.731   1.437   4.910
  130SOL     OW 1173   0.317   0.547   5.004
  130SOL    HW1 1174   0.355   0.488   5.076
  130SOL    HW2 1175   0.357   0.521   4.916
  131SOL     OW 1176   0.812   1.586   4.411
  131SOL    HW1 1177   0.844   1.596   4.317
  131SOL    HW2 1178   0.733   1.524   4.413
  132SOL     OW 1179   1.424   0.214   4.836
  132SOL    HW1 1180   1.476   0.149   4.891
  132SOL    HW2 1181   1.375   0.277   4.897
  133SOL     OW 1182   1.632   1.377   5.667
  133SOL    HW1 1183   1.600   1.471   5.657
  133SOL    HW2 1184   1.556   1.314   5.655
  134SOL     OW 1185   0.008   1.326   5.786
  134SOL    HW1 1186  -0.085   1.347   5.755
  134SOL    HW2 1187   0.018   1.227   5.799
  135SOL     OW 1188   0.438   2.254   1.499
  135SOL    HW1 1189   0.520   2.198   1.508
  135SOL    HW2 1190   0.357   2.196   1.503
  136SOL     OW 1191   0.240   2.953   0.886
  136SOL    HW1 1192   0.254   2.869   0.938
  136SOL    HW2 1193   0.185   3.017   0.941
  137SOL     OW 1194   0.613   3.227   0.726
  137SOL    HW1 1195   0.564   3.140   0.735
  137SOL    HW2 1196   0.590   3.270   0.639
  138SOL     OW 1197   0.598   2.591   0.270
  138SOL    HW1 1198   0.622   2.660   0.202
  138SOL    HW2 1199   0.520   2.624   0.324
  139SOL     OW 1200   0.865   2.210   0.195
  139SOL    HW1 1201   0.924   2.273   0.146
  139SOL    HW2 1202   0.884   2.116   0.166
  140SOL     OW 1203   1.008   3.318   0.477
  140SOL    HW1 1204   0.962   3.390   0.425
  140SOL    HW2 1205   1.004   3.338   0.575
  141SOL     OW 1206   0.351   3.663   0.853
  141SOL    HW1 1207   0.401   3.577   0.859
  141SOL    HW2 1208   0.416   3.740   0.850
  142SOL     OW 1209   0.464   3.605   0.323
  142SOL    HW1 1210   0.497   3.644   0.409
  142SOL    HW2 1211   0.540   3.598   0.258
  143SOL     OW 1212   0.935   2.098   0.480
  143SOL    HW1 1213   0.887   2.139   0.402
  143SOL    HW2 1214   1.034   2.096   0.461
  144SOL     OW 1215   1.429   3.035   0.867
  144SOL    HW1 1216   1.374   2.951   0.860
  144SOL    HW2 1217   1.455   3.064   0.775
  145SOL     OW 1218   0.488   3.247   0.174
  145SOL    HW1 1219   0.401   3.232   0.221
  145SOL    HW2 1220   0.471   3.273   0.079
  146SOL     OW 1221   1.390   2.437   0.078
  146SOL    HW1 1222   1.336   2.416   0.159
  146SOL    HW2 1223   1.481   2.396   0.087
  147SOL     OW 1224   0.915   1.951   1.402
  147SOL    HW1 1225   0.940   1.931   1.307
  147SOL    HW2 1226   0.987   2.007   1.444
  148SOL     OW 1227   0.367   2.962   0.501
  148SOL    HW1 1228   0.360   3.045   0.445
  148SOL    HW2 1229   0.371   2.882   0.441
  149SOL     OW 1230   0.566   2.399   0.865
  149SOL    HW1 1231   0.578   2.465   0.791
  149SOL    HW2 1232   0.612   2.433   0.948
  150SOL     OW 1233   0.354   3.372   1.329
  150SOL    HW1 1234   0.333   3.328   1.242
  150SOL    HW2 1235   0.451   3.398   1.332
  151SOL     OW 1236   0.573   2.732   1.029
  151SOL    HW1 1237   0.617   2.821   1.020
  151SOL    HW2 1238   0.510   2.732   1.106
  152SOL     OW 1239   1.859   3.380   1.605
  152SOL    HW1 1240   1.873   3.407   1.510
  152SOL    HW2 1241   1.942   3.402   1.658
  153SOL     OW 1242   1.068   3.195   0.849
  153SOL    HW1 1243   1.075   3.111   0.794
  153SOL    HW2 1244   1.130   3.264   0.813
  154SOL     OW 1245   0.319   2.672   0.949
  154SOL    HW1 1246   0.412   2.708   0.954
  154SOL    HW2 1247   0.313   2.587   1.001
  155SOL     OW 1248   1.657   2.466   1.206
  155SOL    HW1 1249   1.619   2.397   1.268
  155SOL    HW2 1250   1.739   2.430   1.162
  156SOL     OW 1251   0.263   2.188   0.720
  156SOL    HW1 1252   0.184   2.239   0.686
  156SOL    HW2 1253   0.254   2.173   0.818
  157SOL     OW 1254   0.916   2.772   0.291
  157SOL    HW1 1255   0.979   2.810   0.223
  157SOL    HW2 1256   0.956   2.689   0.330
  158SOL     OW 1257   0.105   2.875   1.726
  158SOL    HW1 1258   0.028   2.842   1.780
  158SOL    HW2 1259   0.190   2.845   1.768
  159SOL     OW 1260   0.672   2.065   1.489
  159SOL    HW1 1261   0.762   2.049   1.449
  159SOL    HW2 1262   0.680   2.070   1.588
  160SOL     OW 1263   0.072   2.028   0.318
  160SOL    HW1 1264   0.055   2.111   0.264
  160SOL    HW2 1265   0.162   1.991   0.296
  161SOL     OW 1266   0.716   2.427   1.708
  161SOL    HW1 1267   0.735   2.492   1.782
  161SOL    HW2 1268   0.776   2.347   1.717
  162SOL     OW 1269   0.221   3.176   1.844
  162SOL    HW1 1270   0.156   3.103   1.823
  162SOL    HW2 1271   0.225   3.190   1.942
  163SOL     OW 1272   0.672   3.253   1.624
  163SOL    HW1 1273   0.594   3.203   1.662
  163SOL    HW2 1274   0.669   3.348   1.655
  164SOL     OW 1275   0.317   2.409   1.280
  164SOL    HW1 1276   0.355   2.350   1.352
  164SOL    HW2 1277   0.357   2.383   1.192
  165SOL     OW 1278   0.812   3.448   0.687
  165SOL    HW1 1279   0.844   3.458   0.593
  165SOL    HW2 1280   0.733   3.386   0.689
  166SOL     OW 1281   0.875   3.508   0.337
  166SOL    HW1 1282   0.798   3.473   0.283
  166SOL    HW2 1283   0.843   3.579   0.399
  167SOL     OW 1284   0.685   2.874   2.527
  167SOL    HW1 1285   0.754   2.858   2.597
  167SOL    HW2 1286   0.612   2.931   2.565
  168SOL     OW 1287   0.438   2.254   3.361
  168SOL    HW1 1288   0.520   2.198   3.370
  168SOL    HW2 1289   0.357   2.196   3.365
  169SOL     OW 1290   0.620   3.648   3.301
  169SOL    HW1 1291   0.528   3.631   3.336
  169SOL    HW2 1292   0.648   3.740   3.327
  170SOL     OW 1293   1.466   3.279   2.815
  170SOL    HW1 1294   1.407   3.285   2.895
  170SOL    HW2 1295   1.451   3.191   2.769
  171SOL     OW 1296   1.719   2.447   3.693
  171SOL    HW1 1297   1.693   2.536   3.657
  171SOL    HW2 1298   1.717   2.379   3.620
  172SOL     OW 1299   1.362   3.006   2.407
  172SOL    HW1 1300   1.445   2.977   2.359
  172SOL    HW2 1301   1.313   3.073   2.351
  173SOL     OW 1302   1.008   3.318   2.339
  173SOL    HW1 1303   0.962   3.390   2.287
  173SOL    HW2 1304   1.004   3.338   2.437
  174SOL     OW 1305   0.464   3.605   2.185
  174SOL    HW1 1306   0.497   3.644   2.271
  174SOL    HW2 1307   0.540   3.598   2.120
  175SOL     OW 1308   0.382   2.562   2.342
  175SOL    HW1 1309   0.427   2.472   2.339
  175SOL    HW2 1310   0.288   2.551   2.375
  176SOL     OW 1311   0.781   2.126   3.611
  176SOL    HW1 1312   0.848   2.065   3.654
  176SOL    HW2 1313   0.708   2.145   3.676
  177SOL     OW 1314   0.935   2.098   2.342
  177SOL    HW1 1315   0.887   2.139   2.264
  177SOL    HW2 1316   1.034   2.096   2.323
  178SOL     OW 1317   1.227   3.432   2.655
  178SOL    HW1 1318   1.248   3.506   2.590
  178SOL    HW2 1319   1.295   3.432   2.728
  179SOL     OW 1320   1.032   2.411   1.878
  179SOL    HW1 1321   0.991   2.493   1.839
  179SOL    HW2 1322   1.096   2.437   1.951
  180SOL     OW 1323   0.078   2.418   3.248
  180SOL    HW1 1324   0.170   2.417   3.207
  180SOL    HW2 1325   0.072   2.492   3.315
  181SOL     OW 1326   0.527   2.118   2.190
  181SOL    HW1 1327   0.554   2.059   2.115
  181SOL    HW2 1328   0.527   2.213   2.159
  182SOL     OW 1329   0.980   2.978   3.581
  182SOL    HW1 1330   0.881   2.984   3.591
  182SOL    HW2 1331   1.003   2.898   3.525
  183SOL     OW 1332   0.705   2.912   2.230
  183SOL    HW1 1333   0.691   2.919   2.329
  183SOL    HW2 1334   0.789   2.861   2.212
  184SOL     OW 1335   1.274   2.248   3.124
  184SOL    HW1 1336   1.295   2.322   3.188
  184SOL    HW2 1337   1.185   2.265   3.081
  185SOL     OW 1338   1.622   2.229   2.236
  185SOL    HW1 1339   1.624   2.153   2.300
  185SOL    HW2 1340   1.574   2.306   2.276
  186SOL     OW 1341   1.540   2.136   1.987
  186SOL    HW1 1342   1.479   2.061   2.010
  186SOL    HW2 1343   1.562   2.188   2.070
  187SOL     OW 1344   1.002   2.658   3.100
  187SOL    HW1 1345   1.043   2.626   3.186
  187SOL    HW2 1346   0.906   2.631   3.097
  188SOL     OW 1347   1.388   3.435   2.339
  188SOL    HW1 1348   1.455   3.447   2.265
  188SOL    HW2 1349   1.348   3.524   2.362
  189SOL     OW 1350   0.830   3.135   3.284
  189SOL    HW1 1351   0.825   3.168   3.379
  189SOL    HW2 1352   0.744   3.154   3.238
  190SOL     OW 1353   0.263   2.188   2.582
  190SOL    HW1 1354   0.184   2.239   2.548
  190SOL    HW2 1355   0.254   2.173   2.680
  191SOL     OW 1356   0.916   2.772   2.153
  191SOL    HW1 1357   0.979   2.810   2.085
  191SOL    HW2 1358   0.956   2.689   2.192
  192SOL     OW 1359   0.372   3.150   3.352
  192SOL    HW1 1360   0.359   3.243   3.318
  192SOL    HW2 1361   0.288   3.098   3.339
  193SOL     OW 1362   1.225   2.187   2.311
  193SOL    HW1 1363   1.290   2.113   2.300
  193SOL    HW2 1364   1.245   2.237   2.395
  194SOL     OW 1365   0.859   2.818   2.723
  194SOL    HW1 1366   0.913   2.749   2.771
  194SOL    HW2 1367   0.827   2.887   2.789
  195SOL     OW 1368   0.221   3.176   3.706
  195SOL    HW1 1369   0.156   3.103   3.685
  195SOL    HW2 1370   0.225   3.190   3.804
  196SOL     OW 1371   1.705   3.349   2.966
  196SOL    HW1 1372   1.612   3.324   2.939
  196SOL    HW2 1373   1.731   3.299   3.048
  197SOL     OW 1374   1.424   2.076   2.974
  197SOL    HW1 1375   1.476   2.011   3.029
  197SOL    HW2 1376   1.375   2.139   3.035
  198SOL     OW 1377   1.689   2.784   4.336
  198SOL    HW1 1378   1.784   2.755   4.344
  198SOL    HW2 1379   1.681   2.849   4.261
  199SOL     OW 1380   0.809   1.866   4.226
  199SOL    HW1 1381   0.849   1.957   4.217
  199SOL    HW2 1382   0.709   1.874   4.232
  200SOL     OW 1383   0.598   2.591   3.994
  200SOL    HW1 1384   0.622   2.660   3.926
  200SOL    HW2 1385   0.520   2.624   4.048
  201SOL     OW 1386   1.281   2.207   4.668
  201SOL    HW1 1387   1.195   2.157   4.655
  201SOL    HW2 1388   1.343   2.153   4.724
  202SOL     OW 1389   1.719   2.447   5.555
  202SOL    HW1 1390   1.693   2.536   5.519
  202SOL    HW2 1391   1.717   2.379   5.482
  203SOL     OW 1392   1.400   1.969   4.150
  203SOL    HW1 1393   1.376   1.932   4.060
  203SOL    HW2 1394   1.499   1.985   4.154
  204SOL     OW 1395   1.351   2.452   5.157
  204SOL    HW1 1396   1.379   2.409   5.242
  204SOL    HW2 1397   1.376   2.548   5.158
  205SOL     OW 1398   1.227   3.432   4.517
  205SOL    HW1 1399   1.248   3.506   4.452
  205SOL    HW2 1400   1.295   3.432   4.590
  206SOL     OW 1401   0.561   2.084   4.871
  206SOL    HW1 1402   0.599   2.000   4.908
  206SOL    HW2 1403   0.473   2.103   4.915
  207SOL     OW 1404   1.017   1.901   4.477
  207SOL    HW1 1405   0.945   1.906   4.408
  207SOL    HW2 1406   0.993   1.832   4.546
  208SOL     OW 1407   0.367   2.962   4.225
  208SOL    HW1 1408   0.360   3.045   4.169
  208SOL    HW2 1409   0.371   2.882   4.165
  209SOL     OW 1410   1.252   3.210   4.112
  209SOL    HW1 1411   1.302   3.287   4.152
  209SOL    HW2 1412   1.157   3.212   4.144
  210SOL     OW 1413   1.587   2.641   5.394
  210SOL    HW1 1414   1.495   2.679   5.389
  210SOL    HW2 1415   1.647   2.688   5.329
  211SOL     OW 1416   0.980   3.435   5.424
  211SOL    HW1 1417   0.960   3.479   5.336
  211SOL    HW2 1418   1.019   3.344   5.408
  212SOL     OW 1419   0.008   3.188   3.924
  212SOL    HW1 1420  -0.085   3.209   3.893
  212SOL    HW2 1421   0.018   3.089   3.937
  213SOL     OW 1422   0.815   2.434   4.049
  213SOL    HW1 1423   0.822   2.345   4.003
  213SOL    HW2 1424   0.721   2.468   4.041
  214SOL     OW 1425   0.159   2.999   5.190
  214SOL    HW1 1426   0.181   2.938   5.266
  214SOL    HW2 1427   0.169   2.950   5.104
  215SOL     OW 1428   1.759   3.609   4.878
  215SOL    HW1 1429   1.820   3.639   4.805
  215SOL    HW2 1430   1.721   3.520   4.856
  216SOL     OW 1431   0.590   3.349   4.215
  216SOL    HW1 1432   0.632   3.291   4.145
  216SOL    HW2 1433   0.546   3.428   4.171
  217SOL     OW 1434   0.105   2.875   5.450
  217SOL    HW1 1435   0.028   2.842   5.504
  217SOL    HW2 1436   0.190   2.845   5.492
  218SOL     OW 1437   1.183   3.197   3.843
  218SOL    HW1 1438   1.084   3.186   3.845
  218SOL    HW2 1439   1.217   3.212   3.936
  219SOL     OW 1440   0.859   3.236   3.740
  219SOL    HW1 1441   0.813   3.251   3.828
  219SOL    HW2 1442   0.903   3.321   3.710
  220SOL     OW 1443   1.861   3.431   4.575
  220SOL    HW1 1444   1.790   3.419   4.505
  220SOL    HW2 1445   1.862   3.352   4.635
  221SOL     OW 1446   0.464   3.605   5.909
  221SOL    HW1 1447   0.497   3.644   5.995
  221SOL    HW2 1448   0.540   3.598   5.844
  222SOL     OW 1449   1.434   3.050   5.627
  222SOL    HW1 1450   1.466   2.974   5.684
  222SOL    HW2 1451   1.342   3.077   5.657
  223SOL     OW 1452   0.488   3.247   5.760
  223SOL    HW1 1453   0.401   3.232   5.807
  223SOL    HW2 1454   0.471   3.273   5.665
  224SOL     OW 1455   0.255   3.210   5.876
  224SOL    HW1 1456   0.159   3.211   5.849
  224SOL    HW2 1457   0.267   3.263   5.960
  225SOL     OW 1458   0.686   4.885   1.803
  225SOL    HW1 1459   0.746   4.964   1.817
  225SOL    HW2 1460   0.600   4.916   1.762
  226SOL     OW 1461   0.335   5.159   1.061
  226SOL    HW1 1462   0.257   5.128   1.008
  226SOL    HW2 1463   0.393   5.217   1.004
  227SOL     OW 1464   0.197   4.700   1.264
  227SOL    HW1 1465   0.286   4.655   1.250
  227SOL    HW2 1466   0.124   4.635   1.245
  228SOL     OW 1467   0.382   4.424   0.480
  228SOL    HW1 1468   0.427   4.334   0.477
  228SOL    HW2 1469   0.288   4.413   0.513
  229SOL     OW 1470   0.922   4.227   0.899
  229SOL    HW1 1471   0.897   4.218   0.803
  229SOL    HW2 1472   0.970   4.145   0.930
  230SOL     OW 1473   1.017   3.763   0.753
  230SOL    HW1 1474   0.945   3.768   0.684
  230SOL    HW2 1475   0.993   3.694   0.822
  231SOL     OW 1476   1.429   4.897   0.867
  231SOL    HW1 1477   1.374   4.813   0.860
  231SOL    HW2 1478   1.455   4.926   0.775
  232SOL     OW 1479   1.466   4.314   0.992
  232SOL    HW1 1480   1.436   4.219   0.999
  232SOL    HW2 1481   1.539   4.330   1.058
  233SOL     OW 1482   1.638   4.823   1.079
  233SOL    HW1 1483   1.643   4.904   1.138
  233SOL    HW2 1484   1.552   4.825   1.028
  234SOL     OW 1485   0.980   4.840   1.719
  234SOL    HW1 1486   0.881   4.846   1.729
  234SOL    HW2 1487   1.003   4.760   1.663
  235SOL     OW 1488   1.582   4.363   0.472
  235SOL    HW1 1489   1.551   4.424   0.545
  235SOL    HW2 1490   1.632   4.415   0.403
  236SOL     OW 1491   0.088   5.525   0.927
  236SOL    HW1 1492   0.046   5.439   0.900
  236SOL    HW2 1493   0.182   5.528   0.893
  237SOL     OW 1494   0.504   5.292   0.910
  237SOL    HW1 1495   0.570   5.366   0.919
  237SOL    HW2 1496   0.548   5.213   0.868
  238SOL     OW 1497   0.252   5.288   1.744
  238SOL    HW1 1498   0.222   5.345   1.820
  238SOL    HW2 1499   0.245   5.191   1.770
  239SOL     OW 1500   1.302   4.579   0.309
  239SOL    HW1 1501   1.216   4.548   0.351
  239SOL    HW2 1502   1.298   4.565   0.210
  240SOL     OW 1503   0.688   5.386   1.716
  240SOL    HW1 1504   0.632   5.467   1.725
  240SOL    HW2 1505   0.740   5.390   1.630
  241SOL     OW 1506   0.830   4.997   1.422
  241SOL    HW1 1507   0.825   5.030   1.517
  241SOL    HW2 1508   0.744   5.016   1.376
  242SOL     OW 1509   1.194   5.336   0.031
  242SOL    HW1 1510   1.200   5.243   0.068
  242SOL    HW2 1511   1.135   5.336  -0.049
  243SOL     OW 1512   1.614   5.016   1.289
  243SOL    HW1 1513   1.674   5.019   1.369
  243SOL    HW2 1514   1.539   5.080   1.302
  244SOL     OW 1515   1.709   4.109   1.381
  244SOL    HW1 1516   1.782   4.178   1.385
  244SOL    HW2 1517   1.737   4.034   1.322
  245SOL     OW 1518   0.105   4.737   1.726
  245SOL    HW1 1519   0.028   4.704   1.780
  245SOL    HW2 1520   0.190   4.707   1.768
  246SOL     OW 1521   0.613   4.566   1.431
  246SOL    HW1 1522   0.669   4.647   1.414
  246SOL    HW2 1523   0.672   4.486   1.434
  247SOL     OW 1524   0.594   4.469   0.652
  247SOL    HW1 1525   0.644   4.554   0.633
  247SOL    HW2 1526   0.506   4.471   0.604
  248SOL     OW 1527   1.083   4.708   0.087
  248SOL    HW1 1528   1.060   4.761   0.005
  248SOL    HW2 1529   1.164   4.652   0.068
  249SOL     OW 1530   1.824   3.916   1.227
  249SOL    HW1 1531   1.820   3.826   1.271
  249SOL    HW2 1532   1.827   3.905   1.128
  250SOL     OW 1533   1.352   3.776   0.168
  250SOL    HW1 1534   1.387   3.735   0.084
  250SOL    HW2 1535   1.262   3.738   0.188
  251SOL     OW 1536   0.019   4.092   2.509
  251SOL    HW1 1537  -0.063   4.135   2.548
  251SOL    HW2 1538  -0.009   4.019   2.446
  252SOL     OW 1539   0.850   4.522   3.685
  252SOL    HW1 1540   0.846   4.598   3.750
  252SOL    HW2 1541   0.872   4.558   3.594
  253SOL     OW 1542   0.335   5.159   2.923
  253SOL    HW1 1543   0.257   5.128   2.870
  253SOL    HW2 1544   0.393   5.217   2.866
  254SOL     OW 1545   0.122   4.367   2.425
  254SOL    HW1 1546   0.077   4.279   2.442
  254SOL    HW2 1547   0.121   4.421   2.509
  255SOL     OW 1548   1.466   5.141   2.815
  255SOL    HW1 1549   1.407   5.147   2.895
  255SOL    HW2 1550   1.451   5.053   2.769
  256SOL     OW 1551   0.598   4.453   2.132
  256SOL    HW1 1552   0.622   4.522   2.064
  256SOL    HW2 1553   0.520   4.486   2.186
  257SOL     OW 1554   0.807   4.329   3.327
  257SOL    HW1 1555   0.760   4.326   3.416
  257SOL    HW2 1556   0.756   4.274   3.261
  258SOL     OW 1557   0.614   3.846   1.979
  258SOL    HW1 1558   0.712   3.824   1.986
  258SOL    HW2 1559   0.583   3.829   1.886
  259SOL     OW 1560   0.935   3.960   2.342
  259SOL    HW1 1561   0.887   4.001   2.264
  259SOL    HW2 1562   1.034   3.958   2.323
  260SOL     OW 1563   0.561   3.946   3.009
  260SOL    HW1 1564   0.599   3.862   3.046
  260SOL    HW2 1565   0.473   3.965   3.053
  261SOL     OW 1566   1.429   4.897   2.729
  261SOL    HW1 1567   1.374   4.813   2.722
  261SOL    HW2 1568   1.455   4.926   2.637
  262SOL     OW 1569   0.527   3.980   2.190
  262SOL    HW1 1570   0.554   3.921   2.115
  262SOL    HW2 1571   0.527   4.075   2.159
  263SOL     OW 1572   1.252   5.072   2.250
  263SOL    HW1 1573   1.302   5.149   2.290
  263SOL    HW2 1574   1.157   5.074   2.282
  264SOL     OW 1575   0.350   4.622   3.666
  264SOL    HW1 1576   0.426   4.666   3.714
  264SOL    HW2 1577   0.385   4.575   3.584
  265SOL     OW 1578   1.068   5.057   2.711
  265SOL    HW1 1579   1.075   4.973   2.656
  265SOL    HW2 1580   1.130   5.126   2.675
  266SOL     OW 1581   0.088   5.525   2.789
  266SOL    HW1 1582   0.046   5.439   2.762
  266SOL    HW2 1583   0.182   5.528   2.755
  267SOL     OW 1584   1.709   4.109   3.243
  267SOL    HW1 1585   1.782   4.178   3.247
  267SOL    HW2 1586   1.737   4.034   3.184
  268SOL     OW 1587   0.039   4.801   2.162
  268SOL    HW1 1588   0.138   4.790   2.153
  268SOL    HW2 1589  -0.001   4.715   2.194
  269SOL     OW 1590   1.555   5.235   4.427
  269SOL    HW1 1591   1.498   5.219   4.508
  269SOL    HW2 1592   1.496   5.245   4.347
  270SOL     OW 1593   0.809   3.728   4.226
  270SOL    HW1 1594   0.849   3.819   4.217
  270SOL    HW2 1595   0.709   3.736   4.232
  271SOL     OW 1596   0.865   4.072   3.919
  271SOL    HW1 1597   0.924   4.135   3.870
  271SOL    HW2 1598   0.884   3.978   3.890
  272SOL     OW 1599   1.795   4.790   4.597
  272SOL    HW1 1600   1.733   4.775   4.521
  272SOL    HW2 1601   1.743   4.801   4.682
  273SOL     OW 1602   0.464   5.467   4.047
  273SOL    HW1 1603   0.497   5.506   4.133
  273SOL    HW2 1604   0.540   5.460   3.982
  274SOL     OW 1605   1.400   3.831   4.150
  274SOL    HW1 1606   1.376   3.794   4.060
  274SOL    HW2 1607   1.499   3.847   4.154
  275SOL     OW 1608   0.382   4.424   4.204
  275SOL    HW1 1609   0.427   4.334   4.201
  275SOL    HW2 1610   0.288   4.413   4.237
  276SOL     OW 1611   0.922   4.227   4.623
  276SOL    HW1 1612   0.897   4.218   4.527
  276SOL    HW2 1613   0.970   4.145   4.654
  277SOL     OW 1614   1.032   4.273   3.740
  277SOL    HW1 1615   0.991   4.355   3.701
  277SOL    HW2 1616   1.096   4.299   3.813
  278SOL     OW 1617   1.466   4.314   4.716
  278SOL    HW1 1618   1.436   4.219   4.723
  278SOL    HW2 1619   1.539   4.330   4.782
  279SOL     OW 1620   1.857   4.557   4.101
  279SOL    HW1 1621   1.899   4.493   4.165
  279SOL    HW2 1622   1.819   4.506   4.023
  280SOL     OW 1623   0.915   3.813   5.126
  280SOL    HW1 1624   0.940   3.793   5.031
  280SOL    HW2 1625   0.987   3.869   5.168
  281SOL     OW 1626   0.083   4.982   4.746
  281SOL    HW1 1627   0.078   4.981   4.846
  281SOL    HW2 1628   0.000   4.941   4.708
  282SOL     OW 1629   0.830   4.997   5.146
  282SOL    HW1 1630   0.825   5.030   5.241
  282SOL    HW2 1631   0.744   5.016   5.100
  283SOL     OW 1632   1.650   5.444   5.118
  283SOL    HW1 1633   1.703   5.454   5.034
  283SOL    HW2 1634   1.623   5.534   5.152
  284SOL     OW 1635   0.590   5.211   4.215
  284SOL    HW1 1636   0.632   5.153   4.145
  284SOL    HW2 1637   0.546   5.290   4.171
  285SOL     OW 1638   0.672   3.927   5.213
  285SOL    HW1 1639   0.762   3.911   5.173
  285SOL    HW2 1640   0.680   3.932   5.312
  286SOL     OW 1641   1.730   4.658   5.241
  286SOL    HW1 1642   1.768   4.749   5.256
  286SOL    HW2 1643   1.722   4.641   5.142
  287SOL     OW 1644   0.859   5.098   3.740
  287SOL    HW1 1645   0.813   5.113   3.828
  287SOL    HW2 1646   0.903   5.183   3.710
  288SOL     OW 1647   0.661   5.514   4.677
  288SOL    HW1 1648   0.615   5.602   4.664
  288SOL    HW2 1649   0.760   5.526   4.670
  289SOL     OW 1650   0.672   5.115   5.348
  289SOL    HW1 1651   0.594   5.065   5.386
  289SOL    HW2 1652   0.669   5.210   5.379
  290SOL     OW 1653   1.705   5.211   4.828
  290SOL    HW1 1654   1.612   5.186   4.801
  290SOL    HW2 1655   1.731   5.161   4.910
  291SOL     OW 1656   0.039   4.801   4.024
  291SOL    HW1 1657   0.138   4.790   4.015
  291SOL    HW2 1658  -0.001   4.715   4.056
  292SOL     OW 1659   0.297   3.759   5.757
  292SOL    HW1 1660   0.346   3.843   5.736
  292SOL    HW2 1661   0.359   3.694   5.802
  293SOL     OW 1662   0.672   5.340   5.740
  293SOL    HW1 1663   0.681   5.350   5.641
  293SOL    HW2 1664   0.632   5.251   5.761
  294SOL     OW 1665   1.083   4.708   5.673
  294SOL    HW1 1666   1.060   4.761   5.591
  294SOL    HW2 1667   1.164   4.652   5.654
  295SOL     OW 1668   0.561   5.808   1.147
  295SOL    HW1 1669   0.599   5.724   1.184
  295SOL    HW2 1670   0.473   5.827   1.191
  296SOL     OW 1671   0.915   5.675   1.402
  296SOL    HW1 1672   0.940   5.655   1.307
  296SOL    HW2 1673   0.987   5.731   1.444
  297SOL     OW 1674   1.777   5.928   1.642
  297SOL    HW1 1675   1.760   5.959   1.548
  297SOL    HW2 1676   1.693   5.891   1.680
  298SOL     OW 1677   0.202   5.871   3.360
  298SOL    HW1 1678   0.122   5.931   3.347
  298SOL    HW2 1679   0.192   5.822   3.446
  299SOL     OW 1680   1.225   5.911   2.311
  299SOL    HW1 1681   1.290   5.837   2.300
  299SOL    HW2 1682   1.245   5.961   2.395
  300SOL     OW 1683   1.300   6.039   2.553
  300SOL    HW1 1684   1.241   6.119   2.557
  300SOL    HW2 1685   1.315   6.004   2.646
  301SOL     OW 1686   1.755   6.193   3.955
  301SOL    HW1 1687   1.743   6.180   3.856
  301SOL    HW2 1688   1.725   6.112   4.004
  302SOL     OW 1689   0.809   5.590   4.226
  302SOL    HW1 1690   0.849   5.681   4.217
  302SOL    HW2 1691   0.709   5.598   4.232
  303SOL     OW 1692   1.547   5.808   5.453
  303SOL    HW1 1693   1.542   5.845   5.545
  303SOL    HW2 1694   1.475   5.739   5.441
  304SOL     OW 1695   0.614   5.708   3.841
  304SOL    HW1 1696   0.712   5.686   3.848
  304SOL    HW2 1697   0.583   5.691   3.748
  305SOL     OW 1698   0.307   5.649   4.342
  305SOL    HW1 1699   0.296   5.743   4.375
  305SOL    HW2 1700   0.302   5.586   4.419
  306SOL     OW 1701   1.160   5.793   5.201
  306SOL    HW1 1702   1.160   5.857   5.278
  306SOL    HW2 1703   1.188   5.841   5.118
  307SOL     OW 1704   1.824   5.778   4.951
  307SOL    HW1 1705   1.820   5.688   4.995
  307SOL    HW2 1706   1.827   5.767   4.852
  308SOL     OW 1707   1.593   5.807   4.606
  308SOL    HW1 1708   1.509   5.806   4.660
  308SOL    HW2 1709   1.595   5.890   4.550
  309SOL     OW 1710   1.209   6.111   5.861
  309SOL    HW1 1711   1.222   6.027   5.915
  309SOL    HW2 1712   1.180   6.185   5.921
  310SOL     OW 1713   0.903   5.672   5.719
  310SOL    HW1 1714   0.954   5.673   5.633
  310SOL    HW2 1715   0.959   5.630   5.790
  311SOL     OW 1716   1.726   5.721   6.109
  311SOL    HW1 1717   1.799   5.704   6.042
  311SOL    HW2 1718   1.695   5.634   6.147
  312SOL     OW 1719   2.997   0.703   0.717
  312SOL    HW1 1720   3.054   0.781   0.692
  312SOL    HW2 1721   2.937   0.729   0.793
  313SOL     OW 1722   2.712   0.798   1.823
  313SOL    HW1 1723   2.708   0.874   1.888
  313SOL    HW2 1724   2.734   0.834   1.732
  314SOL     OW 1725   2.475   1.365   0.726
  314SOL    HW1 1726   2.426   1.278   0.735
  314SOL    HW2 1727   2.452   1.408   0.639
  315SOL     OW 1728   2.671   0.004   0.502
  315SOL    HW1 1729   2.711   0.095   0.493
  315SOL    HW2 1730   2.571   0.012   0.508
  316SOL     OW 1731   3.291   1.173   0.867
  316SOL    HW1 1732   3.236   1.089   0.860
  316SOL    HW2 1733   3.317   1.202   0.775
  317SOL     OW 1734   3.328   0.590   0.992
  317SOL    HW1 1735   3.298   0.495   0.999
  317SOL    HW2 1736   3.401   0.606   1.058
  318SOL     OW 1737   2.389   0.256   0.328
  318SOL    HW1 1738   2.416   0.197   0.253
  318SOL    HW2 1739   2.389   0.351   0.297
  319SOL     OW 1740   2.272   0.813   1.251
  319SOL    HW1 1741   2.358   0.825   1.301
  319SOL    HW2 1742   2.230   0.726   1.278
  320SOL     OW 1743   2.229   1.100   0.501
  320SOL    HW1 1744   2.222   1.183   0.445
  320SOL    HW2 1745   2.233   1.020   0.441
  321SOL     OW 1746   2.428   0.537   0.865
  321SOL    HW1 1747   2.440   0.603   0.791
  321SOL    HW2 1748   2.474   0.571   0.948
  322SOL     OW 1749   2.594   0.634   1.064
  322SOL    HW1 1750   2.653   0.608   0.988
  322SOL    HW2 1751   2.566   0.730   1.053
  323SOL     OW 1752   2.885   0.766   0.966
  323SOL    HW1 1753   2.900   0.787   1.062
  323SOL    HW2 1754   2.855   0.671   0.957
  324SOL     OW 1755   3.000   0.380   1.678
  324SOL    HW1 1756   2.955   0.443   1.742
  324SOL    HW2 1757   3.093   0.411   1.661
  325SOL     OW 1758   2.677   0.572   0.325
  325SOL    HW1 1759   2.684   0.483   0.279
  325SOL    HW2 1760   2.583   0.606   0.317
  326SOL     OW 1761   2.114   1.564   1.744
  326SOL    HW1 1762   2.084   1.621   1.820
  326SOL    HW2 1763   2.107   1.467   1.770
  327SOL     OW 1764   1.945   1.258   1.022
  327SOL    HW1 1765   1.940   1.257   1.122
  327SOL    HW2 1766   1.862   1.217   0.984
  328SOL     OW 1767   3.512   1.720   1.394
  328SOL    HW1 1768   3.565   1.730   1.310
  328SOL    HW2 1769   3.485   1.810   1.428
  329SOL     OW 1770   3.366   1.607   0.044
  329SOL    HW1 1771   3.274   1.644   0.051
  329SOL    HW2 1772   3.404   1.627  -0.046
  330SOL     OW 1773   3.571   0.385   1.381
  330SOL    HW1 1774   3.644   0.454   1.385
  330SOL    HW2 1775   3.599   0.310   1.322
  331SOL     OW 1776   2.578   0.565   1.708
  331SOL    HW1 1777   2.597   0.630   1.782
  331SOL    HW2 1778   2.638   0.485   1.717
  332SOL     OW 1779   2.252   1.741   1.560
  332SOL    HW1 1780   2.161   1.782   1.558
  332SOL    HW2 1781   2.245   1.647   1.592
  333SOL     OW 1782   3.536   0.883   1.254
  333SOL    HW1 1783   3.509   0.794   1.217
  333SOL    HW2 1784   3.537   0.951   1.181
  334SOL     OW 1785   2.456   0.745   0.652
  334SOL    HW1 1786   2.506   0.830   0.633
  334SOL    HW2 1787   2.368   0.747   0.604
  335SOL     OW 1788   3.592   0.934   1.517
  335SOL    HW1 1789   3.630   1.025   1.532
  335SOL    HW2 1790   3.584   0.917   1.418
  336SOL     OW 1791   2.087   0.275   2.858
  336SOL    HW1 1792   2.122   0.258   2.950
  336SOL    HW2 1793   1.999   0.230   2.846
  337SOL     OW 1794   3.322   1.505   3.201
  337SOL    HW1 1795   3.346   1.599   3.227
  337SOL    HW2 1796   3.306   1.451   3.283
  338SOL     OW 1797   3.456   0.114   3.342
  338SOL    HW1 1798   3.438   0.181   3.270
  338SOL    HW2 1799   3.453   0.160   3.431
  339SOL     OW 1800   3.155   1.228   3.285
  339SOL    HW1 1801   3.192   1.155   3.227
  339SOL    HW2 1802   3.207   1.233   3.370
  340SOL     OW 1803   2.671   0.004   2.364
  340SOL    HW1 1804   2.711   0.095   2.355
  340SOL    HW2 1805   2.571   0.012   2.370
  341SOL     OW 1806   3.328   1.417   2.815
  341SOL    HW1 1807   3.269   1.423   2.895
  341SOL    HW2 1808   3.313   1.329   2.769
  342SOL     OW 1809   3.256   0.469   3.536
  342SOL    HW1 1810   3.236   0.512   3.624
  342SOL    HW2 1811   3.334   0.407   3.545
  343SOL     OW 1812   2.835   0.890   3.434
  343SOL    HW1 1813   2.881   0.806   3.405
  343SOL    HW2 1814   2.779   0.924   3.359
  344SOL     OW 1815   1.938   0.811   2.651
  344SOL    HW1 1816   2.037   0.799   2.660
  344SOL    HW2 1817   1.914   0.906   2.672
  345SOL     OW 1818   3.224   1.144   2.407
  345SOL    HW1 1819   3.307   1.115   2.359
  345SOL    HW2 1820   3.175   1.211   2.351
  346SOL     OW 1821   2.323   1.266   3.589
  346SOL    HW1 1822   2.273   1.267   3.503
  346SOL    HW2 1823   2.260   1.248   3.665
  347SOL     OW 1824   3.494   1.377   1.943
  347SOL    HW1 1825   3.462   1.471   1.933
  347SOL    HW2 1826   3.418   1.314   1.931
  348SOL     OW 1827   3.409   0.222   3.591
  348SOL    HW1 1828   3.404   0.259   3.683
  348SOL    HW2 1829   3.337   0.153   3.579
  349SOL     OW 1830   2.665   1.402   2.786
  349SOL    HW1 1831   2.755   1.416   2.744
  349SOL    HW2 1832   2.594   1.404   2.715
  350SOL     OW 1833   3.296   1.188   1.903
  350SOL    HW1 1834   3.328   1.112   1.960
  350SOL    HW2 1835   3.204   1.215   1.933
  351SOL     OW 1836   3.133   1.797   2.453
  351SOL    HW1 1837   3.177   1.861   2.389
  351SOL    HW2 1838   3.083   1.849   2.523
  352SOL     OW 1839   3.719   0.833   2.239
  352SOL    HW1 1840   3.761   0.769   2.303
  352SOL    HW2 1841   3.681   0.782   2.161
  353SOL     OW 1842   3.136   0.386   3.124
  353SOL    HW1 1843   3.157   0.460   3.188
  353SOL    HW2 1844   3.047   0.403   3.081
  354SOL     OW 1845   2.229   1.100   2.363
  354SOL    HW1 1846   2.222   1.183   2.307
  354SOL    HW2 1847   2.233   1.020   2.303
  355SOL     OW 1848   2.169   0.213   3.093
  355SOL    HW1 1849   2.146   0.250   3.183
  355SOL    HW2 1850   2.139   0.118   3.087
  356SOL     OW 1851   2.021   1.137   3.328
  356SOL    HW1 1852   2.043   1.076   3.404
  356SOL    HW2 1853   2.031   1.088   3.242
  357SOL     OW 1854   3.621   1.747   3.016
  357SOL    HW1 1855   3.682   1.777   2.943
  357SOL    HW2 1856   3.583   1.658   2.994
  358SOL     OW 1857   3.512   1.720   3.256
  358SOL    HW1 1858   3.565   1.730   3.172
  358SOL    HW2 1859   3.485   1.810   3.290
  359SOL     OW 1860   2.125   0.326   2.582
  359SOL    HW1 1861   2.046   0.377   2.548
  359SOL    HW2 1862   2.116   0.311   2.680
  360SOL     OW 1863   2.117   1.348   2.152
  360SOL    HW1 1864   2.021   1.349   2.125
  360SOL    HW2 1865   2.129   1.401   2.236
  361SOL     OW 1866   2.252   1.741   3.422
  361SOL    HW1 1867   2.161   1.782   3.420
  361SOL    HW2 1868   2.245   1.647   3.454
  362SOL     OW 1869   2.179   0.547   3.142
  362SOL    HW1 1870   2.217   0.488   3.214
  362SOL    HW2 1871   2.219   0.521   3.054
  363SOL     OW 1872   3.286   0.214   2.974
  363SOL    HW1 1873   3.338   0.149   3.029
  363SOL    HW2 1874   3.237   0.277   3.035
  364SOL     OW 1875   3.162   0.453   2.553
  364SOL    HW1 1876   3.103   0.533   2.557
  364SOL    HW2 1877   3.177   0.418   2.646
  365SOL     OW 1878   3.322   1.505   5.063
  365SOL    HW1 1879   3.346   1.599   5.089
  365SOL    HW2 1880   3.306   1.451   5.145
  366SOL     OW 1881   3.456   0.114   5.204
  366SOL    HW1 1882   3.438   0.181   5.132
  366SOL    HW2 1883   3.453   0.160   5.293
  367SOL     OW 1884   1.889   1.596   3.841
  367SOL    HW1 1885   1.870   1.500   3.862
  367SOL    HW2 1886   1.856   1.654   3.916
  368SOL     OW 1887   1.975   0.737   5.321
  368SOL    HW1 1888   2.063   0.724   5.366
  368SOL    HW2 1889   1.962   0.834   5.299
  369SOL     OW 1890   3.256   0.469   5.398
  369SOL    HW1 1891   3.236   0.512   5.486
  369SOL    HW2 1892   3.334   0.407   5.407
  370SOL     OW 1893   2.476   0.122   3.841
  370SOL    HW1 1894   2.574   0.100   3.848
  370SOL    HW2 1895   2.445   0.105   3.748
  371SOL     OW 1896   2.643   0.264   5.473
  371SOL    HW1 1897   2.710   0.203   5.516
  371SOL    HW2 1898   2.570   0.283   5.538
  372SOL     OW 1899   3.133   1.797   4.315
  372SOL    HW1 1900   3.177   1.861   4.251
  372SOL    HW2 1901   3.083   1.849   4.385
  373SOL     OW 1902   2.894   0.549   3.740
  373SOL    HW1 1903   2.853   0.631   3.701
  373SOL    HW2 1904   2.958   0.575   3.813
  374SOL     OW 1905   3.526   1.280   4.381
  374SOL    HW1 1906   3.625   1.288   4.395
  374SOL    HW2 1907   3.481   1.364   4.412
  375SOL     OW 1908   2.926   1.347   5.064
  375SOL    HW1 1909   2.846   1.324   5.119
  375SOL    HW2 1910   3.009   1.321   5.113
  376SOL     OW 1911   3.454   1.629   5.349
  376SOL    HW1 1912   3.481   1.663   5.259
  376SOL    HW2 1913   3.533   1.591   5.395
  377SOL     OW 1914   3.136   0.386   4.986
  377SOL    HW1 1915   3.157   0.460   5.050
  377SOL    HW2 1916   3.047   0.403   4.943
  378SOL     OW 1917   2.428   0.537   4.589
  378SOL    HW1 1918   2.440   0.603   4.515
  378SOL    HW2 1919   2.474   0.571   4.672
  379SOL     OW 1920   2.366   0.050   5.464
  379SOL    HW1 1921   2.324  -0.007   5.394
  379SOL    HW2 1922   2.300   0.119   5.496
  380SOL     OW 1923   3.022   0.207   5.201
  380SOL    HW1 1924   3.022   0.271   5.278
  380SOL    HW2 1925   3.050   0.255   5.118
  381SOL     OW 1926   3.231   0.950   5.384
  381SOL    HW1 1927   3.270   1.039   5.404
  381SOL    HW2 1928   3.241   0.930   5.287
  382SOL     OW 1929   3.519   0.604   4.930
  382SOL    HW1 1930   3.481   0.535   4.992
  382SOL    HW2 1931   3.601   0.568   4.886
  383SOL     OW 1932   3.164   0.855   4.033
  383SOL    HW1 1933   3.078   0.824   4.075
  383SOL    HW2 1934   3.160   0.841   3.934
  384SOL     OW 1935   3.056   1.612   3.755
  384SOL    HW1 1936   3.062   1.519   3.792
  384SOL    HW2 1937   2.997   1.612   3.675
  385SOL     OW 1938   2.117   1.348   4.014
  385SOL    HW1 1939   2.021   1.349   3.987
  385SOL    HW2 1940   2.129   1.401   4.098
  386SOL     OW 1941   1.967   1.013   5.450
  386SOL    HW1 1942   1.890   0.980   5.504
  386SOL    HW2 1943   2.052   0.983   5.492
  387SOL     OW 1944   1.934   0.166   4.042
  387SOL    HW1 1945   1.917   0.249   3.988
  387SOL    HW2 1946   2.024   0.129   4.020
  388SOL     OW 1947   3.312   1.220   5.357
  388SOL    HW1 1948   3.303   1.210   5.456
  388SOL    HW2 1949   3.408   1.213   5.331
  389SOL     OW 1950   2.721   1.374   3.740
  389SOL    HW1 1951   2.675   1.389   3.828
  389SOL    HW2 1952   2.765   1.459   3.710
  390SOL     OW 1953   2.468   0.964   5.709
  390SOL    HW1 1954   2.475   1.048   5.655
  390SOL    HW2 1955   2.514   0.977   5.797
  391SOL     OW 1956   2.183   0.943   5.828
  391SOL    HW1 1957   2.265   0.982   5.786
  391SOL    HW2 1958   2.156   0.861   5.779
  392SOL     OW 1959   2.973   1.776   5.823
  392SOL    HW1 1960   2.913   1.714   5.873
  392SOL    HW2 1961   3.004   1.732   5.738
  393SOL     OW 1962   3.402   0.274   5.711
  393SOL    HW1 1963   3.341   0.199   5.734
  393SOL    HW2 1964   3.424   0.326   5.794
  394SOL     OW 1965   2.534   1.616   5.740
  394SOL    HW1 1966   2.543   1.626   5.641
  394SOL    HW2 1967   2.494   1.527   5.761
  395SOL     OW 1968   2.117   1.348   5.876
  395SOL    HW1 1969   2.021   1.349   5.849
  395SOL    HW2 1970   2.129   1.401   5.960
  396SOL     OW 1971   3.045   1.335   5.705
  396SOL    HW1 1972   2.946   1.324   5.707
  396SOL    HW2 1973   3.079   1.350   5.798
  397SOL     OW 1974   3.214   0.052   5.754
  397SOL    HW1 1975   3.249   0.011   5.670
  397SOL    HW2 1976   3.124   0.014   5.774
  398SOL     OW 1977   2.997   2.565   0.717
  398SOL    HW1 1978   3.054   2.643   0.692
  398SOL    HW2 1979   2.937   2.591   0.793
  399SOL     OW 1980   2.630   3.006   1.023
  399SOL    HW1 1981   2.552   3.023   1.083
  399SOL    HW2 1982   2.664   3.093   0.987
  400SOL     OW 1983   3.322   3.367   1.339
  400SOL    HW1 1984   3.346   3.461   1.365
  400SOL    HW2 1985   3.306   3.313   1.421
  401SOL     OW 1986   3.704   3.629   0.359
  401SOL    HW1 1987   3.758   3.600   0.439
  401SOL    HW2 1988   3.734   3.719   0.330
  402SOL     OW 1989   3.049   3.654   1.616
  402SOL    HW1 1990   3.073   3.714   1.540
  402SOL    HW2 1991   3.056   3.559   1.586
  403SOL     OW 1992   2.183   2.805   0.242
  403SOL    HW1 1993   2.265   2.844   0.200
  403SOL    HW2 1994   2.156   2.723   0.193
  404SOL     OW 1995   3.320   2.597   0.728
  404SOL    HW1 1996   3.315   2.532   0.803
  404SOL    HW2 1997   3.400   2.656   0.741
  405SOL     OW 1998   2.064   2.147   1.498
  405SOL    HW1 1999   1.984   2.207   1.485
  405SOL    HW2 2000   2.054   2.098   1.584
  406SOL     OW 2001   3.262   1.969   0.426
  406SOL    HW1 2002   3.238   1.932   0.336
  406SOL    HW2 2003   3.361   1.985   0.430
  407SOL     OW 2004   2.665   3.264   0.924
  407SOL    HW1 2005   2.755   3.278   0.882
  407SOL    HW2 2006   2.594   3.266   0.853
  408SOL     OW 2007   2.401   1.926   0.512
  408SOL    HW1 2008   2.320   1.927   0.570
  408SOL    HW2 2009   2.404   2.009   0.457
  409SOL     OW 2010   3.296   3.050   0.041
  409SOL    HW1 2011   3.328   2.974   0.098
  409SOL    HW2 2012   3.204   3.077   0.071
  410SOL     OW 2013   1.940   2.418   1.386
  410SOL    HW1 2014   2.032   2.417   1.345
  410SOL    HW2 2015   1.934   2.492   1.453
  411SOL     OW 2016   3.449   2.641   1.670
  411SOL    HW1 2017   3.357   2.679   1.665
  411SOL    HW2 2018   3.509   2.688   1.605
  412SOL     OW 2019   3.222   2.724   1.045
  412SOL    HW1 2020   3.147   2.724   0.979
  412SOL    HW2 2021   3.259   2.632   1.054
  413SOL     OW 2022   3.165   2.700   0.042
  413SOL    HW1 2023   3.199   2.607   0.057
  413SOL    HW2 2024   3.183   2.727  -0.053
  414SOL     OW 2025   1.950   3.663   0.927
  414SOL    HW1 2026   1.908   3.577   0.900
  414SOL    HW2 2027   2.044   3.666   0.893
  415SOL     OW 2028   2.677   2.434   0.325
  415SOL    HW1 2029   2.684   2.345   0.279
  415SOL    HW2 2030   2.583   2.468   0.317
  416SOL     OW 2031   3.519   2.466   1.206
  416SOL    HW1 2032   3.481   2.397   1.268
  416SOL    HW2 2033   3.601   2.430   1.162
  417SOL     OW 2034   3.114   3.593   1.128
  417SOL    HW1 2035   3.198   3.598   1.074
  417SOL    HW2 2036   3.091   3.497   1.146
  418SOL     OW 2037   3.250   3.435   0.477
  418SOL    HW1 2038   3.317   3.447   0.403
  418SOL    HW2 2039   3.210   3.524   0.500
  419SOL     OW 2040   2.125   2.188   0.720
  419SOL    HW1 2041   2.046   2.239   0.686
  419SOL    HW2 2042   2.116   2.173   0.818
  420SOL     OW 2043   2.876   2.098   0.971
  420SOL    HW1 2044   2.868   2.062   0.878
  420SOL    HW2 2045   2.874   2.022   1.036
  421SOL     OW 2046   2.117   3.210   0.290
  421SOL    HW1 2047   2.021   3.211   0.263
  421SOL    HW2 2048   2.129   3.263   0.374
  422SOL     OW 2049   1.941   3.102   0.653
  422SOL    HW1 2050   1.940   3.055   0.741
  422SOL    HW2 2051   2.023   3.074   0.602
  423SOL     OW 2052   3.617   2.469   2.093
  423SOL    HW1 2053   3.605   2.456   1.994
  423SOL    HW2 2054   3.587   2.388   2.142
  424SOL     OW 2055   1.938   2.673   2.651
  424SOL    HW1 2056   2.037   2.661   2.660
  424SOL    HW2 2057   1.914   2.768   2.672
  425SOL     OW 2058   3.588   1.997   2.385
  425SOL    HW1 2059   3.661   1.980   2.318
  425SOL    HW2 2060   3.557   1.910   2.423
  426SOL     OW 2061   2.092   2.490   3.837
  426SOL    HW1 2062   1.999   2.488   3.874
  426SOL    HW2 2063   2.093   2.451   3.745
  427SOL     OW 2064   1.881   2.230   4.371
  427SOL    HW1 2065   1.799   2.273   4.410
  427SOL    HW2 2066   1.853   2.157   4.308
  428SOL     OW 2067   2.197   3.297   4.785
  428SOL    HW1 2068   2.119   3.266   4.732
  428SOL    HW2 2069   2.255   3.355   4.728
  429SOL     OW 2070   1.984   2.505   4.287
  429SOL    HW1 2071   1.939   2.417   4.304
  429SOL    HW2 2072   1.983   2.559   4.371
  430SOL     OW 2073   2.671   1.866   4.226
  430SOL    HW1 2074   2.711   1.957   4.217
  430SOL    HW2 2075   2.571   1.874   4.232
  431SOL     OW 2076   2.179   2.113   5.525
  431SOL    HW1 2077   2.250   2.184   5.531
  431SOL    HW2 2078   2.091   2.152   5.553
  432SOL     OW 2079   2.727   2.210   3.919
  432SOL    HW1 2080   2.786   2.273   3.870
  432SOL    HW2 2081   2.746   2.116   3.890
  433SOL     OW 2082   2.326   3.605   4.047
  433SOL    HW1 2083   2.359   3.644   4.133
  433SOL    HW2 2084   2.402   3.598   3.982
  434SOL     OW 2085   2.111   3.647   4.965
  434SOL    HW1 2086   2.168   3.582   5.015
  434SOL    HW2 2087   2.095   3.614   4.872
  435SOL     OW 2088   2.321   3.014   4.465
  435SOL    HW1 2089   2.250   2.987   4.530
  435SOL    HW2 2090   2.295   2.986   4.372
  436SOL     OW 2091   2.423   2.084   4.871
  436SOL    HW1 2092   2.461   2.000   4.908
  436SOL    HW2 2093   2.335   2.103   4.915
  437SOL     OW 2094   2.973   3.057   4.824
  437SOL    HW1 2095   2.933   3.101   4.905
  437SOL    HW2 2096   2.932   3.094   4.741
  438SOL     OW 2097   2.777   1.951   5.126
  438SOL    HW1 2098   2.802   1.931   5.031
  438SOL    HW2 2099   2.849   2.007   5.168
  439SOL     OW 2100   2.272   2.675   4.975
  439SOL    HW1 2101   2.358   2.687   5.025
  439SOL    HW2 2102   2.230   2.588   5.002
  440SOL     OW 2103   3.134   3.307   4.866
  440SOL    HW1 2104   3.181   3.320   4.953
  440SOL    HW2 2105   3.068   3.233   4.875
  441SOL     OW 2106   2.435   2.732   4.753
  441SOL    HW1 2107   2.479   2.821   4.744
  441SOL    HW2 2108   2.372   2.732   4.830
  442SOL     OW 2109   2.169   2.075   4.955
  442SOL    HW1 2110   2.146   2.112   5.045
  442SOL    HW2 2111   2.139   1.980   4.949
  443SOL     OW 2112   3.402   2.136   3.849
  443SOL    HW1 2113   3.341   2.061   3.872
  443SOL    HW2 2114   3.424   2.188   3.932
  444SOL     OW 2115   2.366   3.430   4.634
  444SOL    HW1 2116   2.432   3.504   4.643
  444SOL    HW2 2117   2.410   3.351   4.592
  445SOL     OW 2118   3.512   3.582   5.118
  445SOL    HW1 2119   3.565   3.592   5.034
  445SOL    HW2 2120   3.485   3.672   5.152
  446SOL     OW 2121   3.312   3.082   5.357
  446SOL    HW1 2122   3.303   3.072   5.456
  446SOL    HW2 2123   3.408   3.075   5.331
  447SOL     OW 2124   3.567   3.349   4.828
  447SOL    HW1 2125   3.474   3.324   4.801
  447SOL    HW2 2126   3.593   3.299   4.910
  448SOL     OW 2127   3.286   2.076   4.836
  448SOL    HW1 2128   3.338   2.011   4.891
  448SOL    HW2 2129   3.237   2.139   4.897
  449SOL     OW 2130   2.863   1.896   4.878
  449SOL    HW1 2131   2.800   1.824   4.847
  449SOL    HW2 2132   2.956   1.860   4.878
  450SOL     OW 2133   2.727   2.210   5.781
  450SOL    HW1 2134   2.786   2.273   5.732
  450SOL    HW2 2135   2.746   2.116   5.752
  451SOL     OW 2136   2.476   1.984   5.703
  451SOL    HW1 2137   2.574   1.962   5.710
  451SOL    HW2 2138   2.445   1.967   5.610
  452SOL     OW 2139   3.214   1.914   5.754
  452SOL    HW1 2140   3.249   1.873   5.670
  452SOL    HW2 2141   3.124   1.876   5.774
  453SOL     OW 2142   3.465   4.171   0.737
  453SOL    HW1 2143   3.391   4.217   0.687
  453SOL    HW2 2144   3.516   4.239   0.790
  454SOL     OW 2145   2.102   4.815   0.886
  454SOL    HW1 2146   2.116   4.731   0.938
  454SOL    HW2 2147   2.047   4.879   0.941
  455SOL     OW 2148   2.475   5.089   0.726
  455SOL    HW1 2149   2.426   5.002   0.735
  455SOL    HW2 2150   2.452   5.132   0.639
  456SOL     OW 2151   3.438   5.386   0.307
  456SOL    HW1 2152   3.527   5.432   0.310
  456SOL    HW2 2153   3.417   5.362   0.212
  457SOL     OW 2154   3.224   4.868   0.545
  457SOL    HW1 2155   3.307   4.839   0.497
  457SOL    HW2 2156   3.175   4.935   0.489
  458SOL     OW 2157   2.111   5.509   1.241
  458SOL    HW1 2158   2.168   5.444   1.291
  458SOL    HW2 2159   2.095   5.476   1.148
  459SOL     OW 2160   2.423   3.946   1.147
  459SOL    HW1 2161   2.461   3.862   1.184
  459SOL    HW2 2162   2.335   3.965   1.191
  460SOL     OW 2163   2.879   3.763   0.753
  460SOL    HW1 2164   2.807   3.768   0.684
  460SOL    HW2 2165   2.855   3.694   0.822
  461SOL     OW 2166   3.134   5.169   1.142
  461SOL    HW1 2167   3.181   5.182   1.229
  461SOL    HW2 2168   3.068   5.095   1.151
  462SOL     OW 2169   3.590   4.659   1.854
  462SOL    HW1 2170   3.544   4.652   1.765
  462SOL    HW2 2171   3.528   4.703   1.920
  463SOL     OW 2172   2.201   4.233   1.006
  463SOL    HW1 2173   2.149   4.150   0.989
  463SOL    HW2 2174   2.278   4.238   0.942
  464SOL     OW 2175   2.366   5.292   0.910
  464SOL    HW1 2176   2.432   5.366   0.919
  464SOL    HW2 2177   2.410   5.213   0.868
  465SOL     OW 2178   1.902   4.268   1.114
  465SOL    HW1 2179   1.987   4.235   1.073
  465SOL    HW2 2180   1.915   4.283   1.212
  466SOL     OW 2181   3.476   5.016   1.289
  466SOL    HW1 2182   3.536   5.019   1.369
  466SOL    HW2 2183   3.401   5.080   1.302
  467SOL     OW 2184   3.312   4.944   1.633
  467SOL    HW1 2185   3.303   4.934   1.732
  467SOL    HW2 2186   3.408   4.937   1.607
  468SOL     OW 2187   2.721   5.098   0.016
  468SOL    HW1 2188   2.675   5.113   0.104
  468SOL    HW2 2189   2.765   5.183  -0.014
  469SOL     OW 2190   2.523   5.514   0.953
  469SOL    HW1 2191   2.477   5.602   0.940
  469SOL    HW2 2192   2.622   5.526   0.946
  470SOL     OW 2193   3.686   3.916   1.227
  470SOL    HW1 2194   3.682   3.826   1.271
  470SOL    HW2 2195   3.689   3.905   1.128
  471SOL     OW 2196   2.674   5.310   0.687
  471SOL    HW1 2197   2.706   5.320   0.593
  471SOL    HW2 2198   2.595   5.248   0.689
  472SOL     OW 2199   2.460   4.453   2.132
  472SOL    HW1 2200   2.484   4.522   2.064
  472SOL    HW2 2201   2.382   4.486   2.186
  473SOL     OW 2202   3.143   4.069   2.806
  473SOL    HW1 2203   3.057   4.019   2.793
  473SOL    HW2 2204   3.205   4.015   2.862
  474SOL     OW 2205   2.669   4.329   3.327
  474SOL    HW1 2206   2.622   4.326   3.416
  474SOL    HW2 2207   2.618   4.274   3.261
  475SOL     OW 2208   2.903   4.425   2.291
  475SOL    HW1 2209   2.929   4.421   2.387
  475SOL    HW2 2210   2.818   4.374   2.277
  476SOL     OW 2211   1.938   4.535   2.651
  476SOL    HW1 2212   2.037   4.523   2.660
  476SOL    HW2 2213   1.914   4.630   2.672
  477SOL     OW 2214   2.412   3.920   2.747
  477SOL    HW1 2215   2.407   3.915   2.847
  477SOL    HW2 2216   2.414   4.016   2.718
  478SOL     OW 2217   3.262   3.831   2.288
  478SOL    HW1 2218   3.238   3.794   2.198
  478SOL    HW2 2219   3.361   3.847   2.292
  479SOL     OW 2220   2.802   5.422   2.766
  479SOL    HW1 2221   2.882   5.365   2.787
  479SOL    HW2 2222   2.753   5.382   2.689
  480SOL     OW 2223   2.665   5.126   2.786
  480SOL    HW1 2224   2.755   5.140   2.744
  480SOL    HW2 2225   2.594   5.128   2.715
  481SOL     OW 2226   3.296   4.912   1.903
  481SOL    HW1 2227   3.328   4.836   1.960
  481SOL    HW2 2228   3.204   4.939   1.933
  482SOL     OW 2229   3.133   5.521   2.453
  482SOL    HW1 2230   3.177   5.585   2.389
  482SOL    HW2 2231   3.083   5.573   2.523
  483SOL     OW 2232   3.719   4.557   2.239
  483SOL    HW1 2233   3.761   4.493   2.303
  483SOL    HW2 2234   3.681   4.506   2.161
  484SOL     OW 2235   3.454   5.353   3.487
  484SOL    HW1 2236   3.481   5.387   3.397
  484SOL    HW2 2237   3.533   5.315   3.533
  485SOL     OW 2238   3.500   4.823   2.941
  485SOL    HW1 2239   3.505   4.904   3.000
  485SOL    HW2 2240   3.414   4.825   2.890
  486SOL     OW 2241   3.136   4.110   3.124
  486SOL    HW1 2242   3.157   4.184   3.188
  486SOL    HW2 2243   3.047   4.127   3.081
  487SOL     OW 2244   2.885   4.490   2.828
  487SOL    HW1 2245   2.900   4.511   2.924
  487SOL    HW2 2246   2.855   4.395   2.819
  488SOL     OW 2247   2.842   5.297   3.562
  488SOL    HW1 2248   2.822   5.341   3.474
  488SOL    HW2 2249   2.881   5.206   3.546
  489SOL     OW 2250   3.022   3.931   3.339
  489SOL    HW1 2251   3.022   3.995   3.416
  489SOL    HW2 2252   3.050   3.979   3.256
  490SOL     OW 2253   2.864   4.520   3.100
  490SOL    HW1 2254   2.905   4.488   3.186
  490SOL    HW2 2255   2.768   4.493   3.097
  491SOL     OW 2256   3.231   4.674   3.522
  491SOL    HW1 2257   3.270   4.763   3.542
  491SOL    HW2 2258   3.241   4.654   3.425
  492SOL     OW 2259   2.533   4.188   3.131
  492SOL    HW1 2260   2.499   4.099   3.101
  492SOL    HW2 2261   2.559   4.242   3.051
  493SOL     OW 2262   2.792   5.402   3.327
  493SOL    HW1 2263   2.768   5.384   3.232
  493SOL    HW2 2264   2.822   5.496   3.337
  494SOL     OW 2265   3.588   3.859   2.385
  494SOL    HW1 2266   3.661   3.842   2.318
  494SOL    HW2 2267   3.557   3.772   2.423
  495SOL     OW 2268   2.692   4.997   3.284
  495SOL    HW1 2269   2.687   5.030   3.379
  495SOL    HW2 2270   2.606   5.016   3.238
  496SOL     OW 2271   2.452   5.211   2.353
  496SOL    HW1 2272   2.494   5.153   2.283
  496SOL    HW2 2273   2.408   5.290   2.309
  497SOL     OW 2274   1.937   4.069   1.895
  497SOL    HW1 2275   1.845   4.041   1.866
  497SOL    HW2 2276   1.968   4.146   1.839
  498SOL     OW 2277   2.721   5.098   1.878
  498SOL    HW1 2278   2.675   5.113   1.966
  498SOL    HW2 2279   2.765   5.183   1.848
  499SOL     OW 2280   2.523   5.514   2.815
  499SOL    HW1 2281   2.477   5.602   2.802
  499SOL    HW2 2282   2.622   5.526   2.808
  500SOL     OW 2283   2.083   5.038   3.706
  500SOL    HW1 2284   2.018   4.965   3.685
  500SOL    HW2 2285   2.087   5.052   3.804
  501SOL     OW 2286   2.092   4.352   3.837
  501SOL    HW1 2287   1.999   4.350   3.874
  501SOL    HW2 2288   2.093   4.313   3.745
  502SOL     OW 2289   2.087   3.999   4.720
  502SOL    HW1 2290   2.122   3.982   4.812
  502SOL    HW2 2291   1.999   3.954   4.708
  503SOL     OW 2292   1.881   4.092   4.371
  503SOL    HW1 2293   1.799   4.135   4.410
  503SOL    HW2 2294   1.853   4.019   4.308
  504SOL     OW 2295   2.197   5.159   4.785
  504SOL    HW1 2296   2.119   5.128   4.732
  504SOL    HW2 2297   2.255   5.217   4.728
  505SOL     OW 2298   2.482   5.510   5.163
  505SOL    HW1 2299   2.390   5.493   5.198
  505SOL    HW2 2300   2.510   5.602   5.189
  506SOL     OW 2301   1.975   4.461   5.321
  506SOL    HW1 2302   2.063   4.448   5.366
  506SOL    HW2 2303   1.962   4.558   5.299
  507SOL     OW 2304   2.671   3.728   4.226
  507SOL    HW1 2305   2.711   3.819   4.217
  507SOL    HW2 2306   2.571   3.736   4.232
  508SOL     OW 2307   2.179   3.975   5.525
  508SOL    HW1 2308   2.250   4.046   5.531
  508SOL    HW2 2309   2.091   4.014   5.553
  509SOL     OW 2310   3.438   5.386   4.031
  509SOL    HW1 2311   3.527   5.432   4.034
  509SOL    HW2 2312   3.417   5.362   3.936
  510SOL     OW 2313   2.870   5.180   4.201
  510SOL    HW1 2314   2.824   5.252   4.149
  510SOL    HW2 2315   2.866   5.200   4.299
  511SOL     OW 2316   3.134   5.169   4.866
  511SOL    HW1 2317   3.181   5.182   4.953
  511SOL    HW2 2318   3.068   5.095   4.875
  512SOL     OW 2319   3.071   4.249   3.999
  512SOL    HW1 2320   3.084   4.165   4.053
  512SOL    HW2 2321   3.042   4.323   4.059
  513SOL     OW 2322   1.899   5.034   5.006
  513SOL    HW1 2323   1.952   4.985   5.074
  513SOL    HW2 2324   1.921   5.132   5.011
  514SOL     OW 2325   2.594   4.358   4.788
  514SOL    HW1 2326   2.653   4.332   4.712
  514SOL    HW2 2327   2.566   4.454   4.777
  515SOL     OW 2328   3.721   5.242   5.329
  515SOL    HW1 2329   3.735   5.269   5.234
  515SOL    HW2 2330   3.804   5.264   5.382
  516SOL     OW 2331   2.212   4.622   5.528
  516SOL    HW1 2332   2.288   4.666   5.576
  516SOL    HW2 2333   2.247   4.575   5.446
  517SOL     OW 2334   2.677   4.296   4.049
  517SOL    HW1 2335   2.684   4.207   4.003
  517SOL    HW2 2336   2.583   4.330   4.041
  518SOL     OW 2337   3.209   4.783   4.958
  518SOL    HW1 2338   3.233   4.720   4.884
  518SOL    HW2 2339   3.119   4.823   4.940
  519SOL     OW 2340   3.621   5.471   4.878
  519SOL    HW1 2341   3.682   5.501   4.805
  519SOL    HW2 2342   3.583   5.382   4.856
  520SOL     OW 2343   2.684   4.726   5.096
  520SOL    HW1 2344   2.724   4.725   5.004
  520SOL    HW2 2345   2.694   4.818   5.136
  521SOL     OW 2346   2.234   5.012   5.214
  521SOL    HW1 2347   2.221   5.105   5.180
  521SOL    HW2 2348   2.150   4.960   5.201
  522SOL     OW 2349   2.475   4.566   5.155
  522SOL    HW1 2350   2.531   4.647   5.138
  522SOL    HW2 2351   2.534   4.486   5.158
  523SOL     OW 2352   3.723   5.293   4.575
  523SOL    HW1 2353   3.652   5.281   4.505
  523SOL    HW2 2354   3.724   5.214   4.635
  524SOL     OW 2355   2.290   4.148   4.244
  524SOL    HW1 2356   2.320   4.076   4.182
  524SOL    HW2 2357   2.251   4.108   4.327
  525SOL     OW 2358   2.863   3.758   4.878
  525SOL    HW1 2359   2.800   3.686   4.847
  525SOL    HW2 2360   2.956   3.722   4.878
  526SOL     OW 2361   3.455   3.945   4.606
  526SOL    HW1 2362   3.371   3.944   4.660
  526SOL    HW2 2363   3.457   4.028   4.550
  527SOL     OW 2364   2.159   3.759   5.757
  527SOL    HW1 2365   2.208   3.843   5.736
  527SOL    HW2 2366   2.221   3.694   5.802
  528SOL     OW 2367   2.677   4.296   5.911
  528SOL    HW1 2368   2.684   4.207   5.865
  528SOL    HW2 2369   2.583   4.330   5.903
  529SOL     OW 2370   1.937   4.069   5.619
  529SOL    HW1 2371   1.845   4.041   5.590
  529SOL    HW2 2372   1.968   4.146   5.563
  530SOL     OW 2373   3.214   3.776   5.754
  530SOL    HW1 2374   3.249   3.735   5.670
  530SOL    HW2 2375   3.124   3.738   5.774
  531SOL     OW 2376   2.300   5.978   1.499
  531SOL    HW1 2377   2.382   5.922   1.508
  531SOL    HW2 2378   2.219   5.920   1.503
  532SOL     OW 2379   3.136   5.972   1.262
  532SOL    HW1 2380   3.157   6.046   1.326
  532SOL    HW2 2381   3.047   5.989   1.219
  533SOL     OW 2382   3.456   5.700   3.342
  533SOL    HW1 2383   3.438   5.767   3.270
  533SOL    HW2 2384   3.453   5.746   3.431
  534SOL     OW 2385   3.143   5.931   2.806
  534SOL    HW1 2386   3.057   5.881   2.793
  534SOL    HW2 2387   3.205   5.877   2.862
  535SOL     OW 2388   2.389   5.842   2.190
  535SOL    HW1 2389   2.416   5.783   2.115
  535SOL    HW2 2390   2.389   5.937   2.159
  536SOL     OW 2391   2.169   5.799   3.093
  536SOL    HW1 2392   2.146   5.836   3.183
  536SOL    HW2 2393   2.139   5.704   3.087
  537SOL     OW 2394   2.169   5.649   2.480
  537SOL    HW1 2395   2.158   5.743   2.513
  537SOL    HW2 2396   2.164   5.586   2.557
  538SOL     OW 2397   2.534   5.789   3.351
  538SOL    HW1 2398   2.624   5.773   3.311
  538SOL    HW2 2399   2.542   5.794   3.450
  539SOL     OW 2400   3.617   6.193   3.955
  539SOL    HW1 2401   3.605   6.180   3.856
  539SOL    HW2 2402   3.587   6.112   4.004
  540SOL     OW 2403   2.671   5.590   4.226
  540SOL    HW1 2404   2.711   5.681   4.217
  540SOL    HW2 2405   2.571   5.598   4.232
  541SOL     OW 2406   2.727   5.934   3.919
  541SOL    HW1 2407   2.786   5.997   3.870
  541SOL    HW2 2408   2.746   5.840   3.890
  542SOL     OW 2409   2.412   5.782   4.609
  542SOL    HW1 2410   2.407   5.777   4.709
  542SOL    HW2 2411   2.414   5.878   4.580
  543SOL     OW 2412   2.401   5.650   4.236
  543SOL    HW1 2413   2.320   5.651   4.294
  543SOL    HW2 2414   2.404   5.733   4.181
  544SOL     OW 2415   2.423   5.808   4.871
  544SOL    HW1 2416   2.461   5.724   4.908
  544SOL    HW2 2417   2.335   5.827   4.915
  545SOL     OW 2418   3.455   5.807   4.606
  545SOL    HW1 2419   3.371   5.806   4.660
  545SOL    HW2 2420   3.457   5.890   4.550
  546SOL     OW 2421   3.617   6.193   5.817
  546SOL    HW1 2422   3.605   6.180   5.718
  546SOL    HW2 2423   3.587   6.112   5.866
  547SOL     OW 2424   3.954   0.628   0.113
  547SOL    HW1 2425   3.861   0.626   0.150
  547SOL    HW2 2426   3.955   0.589   0.021
  548SOL     OW 2427   5.479   0.607   0.231
  548SOL    HW1 2428   5.467   0.594   0.132
  548SOL    HW2 2429   5.449   0.526   0.280
  549SOL     OW 2430   4.533   0.004   0.502
  549SOL    HW1 2431   4.573   0.095   0.493
  549SOL    HW2 2432   4.433   0.012   0.508
  550SOL     OW 2433   5.391   1.714   0.572
  550SOL    HW1 2434   5.350   1.691   0.484
  550SOL    HW2 2435   5.373   1.640   0.637
  551SOL     OW 2436   4.185   1.266   1.727
  551SOL    HW1 2437   4.135   1.267   1.641
  551SOL    HW2 2438   4.122   1.248   1.803
  552SOL     OW 2439   3.926   0.285   1.498
  552SOL    HW1 2440   3.846   0.345   1.485
  552SOL    HW2 2441   3.916   0.236   1.584
  553SOL     OW 2442   5.124   0.107   0.426
  553SOL    HW1 2443   5.100   0.070   0.336
  553SOL    HW2 2444   5.223   0.123   0.430
  554SOL     OW 2445   4.338   0.122   0.117
  554SOL    HW1 2446   4.436   0.100   0.124
  554SOL    HW2 2447   4.307   0.105   0.024
  555SOL     OW 2448   4.285   0.222   1.147
  555SOL    HW1 2449   4.323   0.138   1.184
  555SOL    HW2 2450   4.197   0.241   1.191
  556SOL     OW 2451   4.741   0.039   0.753
  556SOL    HW1 2452   4.669   0.044   0.684
  556SOL    HW2 2453   4.717  -0.030   0.822
  557SOL     OW 2454   4.290   0.537   0.865
  557SOL    HW1 2455   4.302   0.603   0.791
  557SOL    HW2 2456   4.336   0.571   0.948
  558SOL     OW 2457   5.583   1.518   1.605
  558SOL    HW1 2458   5.597   1.545   1.510
  558SOL    HW2 2459   5.666   1.540   1.658
  559SOL     OW 2460   5.381   0.604   1.206
  559SOL    HW1 2461   5.343   0.535   1.268
  559SOL    HW2 2462   5.463   0.568   1.162
  560SOL     OW 2463   5.112   1.573   0.477
  560SOL    HW1 2464   5.179   1.585   0.403
  560SOL    HW2 2465   5.072   1.662   0.500
  561SOL     OW 2466   3.854   1.794   1.851
  561SOL    HW1 2467   3.813   1.720   1.904
  561SOL    HW2 2468   3.918   1.845   1.909
  562SOL     OW 2469   5.374   1.720   1.394
  562SOL    HW1 2470   5.427   1.730   1.310
  562SOL    HW2 2471   5.347   1.810   1.428
  563SOL     OW 2472   4.583   1.374   0.016
  563SOL    HW1 2473   4.537   1.389   0.104
  563SOL    HW2 2474   4.627   1.459  -0.014
  564SOL     OW 2475   3.945   1.314   1.844
  564SOL    HW1 2476   3.880   1.241   1.823
  564SOL    HW2 2477   3.949   1.328   1.942
  565SOL     OW 2478   4.041   0.547   1.280
  565SOL    HW1 2479   4.079   0.488   1.352
  565SOL    HW2 2480   4.081   0.521   1.192
  566SOL     OW 2481   4.059   1.435   2.923
  566SOL    HW1 2482   3.981   1.404   2.870
  566SOL    HW2 2483   4.117   1.493   2.866
  567SOL     OW 2484   3.955   1.713   2.345
  567SOL    HW1 2485   3.989   1.790   2.399
  567SOL    HW2 2486   3.999   1.713   2.255
  568SOL     OW 2487   3.954   1.434   2.400
  568SOL    HW1 2488   3.928   1.530   2.400
  568SOL    HW2 2489   3.883   1.380   2.445
  569SOL     OW 2490   5.566   1.767   2.221
  569SOL    HW1 2491   5.620   1.738   2.301
  569SOL    HW2 2492   5.596   1.857   2.192
  570SOL     OW 2493   5.017   1.228   3.285
  570SOL    HW1 2494   5.054   1.155   3.227
  570SOL    HW2 2495   5.069   1.233   3.370
  571SOL     OW 2496   4.715   0.410   3.104
  571SOL    HW1 2497   4.638   0.444   3.158
  571SOL    HW2 2498   4.681   0.359   3.025
  572SOL     OW 2499   4.589   0.348   2.057
  572SOL    HW1 2500   4.648   0.411   2.008
  572SOL    HW2 2501   4.608   0.254   2.028
  573SOL     OW 2502   4.075   1.801   2.715
  573SOL    HW1 2503   4.125   1.715   2.721
  573SOL    HW2 2504   4.140   1.878   2.712
  574SOL     OW 2505   5.356   1.377   1.943
  574SOL    HW1 2506   5.324   1.471   1.933
  574SOL    HW2 2507   5.280   1.314   1.931
  575SOL     OW 2508   3.973   1.785   3.103
  575SOL    HW1 2509   4.030   1.720   3.153
  575SOL    HW2 2510   3.957   1.752   3.010
  576SOL     OW 2511   4.285   0.222   3.009
  576SOL    HW1 2512   4.323   0.138   3.046
  576SOL    HW2 2513   4.197   0.241   3.053
  577SOL     OW 2514   4.788   1.347   3.202
  577SOL    HW1 2515   4.708   1.324   3.257
  577SOL    HW2 2516   4.871   1.321   3.251
  578SOL     OW 2517   4.704   1.116   3.581
  578SOL    HW1 2518   4.605   1.122   3.591
  578SOL    HW2 2519   4.727   1.036   3.525
  579SOL     OW 2520   4.996   1.445   3.004
  579SOL    HW1 2521   5.043   1.458   3.091
  579SOL    HW2 2522   4.930   1.371   3.013
  580SOL     OW 2523   3.976   1.564   3.606
  580SOL    HW1 2524   3.946   1.621   3.682
  580SOL    HW2 2525   3.969   1.467   3.632
  581SOL     OW 2526   4.546   1.002   3.234
  581SOL    HW1 2527   4.586   1.001   3.142
  581SOL    HW2 2528   4.556   1.094   3.274
  582SOL     OW 2529   5.164   0.856   3.260
  582SOL    HW1 2530   5.107   0.908   3.197
  582SOL    HW2 2531   5.260   0.868   3.236
  583SOL     OW 2532   4.583   1.374   1.878
  583SOL    HW1 2533   4.537   1.389   1.966
  583SOL    HW2 2534   4.627   1.459   1.848
  584SOL     OW 2535   4.396   1.391   3.486
  584SOL    HW1 2536   4.318   1.341   3.524
  584SOL    HW2 2537   4.393   1.486   3.517
  585SOL     OW 2538   4.293   1.275   4.889
  585SOL    HW1 2539   4.200   1.268   4.852
  585SOL    HW2 2540   4.304   1.364   4.933
  586SOL     OW 2541   4.859   0.703   4.441
  586SOL    HW1 2542   4.916   0.781   4.416
  586SOL    HW2 2543   4.799   0.729   4.517
  587SOL     OW 2544   5.566   1.767   4.083
  587SOL    HW1 2545   5.620   1.738   4.163
  587SOL    HW2 2546   5.596   1.857   4.054
  588SOL     OW 2547   4.533   0.004   4.226
  588SOL    HW1 2548   4.573   0.095   4.217
  588SOL    HW2 2549   4.433   0.012   4.232
  589SOL     OW 2550   4.041   0.251   5.525
  589SOL    HW1 2551   4.112   0.322   5.531
  589SOL    HW2 2552   3.953   0.290   5.553
  590SOL     OW 2553   5.005   0.345   4.668
  590SOL    HW1 2554   4.919   0.295   4.655
  590SOL    HW2 2555   5.067   0.291   4.724
  591SOL     OW 2556   4.274   0.196   4.609
  591SOL    HW1 2557   4.269   0.191   4.709
  591SOL    HW2 2558   4.276   0.292   4.580
  592SOL     OW 2559   4.045   0.943   3.966
  592SOL    HW1 2560   4.127   0.982   3.924
  592SOL    HW2 2561   4.018   0.861   3.917
  593SOL     OW 2562   4.995   1.797   4.315
  593SOL    HW1 2563   5.039   1.861   4.251
  593SOL    HW2 2564   4.945   1.849   4.385
  594SOL     OW 2565   4.639   0.089   5.126
  594SOL    HW1 2566   4.664   0.069   5.031
  594SOL    HW2 2567   4.711   0.145   5.168
  595SOL     OW 2568   4.126   0.751   5.322
  595SOL    HW1 2569   4.194   0.806   5.275
  595SOL    HW2 2570   4.166   0.663   5.349
  596SOL     OW 2571   4.456   0.634   4.788
  596SOL    HW1 2572   4.515   0.608   4.712
  596SOL    HW2 2573   4.428   0.730   4.777
  597SOL     OW 2574   4.704   1.573   5.424
  597SOL    HW1 2575   4.684   1.617   5.336
  597SOL    HW2 2576   4.743   1.482   5.408
  598SOL     OW 2577   4.074   0.898   5.528
  598SOL    HW1 2578   4.150   0.942   5.576
  598SOL    HW2 2579   4.109   0.851   5.446
  599SOL     OW 2580   3.883   1.137   5.190
  599SOL    HW1 2581   3.905   1.076   5.266
  599SOL    HW2 2582   3.893   1.088   5.104
  600SOL     OW 2583   4.412   1.662   5.440
  600SOL    HW1 2584   4.356   1.743   5.449
  600SOL    HW2 2585   4.464   1.666   5.354
  601SOL     OW 2586   4.640   0.910   4.015
  601SOL    HW1 2587   4.703   0.948   3.947
  601SOL    HW2 2588   4.680   0.827   4.054
  602SOL     OW 2589   3.829   1.013   5.450
  602SOL    HW1 2590   3.752   0.980   5.504
  602SOL    HW2 2591   3.914   0.983   5.492
  603SOL     OW 2592   4.337   0.842   5.155
  603SOL    HW1 2593   4.393   0.923   5.138
  603SOL    HW2 2594   4.396   0.762   5.158
  604SOL     OW 2595   4.152   0.424   4.244
  604SOL    HW1 2596   4.182   0.352   4.182
  604SOL    HW2 2597   4.113   0.384   4.327
  605SOL     OW 2598   4.725   0.034   4.878
  605SOL    HW1 2599   4.662  -0.038   4.847
  605SOL    HW2 2600   4.818  -0.002   4.878
  606SOL     OW 2601   4.045   0.943   5.828
  606SOL    HW1 2602   4.127   0.982   5.786
  606SOL    HW2 2603   4.018   0.861   5.779
  607SOL     OW 2604   4.835   1.776   5.823
  607SOL    HW1 2605   4.775   1.714   5.873
  607SOL    HW2 2606   4.866   1.732   5.738
  608SOL     OW 2607   5.158   1.188   5.627
  608SOL    HW1 2608   5.190   1.112   5.684
  608SOL    HW2 2609   5.066   1.215   5.657
  609SOL     OW 2610   4.021   0.035   5.757
  609SOL    HW1 2611   4.070   0.119   5.736
  609SOL    HW2 2612   4.083  -0.030   5.802
  610SOL     OW 2613   4.539   0.572   5.911
  610SOL    HW1 2614   4.546   0.483   5.865
  610SOL    HW2 2615   4.445   0.606   5.903
  611SOL     OW 2616   3.796   0.166   5.904
  611SOL    HW1 2617   3.779   0.249   5.850
  611SOL    HW2 2618   3.886   0.129   5.882
  612SOL     OW 2619   5.318   1.976   1.480
  612SOL    HW1 2620   5.300   2.043   1.408
  612SOL    HW2 2621   5.315   2.022   1.569
  613SOL     OW 2622   5.566   3.629   0.359
  613SOL    HW1 2623   5.620   3.600   0.439
  613SOL    HW2 2624   5.596   3.719   0.330
  614SOL     OW 2625   5.413   2.784   0.612
  614SOL    HW1 2626   5.508   2.755   0.620
  614SOL    HW2 2627   5.405   2.849   0.537
  615SOL     OW 2628   5.118   2.331   1.674
  615SOL    HW1 2629   5.098   2.374   1.762
  615SOL    HW2 2630   5.196   2.269   1.683
  616SOL     OW 2631   4.715   2.272   1.242
  616SOL    HW1 2632   4.638   2.306   1.296
  616SOL    HW2 2633   4.681   2.221   1.163
  617SOL     OW 2634   4.732   3.318   0.477
  617SOL    HW1 2635   4.686   3.390   0.425
  617SOL    HW2 2636   4.728   3.338   0.575
  618SOL     OW 2637   4.951   3.412   1.506
  618SOL    HW1 2638   4.957   3.335   1.570
  618SOL    HW2 2639   4.899   3.386   1.426
  619SOL     OW 2640   4.045   2.805   0.242
  619SOL    HW1 2641   4.127   2.844   0.200
  619SOL    HW2 2642   4.018   2.723   0.193
  620SOL     OW 2643   4.835   3.638   0.237
  620SOL    HW1 2644   4.775   3.576   0.287
  620SOL    HW2 2645   4.866   3.594   0.152
  621SOL     OW 2646   5.124   1.969   0.426
  621SOL    HW1 2647   5.100   1.932   0.336
  621SOL    HW2 2648   5.223   1.985   0.430
  622SOL     OW 2649   3.973   3.647   1.241
  622SOL    HW1 2650   4.030   3.582   1.291
  622SOL    HW2 2651   3.957   3.614   1.148
  623SOL     OW 2652   4.612   3.376   1.195
  623SOL    HW1 2653   4.589   3.351   1.101
  623SOL    HW2 2654   4.673   3.307   1.234
  624SOL     OW 2655   4.646   2.365   0.899
  624SOL    HW1 2656   4.621   2.356   0.803
  624SOL    HW2 2657   4.694   2.283   0.930
  625SOL     OW 2658   5.158   3.050   0.041
  625SOL    HW1 2659   5.190   2.974   0.098
  625SOL    HW2 2660   5.066   3.077   0.071
  626SOL     OW 2661   3.802   2.418   1.386
  626SOL    HW1 2662   3.894   2.417   1.345
  626SOL    HW2 2663   3.796   2.492   1.453
  627SOL     OW 2664   4.212   3.247   0.174
  627SOL    HW1 2665   4.125   3.232   0.221
  627SOL    HW2 2666   4.195   3.273   0.079
  628SOL     OW 2667   4.998   2.248   1.262
  628SOL    HW1 2668   5.019   2.322   1.326
  628SOL    HW2 2669   4.909   2.265   1.219
  629SOL     OW 2670   4.996   3.307   1.142
  629SOL    HW1 2671   5.043   3.320   1.229
  629SOL    HW2 2672   4.930   3.233   1.151
  630SOL     OW 2673   4.126   2.613   1.598
  630SOL    HW1 2674   4.194   2.668   1.551
  630SOL    HW2 2675   4.166   2.525   1.625
  631SOL     OW 2676   4.228   1.912   1.740
  631SOL    HW1 2677   4.186   1.855   1.670
  631SOL    HW2 2678   4.162   1.981   1.772
  632SOL     OW 2679   4.297   2.732   1.029
  632SOL    HW1 2680   4.341   2.821   1.020
  632SOL    HW2 2681   4.234   2.732   1.106
  633SOL     OW 2682   4.747   2.628   0.966
  633SOL    HW1 2683   4.762   2.649   1.062
  633SOL    HW2 2684   4.717   2.533   0.957
  634SOL     OW 2685   5.027   2.700   0.042
  634SOL    HW1 2686   5.061   2.607   0.057
  634SOL    HW2 2687   5.045   2.727  -0.053
  635SOL     OW 2688   4.043   2.672   0.949
  635SOL    HW1 2689   4.136   2.708   0.954
  635SOL    HW2 2690   4.037   2.587   1.001
  636SOL     OW 2691   3.732   3.188   0.200
  636SOL    HW1 2692   3.639   3.209   0.169
  636SOL    HW2 2693   3.742   3.089   0.213
  637SOL     OW 2694   3.987   2.188   0.720
  637SOL    HW1 2695   3.908   2.239   0.686
  637SOL    HW2 2696   3.978   2.173   0.818
  638SOL     OW 2697   3.979   3.210   0.290
  638SOL    HW1 2698   3.883   3.211   0.263
  638SOL    HW2 2699   3.991   3.263   0.374
  639SOL     OW 2700   4.807   2.846   0.087
  639SOL    HW1 2701   4.784   2.899   0.005
  639SOL    HW2 2702   4.888   2.790   0.068
  640SOL     OW 2703   5.429   3.349   1.104
  640SOL    HW1 2704   5.336   3.324   1.077
  640SOL    HW2 2705   5.455   3.299   1.186
  641SOL     OW 2706   4.041   2.409   1.280
  641SOL    HW1 2707   4.079   2.350   1.352
  641SOL    HW2 2708   4.081   2.383   1.192
  642SOL     OW 2709   4.725   1.896   1.154
  642SOL    HW1 2710   4.662   1.824   1.123
  642SOL    HW2 2711   4.818   1.860   1.154
  643SOL     OW 2712   4.293   3.137   3.027
  643SOL    HW1 2713   4.200   3.130   2.990
  643SOL    HW2 2714   4.304   3.226   3.071
  644SOL     OW 2715   5.279   3.373   2.565
  644SOL    HW1 2716   5.222   3.357   2.646
  644SOL    HW2 2717   5.220   3.383   2.485
  645SOL     OW 2718   3.964   2.953   2.748
  645SOL    HW1 2719   3.978   2.869   2.800
  645SOL    HW2 2720   3.909   3.017   2.803
  646SOL     OW 2721   5.318   1.976   3.342
  646SOL    HW1 2722   5.300   2.043   3.270
  646SOL    HW2 2723   5.315   2.022   3.431
  647SOL     OW 2724   3.846   2.505   2.425
  647SOL    HW1 2725   3.801   2.417   2.442
  647SOL    HW2 2726   3.845   2.559   2.509
  648SOL     OW 2727   4.322   2.591   2.132
  648SOL    HW1 2728   4.346   2.660   2.064
  648SOL    HW2 2729   4.244   2.624   2.186
  649SOL     OW 2730   5.356   3.239   1.943
  649SOL    HW1 2731   5.324   3.333   1.933
  649SOL    HW2 2732   5.280   3.176   1.931
  650SOL     OW 2733   3.973   3.647   3.103
  650SOL    HW1 2734   4.030   3.582   3.153
  650SOL    HW2 2735   3.957   3.614   3.010
  651SOL     OW 2736   4.646   2.365   2.761
  651SOL    HW1 2737   4.621   2.356   2.665
  651SOL    HW2 2738   4.694   2.283   2.792
  652SOL     OW 2739   4.800   2.545   3.326
  652SOL    HW1 2740   4.720   2.484   3.329
  652SOL    HW2 2741   4.881   2.492   3.302
  653SOL     OW 2742   5.153   3.035   2.729
  653SOL    HW1 2743   5.098   2.951   2.722
  653SOL    HW2 2744   5.179   3.064   2.637
  654SOL     OW 2745   5.388   3.142   2.519
  654SOL    HW1 2746   5.487   3.150   2.533
  654SOL    HW2 2747   5.343   3.226   2.550
  655SOL     OW 2748   4.228   1.912   3.602
  655SOL    HW1 2749   4.186   1.855   3.532
  655SOL    HW2 2750   4.162   1.981   3.634
  656SOL     OW 2751   5.583   3.380   3.467
  656SOL    HW1 2752   5.597   3.407   3.372
  656SOL    HW2 2753   5.666   3.402   3.520
  657SOL     OW 2754   4.197   2.362   2.053
  657SOL    HW1 2755   4.258   2.442   2.057
  657SOL    HW2 2756   4.102   2.393   2.060
  658SOL     OW 2757   5.450   1.997   2.385
  658SOL    HW1 2758   5.523   1.980   2.318
  658SOL    HW2 2759   5.419   1.910   2.423
  659SOL     OW 2760   4.918   3.474   1.893
  659SOL    HW1 2761   4.924   3.381   1.930
  659SOL    HW2 2762   4.859   3.474   1.813
  660SOL     OW 2763   5.228   3.469   1.906
  660SOL    HW1 2764   5.136   3.506   1.913
  660SOL    HW2 2765   5.266   3.489   1.816
  661SOL     OW 2766   5.174   3.082   3.495
  661SOL    HW1 2767   5.165   3.072   3.594
  661SOL    HW2 2768   5.270   3.075   3.469
  662SOL     OW 2769   4.041   2.409   3.142
  662SOL    HW1 2770   4.079   2.350   3.214
  662SOL    HW2 2771   4.081   2.383   3.054
  663SOL     OW 2772   5.148   2.076   2.974
  663SOL    HW1 2773   5.200   2.011   3.029
  663SOL    HW2 2774   5.099   2.139   3.035
  664SOL     OW 2775   4.342   3.429   3.146
  664SOL    HW1 2776   4.337   3.511   3.203
  664SOL    HW2 2777   4.431   3.426   3.101
  665SOL     OW 2778   3.837   2.599   5.321
  665SOL    HW1 2779   3.925   2.586   5.366
  665SOL    HW2 2780   3.824   2.696   5.299
  666SOL     OW 2781   5.005   2.207   4.668
  666SOL    HW1 2782   4.919   2.157   4.655
  666SOL    HW2 2783   5.067   2.153   4.724
  667SOL     OW 2784   4.589   2.210   3.919
  667SOL    HW1 2785   4.648   2.273   3.870
  667SOL    HW2 2786   4.608   2.116   3.890
  668SOL     OW 2787   3.926   2.147   5.222
  668SOL    HW1 2788   3.846   2.207   5.209
  668SOL    HW2 2789   3.916   2.098   5.308
  669SOL     OW 2790   4.612   3.376   4.919
  669SOL    HW1 2791   4.589   3.351   4.825
  669SOL    HW2 2792   4.673   3.307   4.958
  670SOL     OW 2793   4.212   3.247   3.898
  670SOL    HW1 2794   4.125   3.232   3.945
  670SOL    HW2 2795   4.195   3.273   3.803
  671SOL     OW 2796   4.429   2.912   4.092
  671SOL    HW1 2797   4.415   2.919   4.191
  671SOL    HW2 2798   4.513   2.861   4.074
  672SOL     OW 2799   4.998   2.248   4.986
  672SOL    HW1 2800   5.019   2.322   5.050
  672SOL    HW2 2801   4.909   2.265   4.943
  673SOL     OW 2802   4.290   2.399   4.589
  673SOL    HW1 2803   4.302   2.465   4.515
  673SOL    HW2 2804   4.336   2.433   4.672
  674SOL     OW 2805   4.126   2.613   5.322
  674SOL    HW1 2806   4.194   2.668   5.275
  674SOL    HW2 2807   4.166   2.525   5.349
  675SOL     OW 2808   4.031   2.075   4.955
  675SOL    HW1 2809   4.008   2.112   5.045
  675SOL    HW2 2810   4.001   1.980   4.949
  676SOL     OW 2811   5.027   2.700   3.766
  676SOL    HW1 2812   5.061   2.607   3.781
  676SOL    HW2 2813   5.045   2.727   3.671
  677SOL     OW 2814   4.792   3.195   4.573
  677SOL    HW1 2815   4.799   3.111   4.518
  677SOL    HW2 2816   4.854   3.264   4.537
  678SOL     OW 2817   4.862   2.242   5.402
  678SOL    HW1 2818   4.817   2.305   5.466
  678SOL    HW2 2819   4.955   2.273   5.385
  679SOL     OW 2820   4.228   3.430   4.634
  679SOL    HW1 2821   4.294   3.504   4.643
  679SOL    HW2 2822   4.272   3.351   4.592
  680SOL     OW 2823   4.654   3.540   5.189
  680SOL    HW1 2824   4.630   3.522   5.094
  680SOL    HW2 2825   4.684   3.634   5.199
  681SOL     OW 2826   5.374   3.582   5.118
  681SOL    HW1 2827   5.427   3.592   5.034
  681SOL    HW2 2828   5.347   3.672   5.152
  682SOL     OW 2829   4.546   2.864   5.096
  682SOL    HW1 2830   4.586   2.863   5.004
  682SOL    HW2 2831   4.556   2.956   5.136
  683SOL     OW 2832   5.027   2.700   5.628
  683SOL    HW1 2833   5.061   2.607   5.643
  683SOL    HW2 2834   5.045   2.727   5.533
  684SOL     OW 2835   4.396   3.478   5.740
  684SOL    HW1 2836   4.405   3.488   5.641
  684SOL    HW2 2837   4.356   3.389   5.761
  685SOL     OW 2838   3.743   4.092   0.647
  685SOL    HW1 2839   3.661   4.135   0.686
  685SOL    HW2 2840   3.715   4.019   0.584
  686SOL     OW 2841   4.859   4.427   0.717
  686SOL    HW1 2842   4.916   4.505   0.692
  686SOL    HW2 2843   4.799   4.453   0.793
  687SOL     OW 2844   5.327   4.171   0.737
  687SOL    HW1 2845   5.253   4.217   0.687
  687SOL    HW2 2846   5.378   4.239   0.790
  688SOL     OW 2847   3.955   5.437   0.483
  688SOL    HW1 2848   3.989   5.514   0.537
  688SOL    HW2 2849   3.999   5.437   0.393
  689SOL     OW 2850   5.413   4.646   0.612
  689SOL    HW1 2851   5.508   4.617   0.620
  689SOL    HW2 2852   5.405   4.711   0.537
  690SOL     OW 2853   3.837   4.461   1.597
  690SOL    HW1 2854   3.925   4.448   1.642
  690SOL    HW2 2855   3.824   4.558   1.575
  691SOL     OW 2856   5.017   4.952   1.423
  691SOL    HW1 2857   5.054   4.879   1.365
  691SOL    HW2 2858   5.069   4.957   1.508
  692SOL     OW 2859   5.118   4.193   1.674
  692SOL    HW1 2860   5.098   4.236   1.762
  692SOL    HW2 2861   5.196   4.131   1.683
  693SOL     OW 2862   3.800   4.535   0.789
  693SOL    HW1 2863   3.899   4.523   0.798
  693SOL    HW2 2864   3.776   4.630   0.810
  694SOL     OW 2865   4.274   3.920   0.885
  694SOL    HW1 2866   4.269   3.915   0.985
  694SOL    HW2 2867   4.276   4.016   0.856
  695SOL     OW 2868   4.951   5.274   1.506
  695SOL    HW1 2869   4.957   5.197   1.570
  695SOL    HW2 2870   4.899   5.248   1.426
  696SOL     OW 2871   4.835   5.500   0.237
  696SOL    HW1 2872   4.775   5.438   0.287
  696SOL    HW2 2873   4.866   5.456   0.152
  697SOL     OW 2874   3.926   4.009   1.498
  697SOL    HW1 2875   3.846   4.069   1.485
  697SOL    HW2 2876   3.916   3.960   1.584
  698SOL     OW 2877   5.356   5.101   0.081
  698SOL    HW1 2878   5.324   5.195   0.071
  698SOL    HW2 2879   5.280   5.038   0.069
  699SOL     OW 2880   3.973   5.509   1.241
  699SOL    HW1 2881   4.030   5.444   1.291
  699SOL    HW2 2882   3.957   5.476   1.148
  700SOL     OW 2883   4.338   3.846   0.117
  700SOL    HW1 2884   4.436   3.824   0.124
  700SOL    HW2 2885   4.307   3.829   0.024
  701SOL     OW 2886   4.646   4.227   0.899
  701SOL    HW1 2887   4.621   4.218   0.803
  701SOL    HW2 2888   4.694   4.145   0.930
  702SOL     OW 2889   4.263   3.788   0.512
  702SOL    HW1 2890   4.182   3.789   0.570
  702SOL    HW2 2891   4.266   3.871   0.457
  703SOL     OW 2892   4.800   4.407   1.464
  703SOL    HW1 2893   4.720   4.346   1.467
  703SOL    HW2 2894   4.881   4.354   1.440
  704SOL     OW 2895   5.316   5.353   1.625
  704SOL    HW1 2896   5.343   5.387   1.535
  704SOL    HW2 2897   5.395   5.315   1.671
  705SOL     OW 2898   5.362   4.823   1.079
  705SOL    HW1 2899   5.367   4.904   1.138
  705SOL    HW2 2900   5.276   4.825   1.028
  706SOL     OW 2901   4.704   4.840   1.719
  706SOL    HW1 2902   4.605   4.846   1.729
  706SOL    HW2 2903   4.727   4.760   1.663
  707SOL     OW 2904   4.290   4.261   0.865
  707SOL    HW1 2905   4.302   4.327   0.791
  707SOL    HW2 2906   4.336   4.295   0.948
  708SOL     OW 2907   4.976   5.072   0.388
  708SOL    HW1 2908   5.026   5.149   0.428
  708SOL    HW2 2909   4.881   5.074   0.420
  709SOL     OW 2910   4.078   5.234   1.329
  709SOL    HW1 2911   4.057   5.190   1.242
  709SOL    HW2 2912   4.175   5.260   1.332
  710SOL     OW 2913   5.084   4.586   1.045
  710SOL    HW1 2914   5.009   4.586   0.979
  710SOL    HW2 2915   5.121   4.494   1.054
  711SOL     OW 2916   4.063   4.233   1.006
  711SOL    HW1 2917   4.011   4.150   0.989
  711SOL    HW2 2918   4.140   4.238   0.942
  712SOL     OW 2919   3.913   4.244   1.722
  712SOL    HW1 2920   3.972   4.204   1.652
  712SOL    HW2 2921   3.855   4.315   1.681
  713SOL     OW 2922   4.976   5.455   1.128
  713SOL    HW1 2923   5.060   5.460   1.074
  713SOL    HW2 2924   4.953   5.359   1.146
  714SOL     OW 2925   5.228   5.331   0.044
  714SOL    HW1 2926   5.136   5.368   0.051
  714SOL    HW2 2927   5.266   5.351  -0.046
  715SOL     OW 2928   4.763   4.822   0.696
  715SOL    HW1 2929   4.693   4.775   0.750
  715SOL    HW2 2930   4.822   4.754   0.653
  716SOL     OW 2931   4.738   3.960   0.971
  716SOL    HW1 2932   4.730   3.924   0.878
  716SOL    HW2 2933   4.736   3.884   1.036
  717SOL     OW 2934   3.979   5.072   0.290
  717SOL    HW1 2935   3.883   5.073   0.263
  717SOL    HW2 2936   3.991   5.125   0.374
  718SOL     OW 2937   3.799   4.069   0.033
  718SOL    HW1 2938   3.707   4.041   0.004
  718SOL    HW2 2939   3.830   4.146  -0.023
  719SOL     OW 2940   4.907   5.059   0.119
  719SOL    HW1 2941   4.808   5.048   0.121
  719SOL    HW2 2942   4.941   5.074   0.212
  720SOL     OW 2943   3.945   5.038   1.844
  720SOL    HW1 2944   3.880   4.965   1.823
  720SOL    HW2 2945   3.949   5.052   1.942
  721SOL     OW 2946   4.152   4.148   0.520
  721SOL    HW1 2947   4.182   4.076   0.458
  721SOL    HW2 2948   4.113   4.108   0.603
  722SOL     OW 2949   5.317   3.945   0.882
  722SOL    HW1 2950   5.233   3.944   0.936
  722SOL    HW2 2951   5.319   4.028   0.826
  723SOL     OW 2952   5.365   4.832   2.294
  723SOL    HW1 2953   5.451   4.834   2.242
  723SOL    HW2 2954   5.379   4.879   2.382
  724SOL     OW 2955   4.337   5.089   2.588
  724SOL    HW1 2956   4.288   5.002   2.597
  724SOL    HW2 2957   4.314   5.132   2.501
  725SOL     OW 2958   4.041   3.975   3.663
  725SOL    HW1 2959   4.112   4.046   3.669
  725SOL    HW2 2960   3.953   4.014   3.691
  726SOL     OW 2961   5.190   5.141   2.815
  726SOL    HW1 2962   5.131   5.147   2.895
  726SOL    HW2 2963   5.175   5.053   2.769
  727SOL     OW 2964   4.322   4.453   2.132
  727SOL    HW1 2965   4.346   4.522   2.064
  727SOL    HW2 2966   4.244   4.486   2.186
  728SOL     OW 2967   4.531   4.329   3.327
  728SOL    HW1 2968   4.484   4.326   3.416
  728SOL    HW2 2969   4.480   4.274   3.261
  729SOL     OW 2970   4.697   4.614   3.434
  729SOL    HW1 2971   4.743   4.530   3.405
  729SOL    HW2 2972   4.641   4.648   3.359
  730SOL     OW 2973   4.715   4.134   3.104
  730SOL    HW1 2974   4.638   4.168   3.158
  730SOL    HW2 2975   4.681   4.083   3.025
  731SOL     OW 2976   4.765   4.425   2.291
  731SOL    HW1 2977   4.791   4.421   2.387
  731SOL    HW2 2978   4.680   4.374   2.277
  732SOL     OW 2979   5.443   4.309   3.693
  732SOL    HW1 2980   5.417   4.398   3.657
  732SOL    HW2 2981   5.441   4.241   3.620
  733SOL     OW 2982   3.926   4.009   3.360
  733SOL    HW1 2983   3.846   4.069   3.347
  733SOL    HW2 2984   3.916   3.960   3.446
  734SOL     OW 2985   4.505   3.988   3.611
  734SOL    HW1 2986   4.572   3.927   3.654
  734SOL    HW2 2987   4.432   4.007   3.676
  735SOL     OW 2988   4.612   5.238   3.057
  735SOL    HW1 2989   4.589   5.213   2.963
  735SOL    HW2 2990   4.673   5.169   3.096
  736SOL     OW 2991   5.158   4.912   1.903
  736SOL    HW1 2992   5.190   4.836   1.960
  736SOL    HW2 2993   5.066   4.939   1.933
  737SOL     OW 2994   5.316   5.353   3.487
  737SOL    HW1 2995   5.343   5.387   3.397
  737SOL    HW2 2996   5.395   5.315   3.533
  738SOL     OW 2997   4.228   3.774   3.602
  738SOL    HW1 2998   4.186   3.717   3.532
  738SOL    HW2 2999   4.162   3.843   3.634
  739SOL     OW 3000   4.862   4.104   3.540
  739SOL    HW1 3001   4.817   4.167   3.604
  739SOL    HW2 3002   4.955   4.135   3.523
  740SOL     OW 3003   4.228   5.292   2.772
  740SOL    HW1 3004   4.294   5.366   2.781
  740SOL    HW2 3005   4.272   5.213   2.730
  741SOL     OW 3006   5.374   5.444   3.256
  741SOL    HW1 3007   5.427   5.454   3.172
  741SOL    HW2 3008   5.347   5.534   3.290
  742SOL     OW 3009   4.546   4.726   3.234
  742SOL    HW1 3010   4.586   4.725   3.142
  742SOL    HW2 3011   4.556   4.818   3.274
  743SOL     OW 3012   4.152   4.148   2.382
  743SOL    HW1 3013   4.182   4.076   2.320
  743SOL    HW2 3014   4.113   4.108   2.465
  744SOL     OW 3015   5.429   5.211   2.966
  744SOL    HW1 3016   5.336   5.186   2.939
  744SOL    HW2 3017   5.455   5.161   3.048
  745SOL     OW 3018   4.494   5.054   2.163
  745SOL    HW1 3019   4.448   4.967   2.180
  745SOL    HW2 3020   4.585   5.051   2.204
  746SOL     OW 3021   4.599   5.370   2.199
  746SOL    HW1 3022   4.522   5.335   2.145
  746SOL    HW2 3023   4.567   5.441   2.261
  747SOL     OW 3024   3.954   4.352   3.837
  747SOL    HW1 3025   3.861   4.350   3.874
  747SOL    HW2 3026   3.955   4.313   3.745
  748SOL     OW 3027   5.279   5.235   4.427
  748SOL    HW1 3028   5.222   5.219   4.508
  748SOL    HW2 3029   5.220   5.245   4.347
  749SOL     OW 3030   4.409   4.736   4.389
  749SOL    HW1 3031   4.478   4.720   4.459
  749SOL    HW2 3032   4.336   4.793   4.427
  750SOL     OW 3033   5.184   5.229   5.063
  750SOL    HW1 3034   5.208   5.323   5.089
  750SOL    HW2 3035   5.168   5.175   5.145
  751SOL     OW 3036   3.955   5.437   4.207
  751SOL    HW1 3037   3.989   5.514   4.261
  751SOL    HW2 3038   3.999   5.437   4.117
  752SOL     OW 3039   3.846   4.367   4.287
  752SOL    HW1 3040   3.801   4.279   4.304
  752SOL    HW2 3041   3.845   4.421   4.371
  753SOL     OW 3042   3.837   4.461   5.321
  753SOL    HW1 3043   3.925   4.448   5.366
  753SOL    HW2 3044   3.824   4.558   5.299
  754SOL     OW 3045   4.337   5.089   4.450
  754SOL    HW1 3046   4.288   5.002   4.459
  754SOL    HW2 3047   4.314   5.132   4.363
  755SOL     OW 3048   5.249   4.723   3.914
  755SOL    HW1 3049   5.186   4.647   3.927
  755SOL    HW2 3050   5.297   4.741   4.000
  756SOL     OW 3051   4.715   4.134   4.966
  756SOL    HW1 3052   4.638   4.168   5.020
  756SOL    HW2 3053   4.681   4.083   4.887
  757SOL     OW 3054   4.185   4.990   5.451
  757SOL    HW1 3055   4.135   4.991   5.365
  757SOL    HW2 3056   4.122   4.972   5.527
  758SOL     OW 3057   4.021   3.759   3.895
  758SOL    HW1 3058   4.070   3.843   3.874
  758SOL    HW2 3059   4.083   3.694   3.940
  759SOL     OW 3060   5.114   4.299   3.802
  759SOL    HW1 3061   5.060   4.278   3.883
  759SOL    HW2 3062   5.205   4.258   3.811
  760SOL     OW 3063   4.639   3.813   5.126
  760SOL    HW1 3064   4.664   3.793   5.031
  760SOL    HW2 3065   4.711   3.869   5.168
  761SOL     OW 3066   4.998   4.110   4.986
  761SOL    HW1 3067   5.019   4.184   5.050
  761SOL    HW2 3068   4.909   4.127   4.943
  762SOL     OW 3069   4.290   4.261   4.589
  762SOL    HW1 3070   4.302   4.327   4.515
  762SOL    HW2 3071   4.336   4.295   4.672
  763SOL     OW 3072   4.228   3.774   5.464
  763SOL    HW1 3073   4.186   3.717   5.394
  763SOL    HW2 3074   4.162   3.843   5.496
  764SOL     OW 3075   3.761   5.034   5.006
  764SOL    HW1 3076   3.814   4.985   5.074
  764SOL    HW2 3077   3.783   5.132   5.011
  765SOL     OW 3078   4.063   4.233   4.730
  765SOL    HW1 3079   4.011   4.150   4.713
  765SOL    HW2 3080   4.140   4.238   4.666
  766SOL     OW 3081   3.812   5.525   4.651
  766SOL    HW1 3082   3.770   5.439   4.624
  766SOL    HW2 3083   3.906   5.528   4.617
  767SOL     OW 3084   4.395   4.188   4.993
  767SOL    HW1 3085   4.361   4.099   4.963
  767SOL    HW2 3086   4.421   4.242   4.913
  768SOL     OW 3087   5.450   3.859   4.247
  768SOL    HW1 3088   5.523   3.842   4.180
  768SOL    HW2 3089   5.419   3.772   4.285
  769SOL     OW 3090   4.536   5.310   4.411
  769SOL    HW1 3091   4.568   5.320   4.317
  769SOL    HW2 3092   4.457   5.248   4.413
  770SOL     OW 3093   4.835   5.500   5.823
  770SOL    HW1 3094   4.775   5.438   5.873
  770SOL    HW2 3095   4.866   5.456   5.738
  771SOL     OW 3096   5.228   5.331   5.630
  771SOL    HW1 3097   5.136   5.368   5.637
  771SOL    HW2 3098   5.266   5.351   5.540
  772SOL     OW 3099   3.763   4.801   5.886
  772SOL    HW1 3100   3.862   4.790   5.877
  772SOL    HW2 3101   3.723   4.715   5.918
  773SOL     OW 3102   3.949   5.861   0.996
  773SOL    HW1 3103   3.984   5.844   1.088
  773SOL    HW2 3104   3.861   5.816   0.984
  774SOL     OW 3105   4.533   5.590   0.502
  774SOL    HW1 3106   4.573   5.681   0.493
  774SOL    HW2 3107   4.433   5.598   0.508
  775SOL     OW 3108   4.741   5.625   0.753
  775SOL    HW1 3109   4.669   5.630   0.684
  775SOL    HW2 3110   4.717   5.556   0.822
  776SOL     OW 3111   5.450   5.721   0.523
  776SOL    HW1 3112   5.523   5.704   0.456
  776SOL    HW2 3113   5.419   5.634   0.561
  777SOL     OW 3114   3.743   5.954   2.509
  777SOL    HW1 3115   3.661   5.997   2.548
  777SOL    HW2 3116   3.715   5.881   2.446
  778SOL     OW 3117   5.124   5.693   2.288
  778SOL    HW1 3118   5.100   5.656   2.198
  778SOL    HW2 3119   5.223   5.709   2.292
  779SOL     OW 3120   5.271   5.808   3.591
  779SOL    HW1 3121   5.266   5.845   3.683
  779SOL    HW2 3122   5.199   5.739   3.579
  780SOL     OW 3123   4.031   5.649   2.480
  780SOL    HW1 3124   4.020   5.743   2.513
  780SOL    HW2 3125   4.026   5.586   2.557
  781SOL     OW 3126   4.627   5.672   1.995
  781SOL    HW1 3127   4.678   5.673   1.909
  781SOL    HW2 3128   4.683   5.630   2.066
  782SOL     OW 3129   5.450   5.721   2.385
  782SOL    HW1 3130   5.523   5.704   2.318
  782SOL    HW2 3131   5.419   5.634   2.423
  783SOL     OW 3132   3.949   5.861   4.720
  783SOL    HW1 3133   3.984   5.844   4.812
  783SOL    HW2 3134   3.861   5.816   4.708
  784SOL     OW 3135   3.743   5.954   4.371
  784SOL    HW1 3136   3.661   5.997   4.410
  784SOL    HW2 3137   3.715   5.881   4.308
  785SOL     OW 3138   4.274   5.782   4.609
  785SOL    HW1 3139   4.269   5.777   4.709
  785SOL    HW2 3140   4.276   5.878   4.580
  786SOL     OW 3141   5.124   5.693   4.150
  786SOL    HW1 3142   5.100   5.656   4.060
  786SOL    HW2 3143   5.223   5.709   4.154
  787SOL     OW 3144   4.338   5.708   3.841
  787SOL    HW1 3145   4.436   5.686   3.848
  787SOL    HW2 3146   4.307   5.691   3.748
  788SOL     OW 3147   4.021   5.621   3.895
  788SOL    HW1 3148   4.070   5.705   3.874
  788SOL    HW2 3149   4.083   5.556   3.940
  789SOL     OW 3150   4.998   5.972   4.986
  789SOL    HW1 3151   5.019   6.046   5.050
  789SOL    HW2 3152   4.909   5.989   4.943
  790SOL     OW 3153   4.031   5.799   4.955
  790SOL    HW1 3154   4.008   5.836   5.045
  790SOL    HW2 3155   4.001   5.704   4.949
  791SOL     OW 3156   3.799   5.931   5.619
  791SOL    HW1 3157   3.707   5.903   5.590
  791SOL    HW2 3158   3.830   6.008   5.563
  792SOL     OW 3159   5.921   1.435   1.061
  792SOL    HW1 3160   5.843   1.404   1.008
  792SOL    HW2 3161   5.979   1.493   1.004
  793SOL     OW 3162   5.613   1.596   0.117
  793SOL    HW1 3163   5.594   1.500   0.138
  793SOL    HW2 3164   5.580   1.654   0.192
  794SOL     OW 3165   5.699   0.737   1.597
  794SOL    HW1 3166   5.787   0.724   1.642
  794SOL    HW2 3167   5.686   0.834   1.575
  795SOL     OW 3168   5.664   0.556   1.386
  795SOL    HW1 3169   5.756   0.555   1.345
  795SOL    HW2 3170   5.658   0.630   1.453
  796SOL     OW 3171   5.650   1.564   1.331
  796SOL    HW1 3172   5.604   1.646   1.297
  796SOL    HW2 3173   5.748   1.583   1.340
  797SOL     OW 3174   5.623   1.310   1.282
  797SOL    HW1 3175   5.676   1.261   1.350
  797SOL    HW2 3176   5.645   1.408   1.287
  798SOL     OW 3177   5.745   1.137   1.466
  798SOL    HW1 3178   5.767   1.076   1.542
  798SOL    HW2 3179   5.755   1.088   1.380
  799SOL     OW 3180   5.658   0.166   0.318
  799SOL    HW1 3181   5.641   0.249   0.264
  799SOL    HW2 3182   5.748   0.129   0.296
  800SOL     OW 3183   5.625   1.077   0.300
  800SOL    HW1 3184   5.724   1.066   0.291
  800SOL    HW2 3185   5.585   0.991   0.332
  801SOL     OW 3186   5.816   0.628   1.975
  801SOL    HW1 3187   5.723   0.626   2.012
  801SOL    HW2 3188   5.817   0.589   1.883
  802SOL     OW 3189   5.816   1.434   2.400
  802SOL    HW1 3190   5.790   1.530   2.400
  802SOL    HW2 3191   5.745   1.380   2.445
  803SOL     OW 3192   5.811   0.275   4.720
  803SOL    HW1 3193   5.846   0.258   4.812
  803SOL    HW2 3194   5.723   0.230   4.708
  804SOL     OW 3195   5.817   1.713   4.207
  804SOL    HW1 3196   5.851   1.790   4.261
  804SOL    HW2 3197   5.861   1.713   4.117
  805SOL     OW 3198   5.716   1.821   5.295
  805SOL    HW1 3199   5.706   1.806   5.394
  805SOL    HW2 3200   5.630   1.857   5.259
  806SOL     OW 3201   5.664   0.556   5.110
  806SOL    HW1 3202   5.756   0.555   5.069
  806SOL    HW2 3203   5.658   0.630   5.177
  807SOL     OW 3204   6.090   1.568   4.634
  807SOL    HW1 3205   6.156   1.642   4.643
  807SOL    HW2 3206   6.134   1.489   4.592
  808SOL     OW 3207   5.669   1.258   4.746
  808SOL    HW1 3208   5.664   1.257   4.846
  808SOL    HW2 3209   5.586   1.217   4.708
  809SOL     OW 3210   5.665   1.240   4.377
  809SOL    HW1 3211   5.664   1.193   4.465
  809SOL    HW2 3212   5.747   1.212   4.326
  810SOL     OW 3213   5.816   0.628   5.699
  810SOL    HW1 3214   5.723   0.626   5.736
  810SOL    HW2 3215   5.817   0.589   5.607
  811SOL     OW 3216   5.699   2.599   1.597
  811SOL    HW1 3217   5.787   2.586   1.642
  811SOL    HW2 3218   5.686   2.696   1.575
  812SOL     OW 3219   5.883   1.897   0.171
  812SOL    HW1 3220   5.932   1.981   0.150
  812SOL    HW2 3221   5.945   1.832   0.216
  813SOL     OW 3222   5.650   3.426   1.331
  813SOL    HW1 3223   5.604   3.508   1.297
  813SOL    HW2 3224   5.748   3.445   1.340
  814SOL     OW 3225   5.953   2.962   0.501
  814SOL    HW1 3226   5.946   3.045   0.445
  814SOL    HW2 3227   5.957   2.882   0.441
  815SOL     OW 3228   5.816   3.296   2.400
  815SOL    HW1 3229   5.790   3.392   2.400
  815SOL    HW2 3230   5.745   3.242   2.445
  816SOL     OW 3231   5.662   2.673   2.651
  816SOL    HW1 3232   5.761   2.661   2.660
  816SOL    HW2 3233   5.638   2.768   2.672
  817SOL     OW 3234   5.665   3.102   2.515
  817SOL    HW1 3235   5.664   3.055   2.603
  817SOL    HW2 3236   5.747   3.074   2.464
  818SOL     OW 3237   5.811   2.137   4.720
  818SOL    HW1 3238   5.846   2.120   4.812
  818SOL    HW2 3239   5.723   2.092   4.708
  819SOL     OW 3240   5.699   2.599   5.321
  819SOL    HW1 3241   5.787   2.586   5.366
  819SOL    HW2 3242   5.686   2.696   5.299
  820SOL     OW 3243   5.838   3.426   5.468
  820SOL    HW1 3244   5.808   3.483   5.544
  820SOL    HW2 3245   5.831   3.329   5.494
  821SOL     OW 3246   5.669   3.120   4.746
  821SOL    HW1 3247   5.664   3.119   4.846
  821SOL    HW2 3248   5.586   3.079   4.708
  822SOL     OW 3249   5.716   3.656   5.575
  822SOL    HW1 3250   5.675   3.582   5.628
  822SOL    HW2 3251   5.780   3.707   5.633
  823SOL     OW 3252   5.708   4.367   0.563
  823SOL    HW1 3253   5.663   4.279   0.580
  823SOL    HW2 3254   5.707   4.421   0.647
  824SOL     OW 3255   5.716   5.545   3.433
  824SOL    HW1 3256   5.706   5.530   3.532
  824SOL    HW2 3257   5.630   5.581   3.397
  825SOL     OW 3258   5.661   4.069   1.895
  825SOL    HW1 3259   5.569   4.041   1.866
  825SOL    HW2 3260   5.692   4.146   1.839
  826SOL     OW 3261   5.664   4.280   5.110
  826SOL    HW1 3262   5.756   4.279   5.069
  826SOL    HW2 3263   5.658   4.354   5.177
  827SOL     OW 3264   5.623   5.034   5.006
  827SOL    HW1 3265   5.676   4.985   5.074
  827SOL    HW2 3266   5.645   5.132   5.011
  828SOL     OW 3267   5.665   4.964   4.377
  828SOL    HW1 3268   5.664   4.917   4.465
  828SOL    HW2 3269   5.747   4.936   4.326
  829SOL     OW 3270   5.625   4.801   4.024
  829SOL    HW1 3271   5.724   4.790   4.015
  829SOL    HW2 3272   5.585   4.715   4.056
  830SOL     OW 3273   6.113   3.980   5.914
  830SOL    HW1 3274   6.140   3.921   5.839
  830SOL    HW2 3275   6.113   4.075   5.883
  831SOL     OW 3276   5.605   5.954   2.509
  831SOL    HW1 3277   5.523   5.997   2.548
  831SOL    HW2 3278   5.577   5.881   2.446
  832SOL     OW 3279   5.788   5.871   3.360
  832SOL    HW1 3280   5.708   5.931   3.347
  832SOL    HW2 3281   5.778   5.822   3.446
  833SOL     OW 3282   5.605   5.954   4.371
  833SOL    HW1 3283   5.523   5.997   4.410
  833SOL    HW2 3284   5.577   5.881   4.308
  834SOL     OW 3285   5.658   5.752   4.042
  834SOL    HW1 3286   5.641   5.835   3.988
  834SOL    HW2 3287   5.748   5.715   4.020
  835NA      NA 3288   0.865   0.348   0.195
  836NA      NA 3289   0.321   0.943   0.242
  837NA      NA 3290   1.622   0.367   0.374
  838NA      NA 3291   1.824   0.192   1.227
  839NA      NA 3292   0.686   1.161   3.665
  840NA      NA 3293   0.935   0.236   2.342
  841NA      NA 3294   1.587   0.779   3.532
  842NA      NA 3295   0.307   0.063   2.480
  843NA      NA 3296   0.671   0.464   3.131
  844NA      NA 3297   0.240   1.091   4.610
  845NA      NA 3298   0.809   0.004   4.226
  846NA      NA 3299   0.973   0.890   5.296
  847NA      NA 3300   1.759   1.747   4.878
  848NA      NA 3301   0.686   3.023   1.803
  849NA      NA 3302   1.842   3.629   0.359
  850NA      NA 3303   1.466   3.279   0.953
  851NA      NA 3304   0.807   2.467   1.465
  852NA      NA 3305   1.466   2.452   0.992
  853NA      NA 3306   0.307   1.925   0.618
  854NA      NA 3307   1.726   1.997   0.523
  855NA      NA 3308   0.859   3.236   0.016
  856NA      NA 3309   0.613   3.227   2.588
  857NA      NA 3310   1.272   3.307   3.004
  858NA      NA 3311   0.940   3.560   4.628
  859NA      NA 3312   0.539   1.926   4.236
  860NA      NA 3313   1.777   2.204   5.366
  861NA      NA 3314   0.039   2.939   4.024
  862NA      NA 3315   0.027   3.458   5.703
  863NA      NA 3316   0.321   2.805   5.828
  864NA      NA 3317   1.582   2.501   6.058
  865NA      NA 3318   1.008   5.180   0.477
  866NA      NA 3319   1.064   5.071   1.340
  867NA      NA 3320   1.032   4.273   1.878
  868NA      NA 3321   0.317   4.271   3.142
  869NA      NA 3322   1.127   5.065   5.414
  870NA      NA 3323   0.230   5.158   4.262
  871NA      NA 3324   1.008   5.180   4.201
  872NA      NA 3325   1.777   4.066   5.366
  873NA      NA 3326   0.008   5.050   5.786
  874NA      NA 3327   1.726   5.721   4.247
  875NA      NA 3328   0.075   5.931   3.757
  876NA      NA 3329   1.424   5.800   4.836
  877NA      NA 3330   2.181   0.810   0.949
  878NA      NA 3331   1.870   1.326   0.200
  879NA      NA 3332   1.881   0.368   2.509
  880NA      NA 3333   3.503   1.108   2.294
  881NA      NA 3334   2.272   0.813   3.113
  882NA      NA 3335   2.677   0.572   2.187
  883NA      NA 3336   3.588   0.135   2.385
  884NA      NA 3337   2.876   0.236   2.833
  885NA      NA 3338   2.671   0.004   4.226
  886NA      NA 3339   3.224   1.144   4.269
  887NA      NA 3340   3.214   0.052   3.892
  888NA      NA 3341   1.937   0.345   5.619
  889NA      NA 3342   3.071   2.387   0.275
  890NA      NA 3343   1.926   3.426   5.055
  891NA      NA 3344   1.870   3.188   5.786
  892NA      NA 3345   1.975   4.461   1.597
  893NA      NA 3346   3.567   5.211   1.104
  894NA      NA 3347   3.049   5.516   3.478
  895NA      NA 3348   2.594   4.358   2.926
  896NA      NA 3349   2.111   5.509   4.965
  897NA      NA 3350   3.526   5.004   4.381
  898NA      NA 3351   2.864   4.520   4.962
  899NA      NA 3352   2.412   5.782   0.885
  900NA      NA 3353   3.913   0.520   1.722
  901NA      NA 3354   4.412   1.662   1.716
  902NA      NA 3355   5.182   0.735   2.590
  903NA      NA 3356   4.664   1.698   2.766
  904NA      NA 3357   4.096   1.288   3.352
  905NA      NA 3358   3.964   1.091   4.610
  906NA      NA 3359   3.976   1.564   5.468
  907NA      NA 3360   5.565   0.175   4.687
  908NA      NA 3361   3.979   1.348   4.014
  909NA      NA 3362   4.412   3.524   1.716
  910NA      NA 3363   5.338   3.154   1.289
  911NA      NA 3364   5.024   2.315   0.691
  912NA      NA 3365   4.792   3.195   2.711
  913NA      NA 3366   5.118   2.331   5.398
  914NA      NA 3367   3.976   3.426   5.468
  915NA      NA 3368   5.398   2.745   4.978
  916NA      NA 3369   4.835   3.638   5.823
  917NA      NA 3370   5.300   5.386   0.307
  918NA      NA 3371   4.251   3.980   0.328
  919NA      NA 3372   4.884   3.931   1.477
  920NA      NA 3373   3.829   4.737   1.726
  921NA      NA 3374   5.478   4.947   3.450
  922NA      NA 3375   4.162   4.116   5.223
  923NA      NA 3376   3.854   5.545   5.295
  924NA      NA 3377   4.640   4.634   4.015
  925NA      NA 3378   5.429   5.211   4.828
  926NA      NA 3379   4.251   5.842   2.190
  927NA      NA 3380   4.627   5.672   3.857
  928NA      NA 3381   5.775   0.520   1.722
  929NA      NA 3382   5.838   1.564   3.606
  930NA      NA 3383   5.605   4.092   0.647
  931NA      NA 3384   5.883   3.759   2.033
  932NA      NA 3385   5.883   5.621   2.033
  933CL      CL 3386   1.394   0.469   1.674
  934CL      CL 3387   0.504   0.050   1.740
  935CL      CL 3388   0.688   1.662   1.716
  936CL      CL 3389   1.039   1.098   0.696
  937CL      CL 3390   0.613   0.842   1.431
  938CL      CL 3391   0.231   1.713   2.345
  939CL      CL 3392   0.240   1.091   2.748
  940CL      CL 3393   1.227   1.550   3.368
  941CL      CL 3394   0.231   3.575   0.483
  942CL      CL 3395   0.866   2.316   0.642
  943CL      CL 3396   0.618   3.429   1.284
  944CL      CL 3397   0.807   2.467   3.327
  945CL      CL 3398   0.473   2.362   2.053
  946CL      CL 3399   1.013   1.967   5.494
  947CL      CL 3400   1.622   2.229   4.098
  948CL      CL 3401   1.303   2.700   3.766
  949CL      CL 3402   1.194   3.474   3.755
  950CL      CL 3403   1.667   5.438   0.572
  951CL      CL 3404   0.991   4.134   1.242
  952CL      CL 3405   0.367   4.824   0.501
  953CL      CL 3406   0.402   4.475   1.598
  954CL      CL 3407   1.225   4.049   0.449
  955CL      CL 3408   1.362   4.868   2.407
  956CL      CL 3409   0.930   5.402   3.327
  957CL      CL 3410   1.450   4.944   3.495
  958CL      CL 3411   1.300   4.177   2.553
  959CL      CL 3412   0.606   4.688   3.847
  960CL      CL 3413   0.402   4.475   5.322
  961CL      CL 3414   1.674   4.607   4.978
  962CL      CL 3415   3.438   1.662   0.307
  963CL      CL 3416   2.973   1.195   1.100
  964CL      CL 3417   2.875   0.105   1.770
  965CL      CL 3418   3.231   0.950   1.660
  966CL      CL 3419   2.179   0.251   3.663
  967CL      CL 3420   3.581   0.585   3.693
  968CL      CL 3421   3.089   1.550   5.230
  969CL      CL 3422   3.590   0.935   5.578
  970CL      CL 3423   2.547   2.874   0.665
  971CL      CL 3424   2.903   4.425   0.429
  972CL      CL 3425   1.938   4.535   0.789
  973CL      CL 3426   1.926   5.288   1.331
  974CL      CL 3427   3.045   5.059   0.119
  975CL      CL 3428   2.321   4.876   2.603
  976CL      CL 3429   2.216   5.234   3.191
  977CL      CL 3430   2.665   5.126   4.648
  978CL      CL 3431   2.350   5.109   5.760
  979CL      CL 3432   3.165   4.562   5.628
  980CL      CL 3433   3.588   3.859   6.109
  981CL      CL 3434   2.476   5.708   0.117
  982CL      CL 3435   3.402   5.860   0.125
  983CL      CL 3436   3.136   5.972   4.986
  984CL      CL 3437   5.184   1.505   1.339
  985CL      CL 3438   5.519   1.066   0.873
  986CL      CL 3439   4.976   1.348   0.388
  987CL      CL 3440   4.063   0.509   1.006
  988CL      CL 3441   4.949   0.325   0.449
  989CL      CL 3442   5.443   0.585   3.693
  990CL      CL 3443   3.764   0.544   2.976
  991CL      CL 3444   4.807   0.984   1.949
  992CL      CL 3445   3.949   0.275   4.720
  993CL      CL 3446   5.271   0.222   5.453
  994CL      CL 3447   5.388   1.280   4.381
  995CL      CL 3448   4.726   0.796   4.962
  996CL      CL 3449   4.807   0.984   3.811
  997CL      CL 3450   4.599   1.646   4.061
  998CL      CL 3451   5.581   0.833   5.963
  999CL      CL 3452   4.918   1.612   5.617
 1000CL      CL 3453   4.106   2.562   0.480
 1001CL      CL 3454   4.031   2.075   1.231
 1002CL      CL 3455   4.726   2.658   1.238
 1003CL      CL 3456   5.184   3.367   3.201
 1004CL      CL 3457   4.395   2.326   3.131
 1005CL      CL 3458   4.640   2.772   2.153
 1006CL      CL 3459   5.164   2.718   3.260
 1007CL      CL 3460   5.501   2.204   3.504
 1008CL      CL 3461   5.566   3.629   4.083
 1009CL      CL 3462   5.483   3.609   4.878
 1010CL      CL 3463   4.583   2.818   4.585
 1011CL      CL 3464   5.581   2.695   5.963
 1012CL      CL 3465   4.654   5.402   1.465
 1013CL      CL 3466   5.071   4.783   1.234
 1014CL      CL 3467   5.217   5.491   0.959
 1015CL      CL 3468   3.763   4.801   0.300
 1016CL      CL 3469   4.599   5.370   0.337
 1017CL      CL 3470   5.479   4.331   2.093
 1018CL      CL 3471   5.391   5.438   2.434
 1019CL      CL 3472   4.185   4.990   3.589
 1020CL      CL 3473   4.664   5.422   2.766
 1021CL      CL 3474   4.907   5.059   1.981
 1022CL      CL 3475   3.921   4.700   4.988
 1023CL      CL 3476   4.951   5.274   5.230
 1024CL      CL 3477   5.454   4.658   5.241
 1025CL      CL 3478   4.998   5.972   1.262
 1026CL      CL 3479   5.005   5.931   2.806
 1027CL      CL 3480   4.505   5.850   5.473
 1028CL      CL 3481   5.664   2.418   1.386
 1029CL      CL 3482   6.090   5.292   0.910
 1030CL      CL 3483   5.788   4.009   5.222
   5.88059   5.88059   5.88059
