Generic title
  875
    1PEO     C1    1  10.742  10.209   7.996  0.6429  0.2558 -0.1391
    1PEO     H3    2  10.700  10.187   7.897  0.9287  2.5112 -0.7932
    1PEO     H4    3  10.659  10.242   8.059 -0.8178  0.6250 -2.1918
    1PEO      O    4  10.804  10.092   8.038  0.3878 -0.3193  0.2519
    1PEO     C2    5  10.944  10.117   8.086  0.3763 -0.5997 -0.0394
    1PEO     H5    6  10.999  10.194   8.030 -0.3858  0.6048  0.8469
    1PEO     H6    7  11.002  10.024   8.075 -1.8045 -1.6579 -3.5632
    1PEO     C3    8  10.962  10.160   8.239 -0.1828 -0.5682  0.8261
    1PEO     H7    9  11.065  10.141   8.271 -0.1972 -0.2040  1.0929
    1PEO     H8   10  10.879  10.105   8.286 -2.0264  1.2489 -0.1900
    1PEO     O1   11  10.928  10.304   8.254 -0.6752  0.1935 -0.7629
    1PEO     C4   12  11.023  10.395   8.202  0.5856  0.5883 -0.3017
    1PEO     H9   13  10.995  10.501   8.207  2.7696  1.3364 -2.8464
    1PEO    H10   14  11.045  10.378   8.096  1.3785  0.9469 -0.1935
    1PEO     C5   15  11.158  10.390   8.284  0.0524 -0.6850  0.5264
    1PEO    H11   16  11.219  10.473   8.247 -0.3923 -0.2139  0.8419
    1PEO    H12   17  11.205  10.299   8.246  3.5919  2.1382 -2.2532
    1PEO     O2   18  11.143  10.390   8.425 -0.1722  0.7112 -0.3801
    1PEO     C6   19  11.069  10.506   8.485  0.0346  1.2693  0.6594
    1PEO    H13   20  11.044  10.489   8.590 -2.4161  1.8999  0.2251
    1PEO    H14   21  10.968  10.505   8.442  0.0835  4.0669  0.3789
    1PEO     C7   22  11.138  10.639   8.464  0.5806 -0.9048  0.9438
    1PEO    H15   23  11.245  10.621   8.477  0.6019 -2.2535 -0.8710
    1PEO    H16   24  11.094  10.703   8.542 -0.1579 -1.4974  1.0268
    1PEO     O3   25  11.114  10.692   8.334  0.6743  0.2519 -0.2973
    1PEO     C8   26  11.198  10.808   8.318  0.0891 -0.0285 -0.0778
    1PEO    H17   27  11.211  10.865   8.411 -2.6754 -0.1874  0.4320
    1PEO    H18   28  11.159  10.882   8.246 -0.9766 -1.2214 -0.7481
    1PEO     C9   29  11.336  10.764   8.273  0.2154  0.8731  0.4586
    1PEO    H19   30  11.382  10.848   8.219 -1.3075 -0.4919 -3.0502
    1PEO    H20   31  11.333  10.681   8.202 -1.4336  1.9034 -0.7093
    1PEO     O4   32  11.418  10.717   8.380 -0.3593 -0.2079 -0.0870
    1PEO    C10   33  11.525  10.806   8.416  0.6818  0.0099  0.5711
    1PEO    H21   34  11.564  10.777   8.514  0.1487 -0.9453  0.5096
    1PEO    H22   35  11.500  10.912   8.418 -0.2557 -0.1306 -1.6957
    2PEO     C1   36  11.624  10.768   8.309  0.5960 -0.2839 -0.1729
    2PEO     H3   37  11.714  10.825   8.338  0.6609 -1.4155  1.8671
    2PEO     H4   38  11.606  10.802   8.206  2.9571 -0.3676 -0.6486
    2PEO      O   39  11.637  10.622   8.315 -0.0258  0.6361 -0.3659
    2PEO     C2   40  11.738  10.564   8.237  0.3832 -0.5803  0.4913
    2PEO     H5   41  11.835  10.614   8.249  2.4670 -3.8990 -1.8315
    2PEO     H6   42  11.699  10.582   8.136  0.4290 -0.3960  0.5050
    2PEO     C3   43  11.752  10.414   8.271 -0.4983  0.4514  0.0907
    2PEO     H7   44  11.835  10.377   8.209 -2.1551 -0.6279 -1.5102
    2PEO     H8   45  11.656  10.363   8.261  0.5166 -1.4281 -0.2860
    2PEO     O1   46  11.806  10.395   8.406 -0.5417  0.4142  0.3280
    2PEO     C4   47  11.817  10.253   8.439 -0.1917 -0.3389 -0.1242
    2PEO     H9   48  11.728  10.198   8.408 -0.1700 -0.5202  0.1342
    2PEO    H10   49  11.839  10.242   8.546  0.3439  1.0018 -0.0863
    2PEO     C5   50  11.927  10.171   8.364 -0.0548  0.0810 -0.7845
    2PEO    H11   51  11.957  10.085   8.425  2.9220  2.1444  0.7933
    2PEO    H12   52  12.021  10.228   8.358 -0.9553  1.8481  1.3606
    2PEO     O2   53  11.892  10.140   8.230 -0.6184 -0.1864 -0.0260
    2PEO     C6   54  11.816  10.029   8.195  0.2996 -0.6837  0.1392
    2PEO    H13   55  11.765  10.046   8.100 -1.0755 -0.1456  0.9510
    2PEO    H14   56  11.738  10.005   8.268  1.2469 -1.0427  1.0479
    2PEO     C7   57  11.918   9.912   8.183  0.0068  0.1538 -0.5014
    2PEO    H15   58  11.943   9.873   8.282  3.3137  1.6478 -0.6527
    2PEO    H16   59  12.006   9.957   8.135  1.2499  1.5464  2.9912
    2PEO     O3   60  11.866   9.806   8.098  0.0270 -0.0990  0.2145
    2PEO     C8   61  11.780   9.709   8.175 -0.6270 -1.0547 -0.0071
    2PEO    H17   62  11.677   9.746   8.179 -0.4011 -0.1389 -1.9363
    2PEO    H18   63  11.812   9.694   8.279 -0.7788  1.5062  0.4541
    2PEO     C9   64  11.784   9.591   8.067 -0.7691 -0.2481  0.4835
    2PEO    H19   65  11.873   9.534   8.097  0.2514  1.0298 -0.1019
    2PEO    H20   66  11.797   9.626   7.965  1.1183  0.2318  0.8745
    2PEO     O4   67  11.673   9.507   8.093 -0.2831 -0.3232  0.4970
    2PEO    C10   68  11.544   9.551   8.038 -0.7467 -0.0212 -0.1872
    2PEO    H21   69  11.554   9.600   7.941 -0.7284  3.9185  1.7112
    2PEO    H22   70  11.503   9.627   8.106 -2.0457  1.0149 -2.0952
    3PEO     C1   71  11.454   9.437   8.044  0.0987 -0.7050  0.7746
    3PEO     H3   72  11.483   9.371   8.127  1.9258 -1.7758 -0.6829
    3PEO     H4   73  11.470   9.370   7.959  1.1740 -0.5897  0.8801
    3PEO      O   74  11.317   9.476   8.046 -0.1025 -0.1486  0.6253
    3PEO     C2   75  11.262   9.527   7.918  0.2902 -0.3960  0.7343
    3PEO     H5   76  11.155   9.505   7.913  0.8618 -3.4752  0.8975
    3PEO     H6   77  11.311   9.476   7.834 -2.7800 -0.3912 -1.1425
    3PEO     C3   78  11.261   9.682   7.921  0.1319 -1.5391  0.1263
    3PEO     H7   79  11.265   9.702   8.029  1.0158  1.4059 -0.3939
    3PEO     H8   80  11.164   9.722   7.888  1.6743 -0.1787 -2.8442
    3PEO     O1   81  11.367   9.750   7.852  0.7051 -0.4915 -0.5787
    3PEO     C4   82  11.404   9.877   7.913 -0.8436 -0.0426  0.2725
    3PEO     H9   83  11.491   9.918   7.860 -1.1708  1.2469  0.7174
    3PEO    H10   84  11.438   9.858   8.016  0.6980  0.9571 -0.0398
    3PEO     C5   85  11.297   9.990   7.887 -0.1644  0.5166 -0.2592
    3PEO    H11   86  11.205   9.934   7.866  0.0788 -1.0107  2.4169
    3PEO    H12   87  11.312  10.062   7.807 -1.1183  0.8973 -0.1067
    3PEO     O2   88  11.277  10.063   8.012  0.0424 -0.7230  0.0205
    3PEO     C6   89  11.387  10.114   8.089  0.1422 -0.3931 -0.5284
    3PEO    H13   90  11.463  10.039   8.115 -1.3282 -2.7333 -2.7570
    3PEO    H14   91  11.352  10.160   8.181 -0.1174 -1.4764 -0.0732
    3PEO     C7   92  11.454  10.227   8.015 -0.7411  0.5263  0.1643
    3PEO    H15   93  11.496  10.307   8.077 -0.7550 -0.3393  1.3092
    3PEO    H16   94  11.376  10.269   7.950 -1.0947  1.7159  1.3340
    3PEO     O3   95  11.563  10.177   7.931 -0.3904  0.2307  0.0287
    3PEO     C8   96  11.668  10.271   7.874  0.3504 -0.6476  1.0141
    3PEO    H17   97  11.752  10.220   7.826 -1.1482 -2.6991  0.5425
    3PEO    H18   98  11.719  10.331   7.951 -0.7345  1.4497  0.1521
    3PEO     C9   99  11.589  10.373   7.775 -0.1674 -0.5810  0.0393
    3PEO    H19  100  11.523  10.306   7.719  1.3718 -0.4549 -1.9941
    3PEO    H20  101  11.659  10.421   7.705 -0.1542 -0.6188  0.0266
    3PEO     O4  102  11.516  10.475   7.855  0.2743 -0.3682  0.2712
    3PEO    C10  103  11.427  10.549   7.786  1.0592 -0.3394 -0.7217
    3PEO    H21  104  11.341  10.492   7.749 -0.9986 -0.8774  4.5102
    3PEO    H22  105  11.464  10.613   7.705 -1.5769 -0.1429 -1.8101
    4PEO     C1  106  11.381  10.652   7.895 -0.8147  0.6015  0.4677
    4PEO     H3  107  11.471  10.704   7.933 -0.1535  0.8221 -1.3447
    4PEO     H4  108  11.325  10.597   7.971 -0.9230 -1.3105 -0.9470
    4PEO      O  109  11.298  10.743   7.830 -0.5279 -0.3204 -0.3891
    4PEO     C2  110  11.243  10.830   7.920 -0.8502  1.0704  0.3906
    4PEO     H5  111  11.323  10.878   7.978 -0.3807  0.9493 -0.1586
    4PEO     H6  112  11.177  10.769   7.985  1.3019 -1.7731  0.0067
    4PEO     C3  113  11.153  10.939   7.859  0.0060  0.1939  0.8817
    4PEO     H7  114  11.090  10.900   7.778  2.4516  1.8927 -1.9794
    4PEO     H8  115  11.217  11.012   7.807  0.0462 -1.8427 -2.0840
    4PEO     O1  116  11.058  11.008   7.952 -0.6634 -0.4994 -0.1342
    4PEO     C4  117  10.952  10.930   8.014  0.2806 -0.7999 -0.0101
    4PEO     H9  118  10.949  10.949   8.122 -1.8843 -1.4350  0.0599
    4PEO    H10  119  10.967  10.822   8.007  1.5575 -0.7735  2.0911
    4PEO     C5  120  10.823  10.986   7.957 -0.5831  0.5427 -0.4059
    4PEO    H11  121  10.791  11.089   7.976  0.1683  1.0452 -1.7408
    4PEO    H12  122  10.747  10.924   8.006  1.5585  0.0188  2.3310
    4PEO     O2  123  10.817  10.954   7.813 -0.1386 -0.0104  0.1560
    4PEO     C6  124  10.721  10.854   7.788  0.0324 -0.0218  0.4722
    4PEO    H13  125  10.627  10.880   7.838 -0.4483  1.4135 -1.1459
    4PEO    H14  126  10.766  10.770   7.843  1.0302 -0.0545 -0.3773
    4PEO     C7  127  10.702  10.828   7.639 -0.1556  0.1104  0.2212
    4PEO    H15  128  10.638  10.903   7.591  1.8858  1.7352 -0.0387
    4PEO    H16  129  10.650  10.731   7.640  0.4413 -0.2424 -1.4712
    4PEO     O3  130  10.828  10.820   7.573  0.1817 -0.3361 -0.4538
    4PEO     C8  131  10.938  10.733   7.611  0.3050  0.3607 -0.9564
    4PEO    H17  132  10.974  10.758   7.711  4.5205 -2.4551 -1.6731
    4PEO    H18  133  11.021  10.774   7.552 -1.4012  1.5711 -2.6118
    4PEO     C9  134  10.895  10.588   7.596  0.3316  0.7974  0.3908
    4PEO    H19  135  10.974  10.534   7.541  1.7698  1.9273  1.3236
    4PEO    H20  136  10.812  10.583   7.524 -1.1226 -0.4686  2.1133
    4PEO     O4  137  10.858  10.526   7.722  0.0884  0.5619 -1.1372
    4PEO    C10  138  10.956  10.507   7.822  1.0005  0.2106  0.7908
    4PEO    H21  139  10.895  10.477   7.909  0.1405 -2.5091 -0.7142
    4PEO    H22  140  11.009  10.600   7.848  0.4737  0.2116  1.9460
    5PEO     C1  141  11.050  10.392   7.778  0.8110 -0.1154  0.5309
    5PEO     H3  142  11.116  10.379   7.865 -2.9190 -3.0727  3.0928
    5PEO     H4  143  11.110  10.423   7.692  3.3159  1.1729  2.6474
    5PEO      O  144  10.975  10.263   7.752 -0.0698  0.2741 -0.3527
    5PEO     C2  145  11.054  10.147   7.726 -0.1818  0.1991  0.0980
    5PEO     H5  146  10.994  10.058   7.752  0.4242 -0.1359  0.3677
    5PEO     H6  147  11.132  10.160   7.802  0.4520  0.9557 -0.6711
    5PEO     C3  148  11.103  10.145   7.589  0.6640 -0.2083  0.2557
    5PEO     H7  149  11.125  10.246   7.552  1.6935 -0.3726  0.4284
    5PEO     H8  150  11.031  10.109   7.514  0.8216  1.2947 -0.6272
    5PEO     O1  151  11.218  10.056   7.578 -0.6094 -0.0321  0.0839
    5PEO     C4  152  11.260  10.015   7.453 -0.1896  0.0843 -0.3210
    5PEO     H9  153  11.181   9.945   7.423  0.4020 -0.8037  0.1882
    5PEO    H10  154  11.353   9.959   7.465 -0.2385  0.4761  2.2879
    5PEO     C5  155  11.296  10.127   7.358 -0.3321  0.2288 -0.4810
    5PEO    H11  156  11.371  10.095   7.284 -2.5653 -0.3773 -2.5377
    5PEO    H12  157  11.356  10.201   7.411  0.5371  0.3408 -1.5876
    5PEO     O2  158  11.176  10.185   7.293  1.0076  0.6022  0.2552
    5PEO     C6  159  11.080  10.099   7.224  0.0090  0.5145  0.9082
    5PEO    H13  160  11.030  10.037   7.300  0.9804 -0.5017  0.7344
    5PEO    H14  161  11.131  10.031   7.155  0.3773  2.5481 -0.8558
    5PEO     C7  162  10.990  10.182   7.136  0.3505 -0.7406  0.8700
    5PEO    H15  163  10.946  10.135   7.047  0.6810  2.8709 -1.2815
    5PEO    H16  164  11.051  10.259   7.088 -1.5190  0.9627  1.1666
    5PEO     O3  165  10.891  10.259   7.217  0.4359 -0.1357  0.3621
    5PEO     C8  166  10.785  10.174   7.265 -0.6858  0.0362 -0.7996
    5PEO    H17  167  10.727  10.229   7.340  0.2303 -0.3903  0.2392
    5PEO    H18  168  10.819  10.089   7.325 -1.2652  0.4636  0.1533
    5PEO     C9  169  10.693  10.137   7.150  0.2359 -1.1070  0.5296
    5PEO    H19  170  10.732  10.041   7.114  0.8278 -0.4389 -0.6752
    5PEO    H20  171  10.696  10.199   7.059 -1.3309 -1.3832  0.2778
    5PEO     O4  172  10.562  10.109   7.203 -0.2208 -0.0236 -0.7415
    5PEO    C10  173  10.485  10.221   7.245  0.2407  0.0481  0.7820
    5PEO    H21  174  10.523  10.282   7.328  1.1963  0.0219  0.3628
    5PEO    H22  175  10.383  10.194   7.277 -1.1721  3.6980 -0.3628
    6PET     C9  176  10.455  10.313   7.124  0.0262 -0.7206  0.4175
    6PET     H6  177  10.356  10.360   7.132  0.6649  0.5524  0.9953
    6PET     H7  178  10.455  10.242   7.040 -0.3892  0.1253 -0.3030
    6PET     O2  179  10.563  10.410   7.100  0.6183  0.0918  0.2561
    6PET     C8  180  10.589  10.512   7.191 -0.0035  0.3332 -0.7344
    6PET     O1  181  10.503  10.538   7.277 -0.4260 -0.4066 -0.0170
    6PET     C4  182  10.721  10.583   7.176 -0.5394 -0.4494 -0.2013
    6PET     C5  183  10.817  10.534   7.090  0.3817  0.1086 -0.1659
    6PET     C6  184  10.938  10.609   7.082  0.4612  0.5986  1.7032
    6PET     H4  185  11.018  10.569   7.020 -1.2759 -0.1908 -0.0765
    6PET     H3  186  10.797  10.451   7.023 -2.1417  0.6416 -0.0977
    6PET     C3  187  10.748  10.697   7.253  0.2849  0.2106 -0.3662
    6PET     H2  188  10.676  10.735   7.325  1.8855 -2.7139  2.8660
    6PET     C2  189  10.863  10.773   7.242 -1.0189 -0.2809 -0.3295
    6PET     H1  190  10.879  10.862   7.301  1.3812 -0.7191 -0.2702
    6PET     C1  191  10.964  10.729   7.154 -0.1598  0.6042  0.2315
    6PET     C7  192  11.094  10.806   7.142  0.2668 -0.0376  0.0860
    6PET     O3  193  11.116  10.912   7.203  0.0394  0.6832 -0.6404
    6PET     O4  194  11.187  10.744   7.071  0.3829 -0.3073  0.0404
    6PET    C10  195  11.308  10.818   7.041 -0.6829 -1.3643 -0.2761
    6PET     H8  196  11.352  10.857   7.134 -0.6857  0.3931 -0.9972
    6PET     H9  197  11.305  10.911   6.983 -1.5646 -1.4707 -0.3956
    6PET    C11  198  11.397  10.716   6.965 -0.5104 -0.2453  0.1466
    6PET    H10  199  11.497  10.760   6.955 -0.5878  0.5421  2.5073
    6PET    H11  200  11.368  10.721   6.860  1.8290  2.8338 -0.4544
    6PET    C12  201  11.429  10.567   7.026  0.0488  0.4328 -0.3468
    6PET    H13  202  11.448  10.498   6.943 -4.6222 -0.2721 -0.9375
    6PET    H14  203  11.339  10.525   7.072  0.4668  0.4781  0.5184
    7PET     C9  204  11.553  10.566   7.124 -0.4353  0.3306  0.8516
    7PET     H6  205  11.636  10.611   7.068 -0.0214 -0.6912  0.6192
    7PET     H7  206  11.584  10.465   7.154  0.3630 -0.7378 -3.2294
    7PET     O2  207  11.526  10.637   7.243  0.0068  0.2704 -0.0044
    7PET     C8  208  11.613  10.623   7.346  0.0361  0.7203 -0.5696
    7PET     O1  209  11.691  10.533   7.367 -0.2893  0.0461  0.3996
    7PET     C4  210  11.583  10.720   7.466  0.6870 -0.6243 -0.0383
    7PET     C5  211  11.454  10.774   7.476 -0.4737 -1.1900 -0.0054
    7PET     C6  212  11.440  10.887   7.565  0.2209  0.4535 -0.1100
    7PET     H4  213  11.340  10.927   7.573 -1.1947 -3.0020  0.3060
    7PET     H3  214  11.372  10.726   7.425  0.5546 -0.5623 -2.2998
    7PET     C3  215  11.685  10.744   7.560 -0.6146  0.1137 -0.7465
    7PET     H2  216  11.780  10.692   7.557  0.0945  1.3781 -0.7923
    7PET     C2  217  11.663  10.841   7.658  0.4535 -0.3512  0.4060
    7PET     H1  218  11.748  10.852   7.724  3.1251 -1.2583 -2.7311
    7PET     C1  219  11.548  10.923   7.650  0.1906  0.4721  0.4255
    7PET     C7  220  11.528  11.027   7.755  0.1054 -0.0452 -0.2917
    7PET     O3  221  11.597  11.026   7.856 -0.3612 -0.3033  0.6019
    7PET     O4  222  11.424  11.115   7.736 -0.4598 -0.1966  0.4701
    7PET    C10  223  11.381  11.203   7.838  0.4496  0.2212  0.4905
    7PET     H8  224  11.474  11.243   7.879 -0.6723  1.6152  1.7502
    7PET     H9  225  11.306  11.153   7.901  0.5494 -0.4154  0.1048
    7PET    C11  226  11.315  11.327   7.766 -0.1305 -0.0956  0.9003
    7PET    H10  227  11.254  11.282   7.686  0.3457  0.6635  0.1031
    7PET    H11  228  11.383  11.394   7.712 -0.4508 -0.0269  0.5743
    7PET    C12  229  11.230  11.427   7.856  0.1687  0.6860 -0.5580
    7PET    H13  230  11.212  11.514   7.793  3.4363  1.2167 -0.8484
    7PET    H14  231  11.283  11.464   7.945  0.7535 -1.1995 -0.0956
    8PET     C9  232  11.093  11.382   7.895  1.1874 -1.1093 -0.2595
    8PET     H6  233  11.052  11.320   7.814 -2.8088  0.8554  0.1154
    8PET     H7  234  11.021  11.464   7.909  1.3627 -1.1225  0.7788
    8PET     O2  235  11.105  11.302   8.017  0.4295 -0.1667  0.4004
    8PET     C8  236  10.995  11.268   8.085  0.4451 -0.4389  0.6750
    8PET     O1  237  10.876  11.295   8.044  0.6195 -0.7487 -0.1136
    8PET     C4  238  11.025  11.225   8.233  0.4658  1.0104 -0.0191
    8PET     C5  239  11.151  11.168   8.271 -0.0209 -0.1879  0.0637
    8PET     C6  240  11.172  11.129   8.403  0.5381  0.0814 -0.0126
    8PET     H4  241  11.273  11.103   8.432  0.8971  0.3817 -0.9681
    8PET     H3  242  11.239  11.158   8.208 -0.6217 -0.3167 -0.7678
    8PET     C3  243  10.932  11.243   8.328 -0.7200 -1.5248 -0.1917
    8PET     H2  244  10.841  11.292   8.297 -0.5183  0.1448  1.7867
    8PET     C2  245  10.944  11.195   8.456 -0.5044 -0.3896 -0.4463
    8PET     H1  246  10.857  11.207   8.521 -0.6308  2.3237 -1.0182
    8PET     C1  247  11.067  11.141   8.494  0.1828  0.1152 -0.2896
    8PET     C7  248  11.085  11.087   8.631 -0.4948  0.4984 -0.1994
    8PET     O3  249  11.008  11.089   8.729 -0.6525 -0.0709  0.6338
    8PET     O4  250  11.223  11.045   8.643 -0.1612 -0.2372  0.5857
    8PET    C10  251  11.267  11.010   8.776 -0.5327 -0.9980  0.4567
    8PET     H8  252  11.208  10.923   8.807 -2.8645  1.4901  3.2700
    8PET     H9  253  11.237  11.086   8.848  0.3824  0.0069 -0.1985
    8PET    C11  254  11.417  10.969   8.783 -0.6976  0.4807  0.8130
    8PET    H10  255  11.469  11.059   8.747  2.7113 -0.3357  3.4480
    8PET    H11  256  11.429  10.884   8.716  3.1612  0.7330  1.0839
    8PET    C12  257  11.460  10.916   8.923 -0.1997 -1.6051  0.1886
    8PET    H13  258  11.440  11.000   8.990  0.8316 -0.4070 -0.9632
    8PET    H14  259  11.568  10.902   8.905 -0.2602 -0.9840 -0.6551
    9PET     C9  260  11.390  10.792   8.978  0.2411 -0.3255  0.0694
    9PET     H6  261  11.282  10.807   8.996  0.4829  1.6448 -0.0551
    9PET     H7  262  11.425  10.756   9.076 -2.4278 -1.2906  0.7201
    9PET     O2  263  11.403  10.684   8.877 -0.6578 -0.2581  0.5067
    9PET     C8  264  11.332  10.571   8.891  0.6359 -0.7399  0.0446
    9PET     O1  265  11.265  10.541   8.988  0.0090  0.0867  0.3946
    9PET     C4  266  11.341  10.476   8.775  0.1122 -0.3569 -0.0614
    9PET     C5  267  11.248  10.366   8.781  0.7394 -0.0554 -0.5989
    9PET     C6  268  11.259  10.261   8.684 -0.3116  0.0333  0.3336
    9PET     H4  269  11.191  10.178   8.703 -1.2353  1.0929  1.7760
    9PET     H3  270  11.175  10.351   8.860  0.9648 -0.7970 -0.5360
    9PET     C3  271  11.430  10.481   8.664 -0.5011  0.5875  0.2274
    9PET     H2  272  11.496  10.568   8.656  0.0760  0.0035 -1.5198
    9PET     C2  273  11.431  10.377   8.564  0.2652 -0.1324 -0.4254
    9PET     H1  274  11.493  10.394   8.477 -0.1993  0.9612 -0.5465
    9PET     C1  275  11.349  10.265   8.578  0.0709 -1.4633  0.2602
    9PET     C7  276  11.359  10.150   8.482  0.1737 -0.3858  0.7618
    9PET     O3  277  11.454  10.139   8.403  0.4608  0.1452 -0.8177
    9PET     O4  278  11.258  10.051   8.496 -0.0656 -1.3321 -0.2639
    9PET    C10  279  11.254   9.949   8.400  0.3026  0.1772  0.5805
    9PET     H8  280  11.347   9.891   8.402  0.5611  0.5117 -1.0003
    9PET     H9  281  11.249   9.997   8.302 -0.6331 -0.5642  0.2524
    9PET    C11  282  11.127   9.865   8.414  1.2101  0.1169  0.1131
    9PET    H10  283  11.045   9.924   8.456  0.8830  0.4614 -0.9907
    9PET    H11  284  11.138   9.785   8.487 -0.0792 -0.0797  0.1105
    9PET    C12  285  11.070   9.810   8.284 -0.0298 -0.0038 -0.7839
    9PET    H13  286  11.152   9.753   8.240  0.9748  0.6540  0.2052
    9PET    H14  287  11.048   9.887   8.209 -0.2423 -0.4882 -1.2222
   10PET     C9  288  10.949   9.705   8.302  0.6204 -0.6479  0.6845
   10PET     H6  289  10.858   9.756   8.336 -0.5765 -1.2499 -1.5194
   10PET     H7  290  10.974   9.620   8.366 -1.3038 -1.0389  0.9334
   10PET     O2  291  10.916   9.650   8.173 -0.6287 -0.5218 -0.2056
   10PET     C8  292  10.822   9.550   8.164 -0.6019  0.6905 -0.4407
   10PET     O1  293  10.768   9.504   8.263  0.8057 -0.4321 -0.0812
   10PET     C4  294  10.799   9.502   8.018 -0.2107  0.5528 -0.1859
   10PET     C5  295  10.878   9.560   7.919 -0.7725  0.0714 -0.1452
   10PET     C6  296  10.872   9.511   7.780 -0.1894 -0.8293 -0.1899
   10PET     H4  297  10.937   9.571   7.718  0.5005  1.1765  2.3820
   10PET     H3  298  10.938   9.650   7.929 -0.7296 -0.0349  0.5781
   10PET     C3  299  10.722   9.387   7.977  0.4202 -0.0500  0.2324
   10PET     H2  300  10.666   9.340   8.058  0.3315 -1.3592 -0.5814
   10PET     C2  301  10.717   9.339   7.842 -0.2129 -0.3072  0.1533
   10PET     H1  302  10.652   9.256   7.818  0.2343 -0.3935 -0.7799
   10PET     C1  303  10.796   9.399   7.745 -0.0909  0.3188 -0.8814
   10PET     C7  304  10.787   9.337   7.611 -1.2085  0.6599  0.2739
   10PET     O3  305  10.758   9.218   7.586 -0.2310  0.2104 -0.1554
   10PET     O4  306  10.787   9.427   7.509  0.2413  0.0942  0.4387
   10PET    C10  307  10.800   9.374   7.373 -0.4705  0.2414 -0.2556
   10PET     H8  308  10.715   9.313   7.342 -0.9023  1.2381 -1.0858
   10PET     H9  309  10.891   9.314   7.387 -0.4536 -0.3930 -2.9069
   10PET    C11  310  10.841   9.486   7.273 -0.2869 -0.1004 -0.0816
   10PET    H10  311  10.761   9.557   7.249  0.2668  0.2296 -1.0056
   10PET    H11  312  10.860   9.434   7.178 -2.4423  0.6060 -0.9187
   10PET    C12  313  10.966   9.569   7.298  0.0764  0.7564 -0.0525
   10PET    H13  314  10.985   9.647   7.223  0.6233 -0.0270 -0.7389
   10PET    H14  315  11.055   9.506   7.292 -0.0905  0.4912  0.2578
   11PET     C9  316  10.969   9.642   7.426  0.0440 -0.6408  0.3367
   11PET     H6  317  11.052   9.713   7.435  0.9131 -1.4426 -1.2735
   11PET     H7  318  10.966   9.574   7.512  0.8647  1.8055  2.3616
   11PET     O2  319  10.841   9.721   7.444 -0.3765 -0.1022 -0.3571
   11PET     C8  320  10.826   9.804   7.556 -0.2924  0.0362 -0.5409
   11PET     O1  321  10.905   9.799   7.648 -0.3594  0.0206 -0.0276
   11PET     C4  322  10.696   9.876   7.558  0.6135  1.0341 -0.2919
   11PET     C5  323  10.671   9.974   7.655 -0.4707  0.1751 -1.2183
   11PET     C6  324  10.552  10.050   7.662  0.2194 -0.1861  0.7817
   11PET     H4  325  10.547  10.128   7.737 -0.8504  0.1882  0.3317
   11PET     H3  326  10.755   9.998   7.719 -0.4810  0.3183 -1.2589
   11PET     C3  327  10.597   9.854   7.465  0.2086  0.8208  0.3678
   11PET     H2  328  10.605   9.780   7.385 -1.1756  1.8995 -0.8104
   11PET     C2  329  10.471   9.922   7.469  0.5230 -0.8259 -0.2448
   11PET     H1  330  10.402   9.901   7.389 -0.8875 -1.3547  1.0868
   11PET     C1  331  10.454  10.020   7.571  0.1377 -0.3703 -1.1191
   11PET     C7  332  10.321  10.092   7.571 -0.9382 -0.4191  0.4654
   11PET     O3  333  10.230  10.070   7.488 -0.3750  0.6346  0.1991
   11PET     O4  334  10.317  10.192   7.666  0.2014  0.3149 -0.3351
   11PET    C10  335  10.205  10.268   7.672  0.2724 -0.1936  0.2930
   11PET     H8  336  10.161  10.301   7.577 -0.5006 -1.8355  0.0618
   11PET     H9  337  10.227  10.360   7.729 -0.1734  0.5258 -0.6837
   11PET    C11  338  10.076  10.197   7.736 -0.5923  0.0509 -0.0485
   11PET    H10  339  10.046  10.117   7.668 -1.9972 -0.4652  1.1409
   11PET    H11  340  10.000  10.276   7.747  0.4041  1.4369 -2.6204
   11PET    C12  341  10.109  10.135   7.875 -0.4529 -0.2162  0.0164
   11PET    H13  342  10.142  10.208   7.950 -1.1516 -1.6453  1.7601
   11PET    H14  343  10.197  10.072   7.864 -0.1586  0.1475  0.2911
   12PET     C9  344   9.996  10.057   7.938  0.0227 -0.4059  0.0328
   12PET     H6  345   9.916  10.126   7.969  1.6071  2.1071 -1.2876
   12PET     H7  346  10.032   9.997   8.023 -3.4120 -2.8146 -0.1087
   12PET     O2  347   9.937   9.964   7.851  0.1288 -1.3312  0.3373
   12PET     C8  348  10.007   9.849   7.808 -0.5129  0.2823 -0.4373
   12PET     O1  349  10.117   9.816   7.842 -0.3627 -0.2641 -0.1135
   12PET     C4  350   9.931   9.754   7.725 -0.1067  0.1487  0.6598
   12PET     C5  351   9.799   9.779   7.686  0.2554 -0.0317 -0.1767
   12PET     C6  352   9.725   9.693   7.601 -0.0427  0.8347  0.1893
   12PET     H4  353   9.623   9.718   7.573  0.6490  1.1012 -2.2264
   12PET     H3  354   9.760   9.875   7.720 -1.6047 -1.2547  1.2537
   12PET     C3  355   9.990   9.632   7.682 -0.3816 -0.0103 -0.7415
   12PET     H2  356  10.087   9.600   7.719 -1.2573 -1.6122  0.2614
   12PET     C2  357   9.919   9.542   7.603 -0.4531  0.6561  0.1831
   12PET     H1  358   9.968   9.451   7.570 -0.2710  0.5867  0.6394
   12PET     C1  359   9.791   9.575   7.555 -0.1812 -0.3085 -0.2339
   12PET     C7  360   9.707   9.490   7.470 -0.0931  0.4048 -0.4366
   12PET     O3  361   9.736   9.375   7.436 -1.1221 -0.1661 -0.3028
   12PET     O4  362   9.599   9.549   7.413 -0.1748 -0.6813 -0.2000
   12PET    C10  363   9.524   9.472   7.319 -0.8783  0.1480  0.2432
   12PET     H8  364   9.506   9.373   7.363  2.5653 -0.9123 -0.5160
   12PET     H9  365   9.597   9.465   7.236  0.6306  3.4594  1.1855
   12PET    C11  366   9.405   9.558   7.262  0.7544  0.7478  0.0255
   12PET    H10  367   9.324   9.570   7.335 -1.2841 -2.2206 -1.6318
   12PET    H11  368   9.359   9.498   7.183  0.9716  0.3827  0.1746
   12PET    C12  369   9.439   9.700   7.200 -0.5780  0.3708 -0.1774
   12PET    H13  370   9.336   9.729   7.176 -0.1393  2.6131  0.4918
   12PET    H14  371   9.483   9.679   7.102 -0.3646 -1.5567  0.3087
   13PET     C9  372   9.528   9.811   7.272  0.4540  0.0964  0.4988
   13PET     H6  373   9.496   9.803   7.377  0.4077  1.0149  0.5571
   13PET     H7  374   9.503   9.910   7.233 -0.3626  0.1764  1.2113
   13PET     O2  375   9.669   9.783   7.241  0.3983  0.0793  0.0469
   13PET     C8  376   9.763   9.843   7.318  0.2079  1.2605  1.0895
   13PET     O1  377   9.743   9.926   7.398  0.2861 -0.6985 -0.7108
   13PET     C4  378   9.905   9.784   7.290  0.0784 -0.1479  0.3897
   13PET     C5  379   9.935   9.676   7.202  0.5091  1.6507  0.0952
   13PET     C6  380  10.065   9.626   7.185  0.7737 -0.1855  0.1508
   13PET     H4  381  10.095   9.546   7.117  0.1597 -2.1834  2.1532
   13PET     H3  382   9.854   9.623   7.152  2.2262  0.8335 -1.9399
   13PET     C3  383  10.015   9.840   7.361 -0.1310 -0.5122 -0.0774
   13PET     H2  384   9.994   9.925   7.425  2.7041  0.2228 -0.0554
   13PET     C2  385  10.138   9.777   7.359  0.8572 -0.3727  0.0804
   13PET     H1  386  10.206   9.804   7.439 -2.1110  2.0843  1.8899
   13PET     C1  387  10.161   9.669   7.278 -0.1867 -0.3295  0.8359
   13PET     C7  388  10.292   9.595   7.270 -0.3735 -0.2939 -0.5883
   13PET     O3  389  10.403   9.647   7.266 -0.2927 -0.1093 -0.6663
   13PET     O4  390  10.269   9.460   7.271 -0.6815  0.0293  0.2079
   13PET    C10  391  10.371   9.364   7.310  0.6357 -0.5064 -0.3335
   13PET     H8  392  10.469   9.386   7.266  1.1666 -0.8047  0.6862
   13PET     H9  393  10.346   9.264   7.271 -1.8027 -0.3466  0.7051
   13PET    C11  394  10.395   9.358   7.465  0.2349  0.7976 -0.4242
   13PET    H10  395  10.477   9.289   7.489 -0.6217 -0.8032 -1.9322
   13PET    H11  396  10.300   9.318   7.504  1.3469  1.0859  2.7255
   13PET    C12  397  10.427   9.484   7.538 -0.0594 -0.3463 -0.6505
   13PET    H13  398  10.349   9.558   7.518 -0.1934 -1.0104 -2.6620
   13PET    H14  399  10.521   9.536   7.516 -0.2168  1.0594  1.8512
   14PET     C9  400  10.410   9.459   7.690 -1.0255 -0.4087  0.6156
   14PET     H6  401  10.492   9.392   7.722 -0.5479 -0.8408 -1.4059
   14PET     H7  402  10.308   9.422   7.706 -1.5763  1.3074  1.1437
   14PET     O2  403  10.420   9.591   7.751 -0.4657 -0.0070 -0.0824
   14PET     C8  404  10.442   9.577   7.889 -0.2045 -0.1117  0.5423
   14PET     O1  405  10.457   9.472   7.955  1.2891 -0.2372  0.2622
   14PET     C4  406  10.455   9.714   7.959 -0.5762 -0.7522  0.1942
   14PET     C5  407  10.475   9.711   8.101 -0.3150  0.0407 -0.7059
   14PET     C6  408  10.487   9.834   8.173 -0.5121 -0.0397 -0.6956
   14PET     H4  409  10.528   9.840   8.274 -1.5173  1.4952 -0.3709
   14PET     H3  410  10.491   9.622   8.161 -0.6843  1.6843  1.8827
   14PET     C3  411  10.440   9.839   7.898  0.6065  0.6187  0.2881
   14PET     H2  412  10.417   9.836   7.792  1.0219 -0.2727  0.2225
   14PET     C2  413  10.429   9.960   7.973 -0.1776  0.3654 -0.0581
   14PET     H1  414  10.397  10.049   7.920 -0.7466  1.1633  1.5990
   14PET     C1  415  10.459   9.957   8.107 -0.0993  0.4895  0.5447
   14PET     C7  416  10.443  10.083   8.190 -0.4270 -1.1543  0.4284
   14PET     O3  417  10.456  10.081   8.312 -0.9371 -0.9785  0.0342
   14PET     O4  418  10.425  10.202   8.115  1.3402 -0.6170 -0.3175
   14PET    C10  419  10.422  10.321   8.192 -0.0038 -0.5740  0.6202
   14PET     H8  420  10.462  10.406   8.135  0.1366 -2.5627 -2.3714
   14PET     H9  421  10.490  10.309   8.277  0.5536 -1.3304  0.0811
   14PET    C11  422  10.273  10.353   8.234 -0.8650 -0.5413 -0.0166
   14PET    H10  423  10.244  10.270   8.299 -2.9725 -0.3661 -0.6821
   14PET    H11  424  10.207  10.349   8.146 -2.1876  0.1550  0.9222
   14PET    C12  425  10.248  10.494   8.285 -0.5838  0.3744 -0.0658
   14PET    H13  426  10.151  10.485   8.335  0.4447 -0.7745  1.7617
   14PET    H14  427  10.232  10.567   8.205 -0.4707 -1.7753 -2.0949
   15PET     C9  428  10.344  10.545   8.403 -1.0732 -0.6519 -0.2320
   15PET     H6  429  10.298  10.639   8.435  0.9766  0.6525 -0.9659
   15PET     H7  430  10.447  10.560   8.366 -0.4920 -0.9314  1.2498
   15PET     O2  431  10.340  10.448   8.494 -0.3312  0.1852 -0.1542
   15PET     C8  432  10.396  10.466   8.613 -0.5638  0.1635 -0.1874
   15PET     O1  433  10.422  10.576   8.656  0.1508 -0.0901  0.0754
   15PET     C4  434  10.412  10.341   8.696 -0.4728  1.1523  1.7120
   15PET     C5  435  10.396  10.213   8.638  0.4220 -0.2059 -0.1225
   15PET     C6  436  10.410  10.106   8.714 -0.1081 -0.4701 -1.0713
   15PET     H4  437  10.405  10.009   8.665  3.5127 -1.1836 -0.2199
   15PET     H3  438  10.365  10.202   8.535 -1.6542 -1.9165  0.6556
   15PET     C3  439  10.438  10.355   8.838  0.0284 -0.1050  0.1643
   15PET     H2  440  10.444  10.453   8.885 -0.7335  1.0222 -2.0242
   15PET     C2  441  10.456  10.239   8.911  0.5427 -0.2173  0.6708
   15PET     H1  442  10.465  10.242   9.020  2.4739  0.0943  0.5252
   15PET     C1  443  10.440  10.113   8.849  0.2029 -0.1787 -0.0497
   15PET     C7  444  10.458   9.992   8.932  0.7849 -1.1983 -0.0280
   15PET     O3  445  10.468   9.993   9.055 -0.7768 -0.0823  0.2018
   15PET     O4  446  10.487   9.875   8.856  0.3100  0.0402 -0.5883
   15PET    C10  447  10.511   9.752   8.929 -0.7590 -0.4120  0.5591
   15PET     H8  448  10.418   9.722   8.979 -0.4132 -1.1193  0.7799
   15PET     H9  449  10.585   9.773   9.007 -0.6127  0.7375  0.1245
   15PET    C11  450  10.559   9.635   8.839 -0.3744 -0.0041  0.0084
   15PET    H10  451  10.482   9.588   8.776  0.6363 -0.6777 -0.7389
   15PET    H11  452  10.581   9.555   8.911  1.0497  1.2853  1.0287
   15PET    C12  453  10.689   9.660   8.750 -0.5693 -0.2235  0.5094
   15PET    H13  454  10.737   9.565   8.725 -1.6269 -1.2440  2.1954
   15PET    H14  455  10.752   9.700   8.830  1.3384 -1.2445 -0.4732
   16PET     C9  456  10.671   9.745   8.622  0.0235 -1.3410 -0.0535
   16PET     H6  457  10.579   9.736   8.562  0.9795  1.2055 -2.0192
   16PET     H7  458  10.738   9.705   8.545  0.4675  2.7228 -1.9548
   16PET     O2  459  10.723   9.874   8.653  0.2848  0.5406  0.2047
   16PET     C8  460  10.750   9.951   8.542 -0.1873 -0.0528 -0.0815
   16PET     O1  461  10.748   9.914   8.431 -0.7133 -0.3170 -0.1157
   16PET     C4  462  10.769  10.093   8.577 -1.1393 -0.7606  0.2052
   16PET     C5  463  10.807  10.140   8.704  0.0795  0.1842 -1.0685
   16PET     C6  464  10.810  10.268   8.747  0.2240  0.7159 -0.6251
   16PET     H4  465  10.828  10.291   8.852  2.1412 -0.1360 -0.7519
   16PET     H3  466  10.816  10.064   8.781  0.1049  1.7389  0.4887
   16PET     C3  467  10.740  10.199   8.484 -0.2322 -0.3384 -1.1604
   16PET     H2  468  10.708  10.167   8.386  1.3162 -0.4419 -1.6433
   16PET     C2  469  10.760  10.328   8.513 -0.5208  0.3469  0.3312
   16PET     H1  470  10.730  10.409   8.447 -0.9582 -1.0573 -1.2360
   16PET     C1  471  10.784  10.370   8.651 -0.4579 -0.8347  0.4907
   16PET     C7  472  10.777  10.515   8.688 -0.3576 -0.0511 -0.2163
   16PET     O3  473  10.820  10.560   8.795  0.4926 -0.7423  0.1159
   16PET     O4  474  10.729  10.589   8.590  0.2921 -0.1692 -0.1420
   16PET    C10  475  10.700  10.729   8.620  0.3300  0.6979  1.1712
   16PET     H8  476  10.787  10.794   8.636  2.3986 -1.3934 -1.1201
   16PET     H9  477  10.634  10.739   8.707 -1.4505  1.7599 -0.2635
   16PET    C11  478  10.619  10.796   8.514 -0.1985 -0.1252  0.2944
   16PET    H10  479  10.562  10.879   8.558 -2.8449 -2.8683  2.2243
   16PET    H11  480  10.548  10.732   8.459  0.4907  1.4745 -2.5869
   16PET    C12  481  10.721  10.853   8.402  0.0614 -0.7080 -0.0393
   16PET    H13  482  10.806  10.901   8.452 -1.8288  1.0165  1.6156
   16PET    H14  483  10.666  10.926   8.342 -2.3289 -3.4594 -1.3291
   17PET     C9  484  10.770  10.748   8.308  0.2524  0.3628  0.0213
   17PET     H6  485  10.805  10.663   8.367  0.2345  0.8310  0.7039
   17PET     H7  486  10.847  10.800   8.249 -1.7578  0.5833 -2.5448
   17PET     O2  487  10.660  10.726   8.221 -0.0439 -0.1306 -0.0829
   17PET     C8  488  10.684  10.661   8.101 -0.0787  0.5528  0.0029
   17PET     O1  489  10.789  10.612   8.080  0.3337 -0.1042 -0.1875
   17PET     C4  490  10.561  10.642   8.016 -0.7206 -0.1225  0.5249
   17PET     C5  491  10.436  10.717   8.045 -0.3159 -0.0758  0.4866
   17PET     C6  492  10.320  10.692   7.976 -0.2215  0.0900  0.0646
   17PET     H4  493  10.229  10.746   8.004 -2.4077 -3.5650  0.3428
   17PET     H3  494  10.426  10.788   8.127  0.1386 -1.8008  2.0691
   17PET     C3  495  10.563  10.555   7.899 -0.5413  0.3348  0.3357
   17PET     H2  496  10.652  10.495   7.881 -1.5010 -0.7392 -0.9394
   17PET     C2  497  10.449  10.558   7.813 -0.3840 -0.9688  0.6336
   17PET     H1  498  10.435  10.509   7.718 -0.3758  1.3256 -0.5994
   17PET     C1  499  10.323  10.619   7.849 -0.3303  0.2853 -0.6016
   17PET     C7  500  10.194  10.610   7.765 -0.2165  0.9213 -0.2141
   17PET     O3  501  10.086  10.629   7.820 -0.4738 -1.1684 -0.2184
   17PET     O4  502  10.215  10.591   7.632  0.6437  0.1128  0.4875
   17PET    C10  503  10.102  10.597   7.545  0.1471  0.1319 -0.2660
   17PET     H8  504  10.028  10.674   7.572 -0.8887 -1.1033  0.4632
   17PET     H9  505  10.049  10.502   7.561  1.8176 -0.5591  1.3845
   17PET    C11  506  10.153  10.601   7.398  0.6151  0.3245  0.2594
   17PET    H10  507  10.187  10.498   7.378  1.0865  0.3165  1.0401
   17PET    H11  508  10.235  10.672   7.383 -1.9976  3.8837  2.0439
   17PET    C12  509  10.044  10.618   7.296  0.0989  0.7345  0.0392
   17PET    H13  510   9.995  10.712   7.322  2.3539  1.3005  2.3919
   17PET    H14  511   9.980  10.532   7.319  0.8713  0.5194  1.4221
   18PET     C9  512  10.097  10.609   7.156 -1.0319  0.3532 -0.0222
   18PET     H6  513  10.192  10.556   7.147 -0.5293  1.4818 -1.5789
   18PET     H7  514  10.108  10.699   7.093  0.3883 -0.1547 -0.5304
   18PET     O2  515   9.987  10.536   7.085  1.0274 -0.1197 -0.7578
   18PET     C8  516   9.992  10.407   7.062  0.4760 -0.3994 -0.2822
   18PET     O1  517  10.082  10.336   7.097  0.3130 -0.6034 -0.0591
   18PET     C4  518   9.878  10.351   6.983 -0.3210 -0.2096 -0.2271
   18PET     C5  519   9.886  10.219   6.930 -0.2644 -0.3392 -0.6702
   18PET     C6  520   9.792  10.169   6.842 -0.5896 -0.1354 -0.2414
   18PET     H4  521   9.801  10.074   6.791  1.9972  0.1771 -0.4322
   18PET     H3  522   9.982  10.170   6.945 -1.3452 -2.2316  0.3057
   18PET     C3  523   9.755  10.422   6.958 -0.8448  0.1414  0.6482
   18PET     H2  524   9.737  10.517   7.008 -0.8439 -0.6747  2.2334
   18PET     C2  525   9.656  10.372   6.879 -0.9217  0.1914  0.2680
   18PET     H1  526   9.563  10.426   6.859 -0.8785  0.5859  1.1429
   18PET     C1  527   9.681  10.245   6.821  0.3224 -0.9816 -0.7046
   18PET     C7  528   9.570  10.189   6.751  0.5136 -1.4820 -0.4496
   18PET     O3  529   9.476  10.255   6.708 -0.4330  0.3069  0.5675
   18PET     O4  530   9.569  10.053   6.723  0.2311 -0.0640 -0.2362
   18PET    C10  531   9.494  10.000   6.607 -0.7308  1.1794  0.0914
   18PET     H8  532   9.544  10.045   6.521  1.1882  3.2022  2.1835
   18PET     H9  533   9.392  10.041   6.613  0.0389  3.1409 -0.0829
   18PET    C11  534   9.502   9.847   6.616  0.1977 -0.8503  0.0322
   18PET    H10  535   9.424   9.800   6.554 -2.8889  1.6597  1.8869
   18PET    H11  536   9.475   9.819   6.718 -1.5545 -1.3359 -0.5414
   18PET    C12  537   9.638   9.787   6.577 -0.4037  0.5423 -0.0902
   18PET    H13  538   9.666   9.827   6.479  0.0214  1.0951  0.2515
   18PET    H14  539   9.633   9.678   6.568 -1.3371  0.6430 -0.8690
   19PET     C9  540   9.757   9.804   6.665 -0.0442  0.5738  0.2100
   19PET     H6  541   9.719   9.788   6.767  0.3488  0.8937  0.4074
   19PET     H7  542   9.800   9.905   6.662  1.8556 -0.2486 -0.8945
   19PET     O2  543   9.852   9.700   6.632 -1.2687  0.0406 -0.0524
   19PET     C8  544   9.967   9.688   6.710  0.5709  0.9335 -0.5609
   19PET     O1  545   9.983   9.735   6.823  0.5619 -0.5763  0.3022
   19PET     C4  546  10.053   9.573   6.652 -0.0472  0.7845 -0.6124
   19PET     C5  547  10.032   9.524   6.521  0.0011 -0.3922 -0.3216
   19PET     C6  548  10.096   9.406   6.478  0.7627 -0.3599 -0.1446
   19PET     H4  549  10.058   9.348   6.395 -0.0076  0.7098 -0.5555
   19PET     H3  550   9.959   9.569   6.454  0.5235  2.2210  0.8105
   19PET     C3  551  10.154   9.515   6.732 -0.0082 -0.4281 -0.3999
   19PET     H2  552  10.172   9.549   6.833 -1.4447  0.1116 -0.3167
   19PET     C2  553  10.224   9.406   6.679 -0.0864  1.0191 -0.4381
   19PET     H1  554  10.301   9.358   6.739 -1.6403 -0.2554  0.5916
   19PET     C1  555  10.193   9.351   6.553 -0.2048 -0.0282  0.6182
   19PET     C7  556  10.261   9.229   6.496 -1.3601  0.5192 -0.1594
   19PET     O3  557  10.190   9.138   6.455 -0.9078  0.3309 -0.0424
   19PET     O4  558  10.397   9.229   6.507  0.2316  0.7628  0.1252
   19PET    C10  559  10.469   9.124   6.449  0.1584  0.3035  0.5516
   19PET     H8  560  10.487   9.137   6.342 -1.2491 -2.8040 -0.1053
   19PET     H9  561  10.417   9.029   6.465 -1.2376  0.9766  0.0766
   19PET    C11  562  10.606   9.115   6.525 -0.1387 -0.3889 -1.1845
   19PET    H10  563  10.652   9.214   6.526  1.3026 -1.0597  1.1461
   19PET    H11  564  10.672   9.041   6.479 -0.7062 -1.9922  0.4922
   19PET    C12  565  10.602   9.054   6.669  1.5786 -0.3126  0.8795
   19PET    H13  566  10.708   9.041   6.692  2.9711  1.3083 -3.9901
   19PET    H14  567  10.553   8.956   6.675 -0.9198  0.7951 -0.5970
   20PET     C9  568  10.523   9.126   6.776  0.4028 -0.8784  0.9520
   20PET     H6  569  10.549   9.080   6.872  2.5042  0.1783  0.9196
   20PET     H7  570  10.417   9.124   6.749  1.3286  1.3787 -3.3514
   20PET     O2  571  10.570   9.265   6.773 -0.4815  0.3506  0.0134
   20PET     C8  572  10.523   9.346   6.868  0.7315 -0.6570 -0.2425
   20PET     O1  573  10.438   9.313   6.946 -0.6766  0.1977 -0.7281
   20PET     C4  574  10.614   9.472   6.888 -0.1247 -0.5749 -0.4131
   20PET     C5  575  10.613   9.563   7.001 -0.2803  0.4749 -0.5802
   20PET     C6  576  10.702   9.676   7.007  0.3206 -0.0670 -0.0290
   20PET     H4  577  10.713   9.744   7.091  2.4260  2.2502 -2.0863
   20PET     H3  578  10.562   9.552   7.096  1.0638  0.7273  0.1774
   20PET     C3  579  10.706   9.506   6.788  0.2307 -0.1265  0.3911
   20PET     H2  580  10.717   9.439   6.703 -0.1058 -0.7698  0.8549
   20PET     C2  581  10.793   9.608   6.798 -0.1065  0.4837 -0.0673
   20PET     H1  582  10.872   9.620   6.724  1.4611  0.3282  1.5245
   20PET     C1  583  10.782   9.702   6.899  0.7412  0.3633  0.5499
   20PET     C7  584  10.864   9.821   6.906  0.1998 -0.3448 -0.3456
   20PET     O3  585  10.876   9.892   7.004 -0.1666  0.0564 -0.2813
   20PET     O4  586  10.932   9.830   6.789 -0.2417 -0.0314  0.2332
   20PET    C10  587  11.037   9.929   6.796 -0.1532 -0.1160  0.3392
   20PET     H8  588  11.103   9.926   6.884 -1.1055 -0.8301  1.0295
   20PET     H9  589  10.990  10.028   6.796  0.1379  0.0261 -0.3066
   20PET    C11  590  11.125   9.933   6.663 -0.8114  0.1036 -0.7644
   20PET    H10  591  11.163  10.034   6.641 -3.2039  0.9469 -1.1998
   20PET    H11  592  11.061   9.911   6.577 -0.3382  2.0866 -1.6587
   20PET    C12  593  11.236   9.820   6.659 -0.7036 -0.1762 -0.1384
   20PET    H13  594  11.292   9.826   6.565  1.7255 -0.6418  1.2292
   20PET    H14  595  11.187   9.724   6.676  0.9179 -0.7658  1.2892
   21PET     C9  596  11.339   9.844   6.774  1.2056  0.5531 -1.0641
   21PET     H6  597  11.405   9.758   6.793  1.4283  0.9031 -0.2218
   21PET     H7  598  11.287   9.844   6.870  0.9922 -0.0137 -1.1757
   21PET     O2  599  11.407   9.964   6.746 -0.0444  0.5949  0.4137
   21PET     C8  600  11.507  10.011   6.829 -0.3185  0.3115 -0.2012
   21PET     O1  601  11.546   9.966   6.932  0.2274 -0.3442  0.2877
   21PET     C4  602  11.550  10.153   6.785 -0.5059 -0.2369  0.3496
   21PET     C5  603  11.496  10.209   6.669 -0.2708  0.0643  0.4316
   21PET     C6  604  11.520  10.342   6.629 -0.3692 -0.4067  0.9037
   21PET     H4  605  11.458  10.388   6.552  0.7041  0.4038  0.4907
   21PET     H3  606  11.421  10.156   6.611  0.0403 -0.1925  0.2662
   21PET     C3  607  11.652  10.217   6.849  0.4728 -0.4719 -0.3118
   21PET     H2  608  11.703  10.164   6.928 -0.2283 -2.4837 -1.1665
   21PET     C2  609  11.684  10.355   6.816 -0.5003 -0.3271  0.1567
   21PET     H1  610  11.765  10.395   6.877 -0.3111  3.1645 -2.2257
   21PET     C1  611  11.606  10.423   6.709 -0.6061  0.4396  0.2059
   21PET     C7  612  11.628  10.565   6.677 -0.2059  0.1517  0.4795
   21PET     O3  613  11.684  10.638   6.757  0.0177  0.4777  0.0504
   21PET     O4  614  11.599  10.598   6.549  0.9224 -0.6078  0.1559
   21PET    C10  615  11.614  10.727   6.489  0.8733 -0.4699  0.5777
   21PET     H8  616  11.718  10.752   6.463  1.3306  0.6709  3.2621
   21PET     H9  617  11.588  10.811   6.555 -2.6804  0.5905 -2.0291
   21PET    C11  618  11.518  10.753   6.365  0.0767  0.0505 -0.6034
   21PET    H10  619  11.528  10.854   6.324 -1.3281 -0.6581 -2.8071
   21PET    H11  620  11.414  10.747   6.399  0.1787  1.6833  0.0261
   21PET    C12  621  11.525  10.654   6.253  0.0525  0.5873  0.0622
   21PET    H13  622  11.500  10.554   6.290 -1.2814  0.6818 -0.5744
   21PET    H14  623  11.629  10.641   6.219  0.3183 -0.9704  1.3887
   22PET     C9  624  11.447  10.684   6.123 -0.6044  1.0586  0.2070
   22PET     H6  625  11.524  10.700   6.046  0.7550 -2.0444  0.8417
   22PET     H7  626  11.399  10.780   6.144  0.8604  1.2124  3.0536
   22PET     O2  627  11.363  10.581   6.079  0.1999 -0.1262  0.3945
   22PET     C8  628  11.249  10.554   6.146  0.3049  0.9479 -0.6556
   22PET     O1  629  11.218  10.604   6.255  0.4396 -0.4484  0.5413
   22PET     C4  630  11.168  10.446   6.075  0.5318 -0.3068  0.6754
   22PET     C5  631  11.164  10.439   5.932 -0.1462  0.0540 -0.9615
   22PET     C6  632  11.098  10.328   5.876  0.0350 -0.2307 -0.6953
   22PET     H4  633  11.109  10.310   5.769 -1.9073 -0.9967 -0.7832
   22PET     H3  634  11.196  10.519   5.865  1.8962  1.4745  1.6150
   22PET     C3  635  11.085  10.371   6.161  0.4937 -0.2116  0.6758
   22PET     H2  636  11.092  10.378   6.269 -0.2822 -0.4858  0.7497
   22PET     C2  637  11.027  10.262   6.097  0.6512  0.1323 -0.4657
   22PET     H1  638  10.972  10.194   6.162  1.4464  2.9655  3.3149
   22PET     C1  639  11.027  10.243   5.962 -0.6336 -0.7191 -0.7419
   22PET     C7  640  10.945  10.122   5.907  0.4468  0.2429 -0.0932
   22PET     O3  641  10.962  10.099   5.790 -0.5814 -0.0445  0.3836
   22PET     O4  642  10.855  10.062   5.980  0.9811  0.6868 -0.3426
   22PET    C10  643  10.779   9.943   5.932  0.2371 -0.0948 -0.4690
   22PET     H8  644  10.847   9.861   5.906  1.8752  1.1947 -0.2872
   22PET     H9  645  10.712   9.966   5.849 -0.0941  0.4412 -0.0543
   22PET    C11  646  10.695   9.901   6.053 -0.1935 -0.2608 -0.1607
   22PET    H10  647  10.751   9.906   6.147  0.6698  1.7968 -0.7513
   22PET    H11  648  10.657   9.799   6.040 -1.5828  0.5250 -2.5116
   22PET    C12  649  10.573   9.989   6.083  1.1087 -0.2599  0.6422
   22PET    H13  650  10.491   9.956   6.018  2.1038 -0.5571 -0.4729
   22PET    H14  651  10.592  10.094   6.058  1.8147 -0.8944 -1.5623
   23PET     C9  652  10.514   9.990   6.224 -0.4349 -0.4570 -0.7470
   23PET     H6  653  10.509   9.888   6.265  0.8425  0.6915  2.4101
   23PET     H7  654  10.414  10.032   6.214 -0.8106 -0.8752  1.2017
   23PET     O2  655  10.611  10.084   6.301  0.0548 -0.3719 -0.2232
   23PET     C8  656  10.601  10.089   6.435 -0.2746 -0.4657 -0.5899
   23PET     O1  657  10.504  10.041   6.503  0.4402 -0.9434  0.1290
   23PET     C4  658  10.718  10.142   6.507  0.8820  0.7178 -0.3317
   23PET     C5  659  10.825  10.180   6.432 -0.7332  0.3891  0.5121
   23PET     C6  660  10.941  10.237   6.497  0.3239 -0.1130 -0.1409
   23PET     H4  661  11.021  10.283   6.441  0.0228 -1.2789 -1.5770
   23PET     H3  662  10.818  10.172   6.324 -0.9241 -0.9198  0.6174
   23PET     C3  663  10.717  10.165   6.647 -0.3269  1.1872  0.4133
   23PET     H2  664  10.627  10.132   6.699  0.2072 -0.2825  0.4381
   23PET     C2  665  10.828  10.223   6.711  0.4651 -0.5964 -0.1906
   23PET     H1  666  10.835  10.228   6.819 -1.5613  0.7251 -0.1013
   23PET     C1  667  10.939  10.263   6.638 -0.2640 -0.3084 -0.1352
   23PET     C7  668  11.047  10.334   6.711 -0.1028  0.0530  0.1154
   23PET     O3  669  11.070  10.322   6.831  0.6844  0.7227 -0.0062
   23PET     O4  670  11.124  10.416   6.629 -0.5483  0.2960 -0.0213
   23PET    C10  671  11.199  10.525   6.694  0.5501  0.3415  0.0779
   23PET     H8  672  11.290  10.496   6.749 -0.1894 -1.0059  0.6040
   23PET     H9  673  11.139  10.580   6.768 -2.3102 -3.1320  0.4378
   23PET    C11  674  11.229  10.633   6.589 -0.3773  0.6228 -0.3452
   23PET    H10  675  11.211  10.602   6.486 -0.8511 -0.3019  0.0040
   23PET    H11  676  11.338  10.639   6.601 -0.1736 -1.6941 -0.7450
   23PET    C12  677  11.169  10.782   6.600  0.1419  0.5287 -0.1595
   23PET    H13  678  11.148  10.788   6.708  0.3839 -0.6725 -0.0414
   23PET    H14  679  11.074  10.788   6.546  0.7492 -0.0072 -1.3122
   24PET     C9  680  11.258  10.899   6.546 -0.6579  0.0029 -0.2715
   24PET     H6  681  11.366  10.878   6.552 -0.0944  3.2591  2.4205
   24PET     H7  682  11.248  10.996   6.596  1.5537  0.4387 -0.6103
   24PET     O2  683  11.219  10.907   6.415 -0.0787 -0.2434  0.3913
   24PET     C8  684  11.287  10.986   6.333  0.2662 -0.0019 -0.0824
   24PET     O1  685  11.388  11.050   6.367  0.7557 -0.3016  0.0724
   24PET     C4  686  11.237  10.988   6.186 -0.3643 -0.0164 -1.0363
   24PET     C5  687  11.143  10.893   6.142 -0.3039 -0.3205 -0.4717
   24PET     C6  688  11.117  10.885   6.000  0.7515  0.2110 -1.1075
   24PET     H4  689  11.047  10.811   5.962  1.0302  0.9323 -3.0465
   24PET     H3  690  11.085  10.834   6.212 -0.1455 -1.6872 -1.4660
   24PET     C3  691  11.317  11.048   6.090 -0.7596 -0.1169 -0.2846
   24PET     H2  692  11.407  11.104   6.113 -0.3472 -0.0613 -1.9639
   24PET     C2  693  11.280  11.049   5.955  1.3320 -0.3287  0.8442
   24PET     H1  694  11.345  11.112   5.895  3.9922 -0.8555  3.0551
   24PET     C1  695  11.173  10.968   5.907  0.1622  0.6605 -0.1731
   24PET     C7  696  11.120  10.974   5.766 -0.1888  0.4886 -0.3025
   24PET     O3  697  11.016  10.918   5.733  0.4890  0.3075 -0.4712
   24PET     O4  698  11.193  11.058   5.688  0.4019  0.3133  0.3507
   24PET    C10  699  11.150  11.111   5.562 -0.1819 -0.4015  0.0401
   24PET     H8  700  11.142  11.024   5.496 -2.4704  0.1824 -0.5124
   24PET     H9  701  11.231  11.173   5.522 -0.9671  1.3121  1.0288
   24PET    C11  702  11.018  11.207   5.576  0.9570  0.5742 -0.6829
   24PET    H10  703  10.933  11.174   5.637  0.7516  1.0494 -0.7063
   24PET    H11  704  10.986  11.218   5.472 -0.8947  1.9274 -0.0055
   24PET    C12  705  11.054  11.348   5.620  0.5164 -0.3308 -0.2078
   24PET    H13  706  10.964  11.410   5.631 -0.6333 -1.7045 -1.7808
   24PET    H14  707  11.122  11.401   5.552  1.9293  1.1430  2.2711
   25PET     C9  708  11.128  11.363   5.761 -0.1703  0.2844 -0.3650
   25PET     H6  709  11.149  11.470   5.760 -2.1034  0.7009  1.4098
   25PET     H7  710  11.211  11.291   5.763 -0.9017 -0.6292 -1.6731
   25PET     O2  711  11.039  11.336   5.864  0.4736  0.5672  0.5454
   25PET     C8  712  11.100  11.320   5.985 -0.2528  0.0140  0.4586
   25PET     O1  713  11.218  11.350   6.004 -0.1766  0.2934  0.2641
   25PET     C4  714  11.013  11.268   6.089  1.3559  0.6141 -0.1276
   25PET     C5  715  10.891  11.205   6.057  0.0185 -0.2260 -0.1704
   25PET     C6  716  10.812  11.162   6.164  1.1099  1.2867 -0.1523
   25PET     H4  717  10.710  11.131   6.144  0.5776  2.5312  0.5418
   25PET     H3  718  10.842  11.191   5.960 -2.2569 -1.5268  1.1093
   25PET     C3  719  11.066  11.262   6.221 -0.9449 -0.1380 -0.0463
   25PET     H2  720  11.162  11.310   6.240 -0.3763  0.0120 -3.0630
   25PET     C2  721  10.991  11.194   6.323  0.8997  0.3564  0.0252
   25PET     H1  722  11.035  11.187   6.422  3.0606  0.5136 -0.9083
   25PET     C1  723  10.859  11.145   6.297 -0.2608 -0.3375 -0.2050
   25PET     C7  724  10.775  11.068   6.397 -0.1850  0.2738  0.5147
   25PET     O3  725  10.667  11.016   6.367 -0.6940 -0.3463  0.3332
   25PET     O4  726  10.848  11.041   6.516 -0.5149 -0.8163  0.7504
   25PET    C10  727  10.769  10.993   6.625 -0.3444  0.0595 -0.2262
   25PET     H8  728  10.711  10.905   6.595  0.0650 -1.3424  2.9041
   25PET     H9  729  10.703  11.070   6.667 -1.8629  0.2684 -2.8555
   25PET    C11  730  10.864  10.962   6.732 -0.6472  0.0192 -0.0784
   25PET    H10  731  10.956  11.019   6.713 -1.5519  1.0394 -1.5102
   25PET    H11  732  10.879  10.853   6.731 -1.3021 -0.0935 -3.1926
   25PET    C12  733  10.813  10.990   6.871  1.5603 -0.1565  0.3295
   25PET    H13  734  10.755  11.082   6.878 -1.0514 -1.6975 -0.3065
   25PET    H14  735  10.899  11.001   6.938  0.5991  0.2739  1.5022
   26PET     C9  736  10.719  10.884   6.922  0.5797 -0.4524  0.2121
   26PET     H6  737  10.673  10.919   7.016  0.3958 -2.6517  0.9675
   26PET     H7  738  10.763  10.783   6.919 -0.1623 -0.7908  0.5097
   26PET     O2  739  10.605  10.868   6.825  0.0629  0.6430 -0.3933
   26PET     C8  740  10.489  10.808   6.871  0.5762  0.1015 -0.0379
   26PET     O1  741  10.463  10.789   6.986  0.1983  0.5335  0.0441
   26PET     C4  742  10.384  10.785   6.753 -0.0637  0.5553 -0.4551
   26PET     C5  743  10.246  10.750   6.787  0.0754  0.1027 -0.4004
   26PET     C6  744  10.154  10.703   6.688 -0.1350 -0.1359 -0.3272
   26PET     H4  745  10.052  10.677   6.714  0.3997  0.5583  2.7009
   26PET     H3  746  10.221  10.761   6.893  0.0023 -1.4732 -0.2468
   26PET     C3  747  10.420  10.769   6.618  0.2580  0.0360 -0.4181
   26PET     H2  748  10.514  10.807   6.579  0.8608  0.4849  1.4163
   26PET     C2  749  10.321  10.729   6.519  0.3748  0.5884 -0.3501
   26PET     H1  750  10.339  10.715   6.413 -0.5081 -0.2367 -0.3991
   26PET     C1  751  10.185  10.695   6.553  0.6337  0.4290 -0.7391
   26PET     C7  752  10.086  10.636   6.447  0.0212  0.6310  0.1925
   26PET     O3  753  10.123  10.634   6.332 -0.0445 -0.0048  0.3646
   26PET     O4  754   9.962  10.601   6.494  0.9732 -0.8585  0.5298
   26PET    C10  755   9.869  10.563   6.391  0.7308  0.6898  0.8143
   26PET     H8  756   9.912  10.479   6.335  1.7656  0.3518  2.0917
   26PET     H9  757   9.865  10.636   6.310 -1.4386 -0.1965  0.0819
   26PET    C11  758   9.735  10.521   6.458  0.1620 -0.6807 -0.1694
   26PET    H10  759   9.647  10.541   6.396  0.3783 -2.2991 -1.0155
   26PET    H11  760   9.717  10.596   6.536  2.8977 -0.2451  0.1085
   26PET    C12  761   9.729  10.385   6.519 -0.1324  0.8795 -0.2644
   26PET    H13  762   9.634  10.372   6.572  1.4201 -3.4434  1.6649
   26PET    H14  763   9.791  10.375   6.608 -1.0104 -0.5497  0.1936
   27PET     C9  764   9.720  10.257   6.426 -0.1168 -0.1925 -0.1078
   27PET     H6  765   9.626  10.262   6.369  0.8974  2.4610 -1.6407
   27PET     H7  766   9.725  10.162   6.481  0.1903 -0.9750 -1.4603
   27PET     O2  767   9.835  10.252   6.337 -0.3190  0.2494 -0.1690
   27PET     C8  768   9.829  10.145   6.245 -0.6282 -0.2266 -0.7290
   27PET     O1  769   9.738  10.070   6.236 -0.2176 -0.2118 -0.0333
   27PET     C4  770   9.962  10.137   6.166 -0.2005  0.5408 -0.1929
   27PET     C5  771  10.063  10.229   6.193  0.2532 -0.4174 -0.3493
   27PET     C6  772  10.169  10.240   6.104  0.1832  0.8378  0.1008
   27PET     H4  773  10.240  10.322   6.113  0.2097  0.8207  0.0548
   27PET     H3  774  10.050  10.302   6.272 -0.8214  0.2229 -1.0967
   27PET     C3  775   9.959  10.050   6.057  0.0868 -0.1320 -0.0422
   27PET     H2  776   9.878   9.981   6.039 -0.6858  0.5827  0.6487
   27PET     C2  777  10.071  10.059   5.965  0.0021 -0.3097  0.4549
   27PET     H1  778  10.086   9.987   5.885  1.4170 -1.3715  1.6670
   27PET     C1  779  10.174  10.152   5.993  0.6501  0.8714  0.3284
   27PET     C7  780  10.283  10.166   5.894 -0.1052  0.3248 -0.5223
   27PET     O3  781  10.299  10.082   5.804  0.4540  0.3651 -0.0532
   27PET     O4  782  10.343  10.293   5.897  0.7390  0.9098  0.0491
   27PET    C10  783  10.473  10.303   5.825  0.1341  0.3155 -0.2738
   27PET     H8  784  10.474  10.256   5.726  1.0125 -1.6890  0.6618
   27PET     H9  785  10.552  10.259   5.887 -0.6730 -1.0984 -0.2383
   27PET    C11  786  10.500  10.446   5.811 -0.5243  0.2869 -0.0342
   27PET    H10  787  10.493  10.501   5.906 -0.3782  1.4133 -0.6700
   27PET    H11  788  10.414  10.493   5.761 -0.9792 -1.2433 -0.7053
   27PET    C12  789  10.637  10.495   5.748  0.6829 -0.1626 -0.1418
   27PET    H13  790  10.644  10.603   5.731  2.1517 -0.2139  0.0458
   27PET    H14  791  10.643  10.463   5.643 -3.2711  1.3945 -0.9105
   28PET     C9  792  10.758  10.436   5.820 -0.0907 -0.2542 -0.2593
   28PET     H6  793  10.845  10.480   5.771  1.2782 -1.6913  0.8377
   28PET     H7  794  10.744  10.329   5.797  0.7824 -0.3218 -0.4797
   28PET     O2  795  10.744  10.445   5.967  0.3050  0.5291 -0.2490
   28PET     C8  796  10.796  10.550   6.045  0.0760  0.1516  0.2228
   28PET     O1  797  10.858  10.636   5.996  0.4323  0.2504 -0.2067
   28PET     C4  798  10.756  10.535   6.191 -0.7842 -0.1907  0.6377
   28PET     C5  799  10.640  10.469   6.235 -0.9535  0.7169  0.2234
   28PET     C6  800  10.612  10.452   6.369 -0.2088  0.5778 -0.7668
   28PET     H4  801  10.527  10.388   6.395  1.2916 -0.7661  0.9678
   28PET     H3  802  10.571  10.410   6.176  0.9815 -0.5057 -0.8757
   28PET     C3  803  10.835  10.599   6.280 -0.9281  1.2348 -0.3843
   28PET     H2  804  10.921  10.655   6.246  1.1476 -1.8213 -0.3384
   28PET     C2  805  10.815  10.576   6.421  0.1515 -0.2939  0.3309
   28PET     H1  806  10.876  10.620   6.499  0.8670  1.4594 -1.1800
   28PET     C1  807  10.704  10.503   6.462  0.7343 -0.1017 -0.6215
   28PET     C7  808  10.662  10.506   6.610 -0.9553  0.7582  0.4058
   28PET     O3  809  10.736  10.540   6.697 -0.6252 -0.6358 -0.4301
   28PET     O4  810  10.552  10.429   6.628 -0.1591  0.7821  0.1509
   28PET    C10  811  10.510  10.417   6.755 -0.3847 -0.3611  0.1984
   28PET     H8  812  10.496  10.515   6.803 -1.9704 -0.0137 -0.9151
   28PET     H9  813  10.582  10.360   6.814 -0.2017  0.4602  0.7776
   28PET    C11  814  10.365  10.364   6.766  0.1268 -0.4947 -0.4609
   28PET    H10  815  10.296  10.436   6.722 -2.8621 -1.4721  2.4560
   28PET    H11  816  10.333  10.363   6.870  2.5506 -4.5143  0.3797
   28PET    C12  817  10.343  10.225   6.696  1.3685  0.8351  0.5758
   28PET    H13  818  10.399  10.148   6.751 -0.4264  0.7879  2.4036
   28PET    H14  819  10.391  10.233   6.598 -0.8910  1.0844 -0.5421
   29PET     C9  820  10.193  10.196   6.682 -0.5171 -0.0038  0.6655
   29PET     H6  821  10.150  10.273   6.618 -0.5321 -0.3480  0.2589
   29PET     H7  822  10.154  10.203   6.784  3.4029 -1.1079  2.3687
   29PET     O2  823  10.179  10.060   6.626  0.0343  0.6426  0.0081
   29PET     C8  824  10.067  10.036   6.566 -0.6935  0.2041  0.7352
   29PET     O1  825   9.964  10.095   6.585  0.4014 -0.4243 -0.1325
   29PET     C4  826  10.082   9.928   6.458  0.2132 -0.2310 -0.8832
   29PET     C5  827  10.210   9.889   6.413  0.7124  0.6386 -0.1479
   29PET     C6  828  10.210   9.789   6.317 -0.1908 -0.0855 -0.3293
   29PET     H4  829  10.307   9.750   6.288  1.8208  5.5585 -1.7911
   29PET     H3  830  10.300   9.935   6.452  0.5773 -0.9160  2.1183
   29PET     C3  831   9.967   9.879   6.399 -0.7316  0.1633 -0.1958
   29PET     H2  832   9.869   9.912   6.431 -0.2867  2.1331 -0.7680
   29PET     C2  833   9.968   9.788   6.295 -0.2965 -0.7594  0.2687
   29PET     H1  834   9.876   9.746   6.254 -0.3612 -0.2784 -0.0802
   29PET     C1  835  10.093   9.741   6.255 -0.3502  0.7712  1.2146
   29PET     C7  836  10.099   9.634   6.146  0.7453 -0.2915  0.6545
   29PET     O3  837  10.011   9.626   6.069  0.7224 -0.1076  0.2681
   29PET     O4  838  10.212   9.554   6.153  0.0470  0.4791 -0.2063
   29PET    C10  839  10.225   9.452   6.041  0.0249  0.7986  0.2925
   29PET     H8  840  10.213   9.495   5.941 -1.6484 -3.4200 -1.4149
   29PET     H9  841  10.147   9.379   6.064 -2.6234  2.6285 -2.5824
   29PET    C11  842  10.376   9.391   6.050 -0.3989 -0.5144  0.6164
   29PET    H10  843  10.389   9.305   5.983 -0.1804  0.1434 -0.1859
   29PET    H11  844  10.391   9.364   6.156  3.7878  1.8709  0.7437
   29PET    C12  845  10.492   9.499   6.024  0.4804  0.2635 -0.1971
   29PET    H13  846  10.436   9.593   6.035 -2.8288 -1.4463 -1.8263
   29PET    H14  847  10.514   9.506   5.917  0.7726  0.1331 -0.1457
   30PET     C9  848  10.611   9.469   6.110  0.4291  0.5719 -0.4594
   30PET     H6  849  10.685   9.530   6.057  2.7476 -2.2202 -0.5195
   30PET     H7  850  10.631   9.361   6.104 -2.6586 -0.0190 -0.7709
   30PET     O2  851  10.576   9.516   6.237  0.5098  0.2723 -0.3154
   30PET     C8  852  10.675   9.603   6.295  0.3124  1.1908 -0.4247
   30PET     O1  853  10.783   9.610   6.244  0.0256  0.2334 -0.2088
   30PET     C4  854  10.626   9.676   6.431  0.0416  0.8462  0.1026
   30PET     C5  855  10.702   9.783   6.478  0.1061  0.2180  0.2924
   30PET     C6  856  10.669   9.833   6.609  0.2524  0.3883 -0.0607
   30PET     H4  857  10.739   9.901   6.657  0.9361  0.8083 -1.6118
   30PET     H3  858  10.788   9.807   6.417  0.1927 -0.9244 -0.0407
   30PET     C3  859  10.503   9.626   6.490 -0.0360  0.5188  0.2454
   30PET     H2  860  10.435   9.549   6.454  1.4003 -1.4573  1.6597
   30PET     C2  861  10.465   9.689   6.614 -0.1704 -0.0479  0.0892
   30PET     H1  862  10.369   9.664   6.659 -1.4554  2.4858 -1.1673
   30PET     C1  863  10.550   9.790   6.669  0.2883  0.0464 -0.4410
   30PET     C7  864  10.507   9.845   6.804  0.0283 -0.0749 -0.1003
   30PET     O3  865  10.565   9.947   6.853 -0.3943  0.3673 -0.8447
   30PET     O4  866  10.391   9.794   6.858 -0.1453 -0.5307 -0.3664
   30PET    C10  867  10.351   9.825   6.992  0.4103  0.4160  0.4845
   30PET     H8  868  10.440   9.828   7.058  0.9234  0.2701 -0.1987
   30PET     H9  869  10.282   9.748   7.027  1.7186 -0.8223  0.3861
   30PET    C11  870  10.271   9.954   6.988  0.5913  0.6737  0.9801
   30PET    H10  871  10.183   9.948   6.923  2.2738 -0.0434 -1.2579
   30PET    H11  872  10.332  10.040   6.958 -0.9914  1.0264 -1.3730
   30PET    C12  873  10.224   9.988   7.133 -0.1729  0.1682  0.5255
   30PET    H13  874  10.138  10.053   7.152 -0.4988  1.2605 -4.1067
   30PET    H14  875  10.311  10.019   7.191  0.4940 -1.6828  0.5228
  16.73053  19.04228  11.48074
