Generic title
  875
    1PEO     C1    1   2.920   2.894   3.625  0.6429  0.2558 -0.1391
    1PEO     H3    2   2.878   2.872   3.526  0.9287  2.5112 -0.7932
    1PEO     H4    3   2.837   2.927   3.688 -0.8178  0.6250 -2.1918
    1PEO      O    4   2.982   2.777   3.667  0.3878 -0.3193  0.2519
    1PEO     C2    5   3.122   2.802   3.715  0.3763 -0.5997 -0.0394
    1PEO     H5    6   3.177   2.879   3.659 -0.3858  0.6048  0.8469
    1PEO     H6    7   3.180   2.709   3.704 -1.8045 -1.6579 -3.5632
    1PEO     C3    8   3.140   2.845   3.868 -0.1828 -0.5682  0.8261
    1PEO     H7    9   3.243   2.826   3.900 -0.1972 -0.2040  1.0929
    1PEO     H8   10   3.057   2.790   3.915 -2.0264  1.2489 -0.1900
    1PEO     O1   11   3.106   2.989   3.883 -0.6752  0.1935 -0.7629
    1PEO     C4   12   3.201   3.080   3.831  0.5856  0.5883 -0.3017
    1PEO     H9   13   3.173   3.186   3.836  2.7696  1.3364 -2.8464
    1PEO    H10   14   3.223   3.063   3.725  1.3785  0.9469 -0.1935
    1PEO     C5   15   3.336   3.075   3.913  0.0524 -0.6850  0.5264
    1PEO    H11   16   3.397   3.158   3.876 -0.3923 -0.2139  0.8419
    1PEO    H12   17   3.383   2.984   3.875  3.5919  2.1382 -2.2532
    1PEO     O2   18   3.321   3.075   4.054 -0.1722  0.7112 -0.3801
    1PEO     C6   19   3.247   3.191   4.114  0.0346  1.2693  0.6594
    1PEO    H13   20   3.222   3.174   4.219 -2.4161  1.8999  0.2251
    1PEO    H14   21   3.146   3.190   4.071  0.0835  4.0669  0.3789
    1PEO     C7   22   3.316   3.324   4.093  0.5806 -0.9048  0.9438
    1PEO    H15   23   3.423   3.306   4.106  0.6019 -2.2535 -0.8710
    1PEO    H16   24   3.272   3.388   4.171 -0.1579 -1.4974  1.0268
    1PEO     O3   25   3.292   3.377   3.963  0.6743  0.2519 -0.2973
    1PEO     C8   26   3.376   3.493   3.947  0.0891 -0.0285 -0.0778
    1PEO    H17   27   3.389   3.550   4.040 -2.6754 -0.1874  0.4320
    1PEO    H18   28   3.337   3.567   3.875 -0.9766 -1.2214 -0.7481
    1PEO     C9   29   3.514   3.449   3.902  0.2154  0.8731  0.4586
    1PEO    H19   30   3.560   3.533   3.848 -1.3075 -0.4919 -3.0502
    1PEO    H20   31   3.511   3.366   3.831 -1.4336  1.9034 -0.7093
    1PEO     O4   32   3.596   3.402   4.009 -0.3593 -0.2079 -0.0870
    1PEO    C10   33   3.703   3.491   4.045  0.6818  0.0099  0.5711
    1PEO    H21   34   3.742   3.462   4.143  0.1487 -0.9453  0.5096
    1PEO    H22   35   3.678   3.597   4.047 -0.2557 -0.1306 -1.6957
    2PEO     C1   36   3.802   3.453   3.938  0.5960 -0.2839 -0.1729
    2PEO     H3   37   3.892   3.510   3.967  0.6609 -1.4155  1.8671
    2PEO     H4   38   3.784   3.487   3.835  2.9571 -0.3676 -0.6486
    2PEO      O   39   3.815   3.307   3.944 -0.0258  0.6361 -0.3659
    2PEO     C2   40   3.916   3.249   3.866  0.3832 -0.5803  0.4913
    2PEO     H5   41   4.013   3.299   3.878  2.4670 -3.8990 -1.8315
    2PEO     H6   42   3.877   3.267   3.765  0.4290 -0.3960  0.5050
    2PEO     C3   43   3.930   3.099   3.900 -0.4983  0.4514  0.0907
    2PEO     H7   44   4.013   3.062   3.838 -2.1551 -0.6279 -1.5102
    2PEO     H8   45   3.834   3.048   3.890  0.5166 -1.4281 -0.2860
    2PEO     O1   46   3.984   3.080   4.035 -0.5417  0.4142  0.3280
    2PEO     C4   47   3.995   2.938   4.068 -0.1917 -0.3389 -0.1242
    2PEO     H9   48   3.906   2.883   4.037 -0.1700 -0.5202  0.1342
    2PEO    H10   49   4.017   2.927   4.175  0.3439  1.0018 -0.0863
    2PEO     C5   50   4.105   2.856   3.993 -0.0548  0.0810 -0.7845
    2PEO    H11   51   4.135   2.770   4.054  2.9220  2.1444  0.7933
    2PEO    H12   52   4.199   2.913   3.987 -0.9553  1.8481  1.3606
    2PEO     O2   53   4.070   2.825   3.859 -0.6184 -0.1864 -0.0260
    2PEO     C6   54   3.994   2.714   3.824  0.2996 -0.6837  0.1392
    2PEO    H13   55   3.943   2.731   3.729 -1.0755 -0.1456  0.9510
    2PEO    H14   56   3.916   2.690   3.897  1.2469 -1.0427  1.0479
    2PEO     C7   57   4.096   2.597   3.812  0.0068  0.1538 -0.5014
    2PEO    H15   58   4.121   2.558   3.911  3.3137  1.6478 -0.6527
    2PEO    H16   59   4.184   2.642   3.764  1.2499  1.5464  2.9912
    2PEO     O3   60   4.044   2.491   3.727  0.0270 -0.0990  0.2145
    2PEO     C8   61   3.958   2.394   3.804 -0.6270 -1.0547 -0.0071
    2PEO    H17   62   3.855   2.431   3.808 -0.4011 -0.1389 -1.9363
    2PEO    H18   63   3.990   2.379   3.908 -0.7788  1.5062  0.4541
    2PEO     C9   64   3.962   2.276   3.696 -0.7691 -0.2481  0.4835
    2PEO    H19   65   4.051   2.219   3.726  0.2514  1.0298 -0.1019
    2PEO    H20   66   3.975   2.311   3.594  1.1183  0.2318  0.8745
    2PEO     O4   67   3.851   2.192   3.722 -0.2831 -0.3232  0.4970
    2PEO    C10   68   3.722   2.236   3.667 -0.7467 -0.0212 -0.1872
    2PEO    H21   69   3.732   2.285   3.570 -0.7284  3.9185  1.7112
    2PEO    H22   70   3.681   2.312   3.735 -2.0457  1.0149 -2.0952
    3PEO     C1   71   3.632   2.122   3.673  0.0987 -0.7050  0.7746
    3PEO     H3   72   3.661   2.056   3.756  1.9258 -1.7758 -0.6829
    3PEO     H4   73   3.648   2.055   3.588  1.1740 -0.5897  0.8801
    3PEO      O   74   3.495   2.161   3.675 -0.1025 -0.1486  0.6253
    3PEO     C2   75   3.440   2.212   3.547  0.2902 -0.3960  0.7343
    3PEO     H5   76   3.333   2.190   3.542  0.8618 -3.4752  0.8975
    3PEO     H6   77   3.489   2.161   3.463 -2.7800 -0.3912 -1.1425
    3PEO     C3   78   3.439   2.367   3.550  0.1319 -1.5391  0.1263
    3PEO     H7   79   3.443   2.387   3.658  1.0158  1.4059 -0.3939
    3PEO     H8   80   3.342   2.407   3.517  1.6743 -0.1787 -2.8442
    3PEO     O1   81   3.545   2.435   3.481  0.7051 -0.4915 -0.5787
    3PEO     C4   82   3.582   2.562   3.542 -0.8436 -0.0426  0.2725
    3PEO     H9   83   3.669   2.603   3.489 -1.1708  1.2469  0.7174
    3PEO    H10   84   3.616   2.543   3.645  0.6980  0.9571 -0.0398
    3PEO     C5   85   3.475   2.675   3.516 -0.1644  0.5166 -0.2592
    3PEO    H11   86   3.383   2.619   3.495  0.0788 -1.0107  2.4169
    3PEO    H12   87   3.490   2.747   3.436 -1.1183  0.8973 -0.1067
    3PEO     O2   88   3.455   2.748   3.641  0.0424 -0.7230  0.0205
    3PEO     C6   89   3.565   2.799   3.718  0.1422 -0.3931 -0.5284
    3PEO    H13   90   3.641   2.724   3.744 -1.3282 -2.7333 -2.7570
    3PEO    H14   91   3.530   2.845   3.810 -0.1174 -1.4764 -0.0732
    3PEO     C7   92   3.632   2.912   3.644 -0.7411  0.5263  0.1643
    3PEO    H15   93   3.674   2.992   3.706 -0.7550 -0.3393  1.3092
    3PEO    H16   94   3.554   2.954   3.579 -1.0947  1.7159  1.3340
    3PEO     O3   95   3.741   2.862   3.560 -0.3904  0.2307  0.0287
    3PEO     C8   96   3.846   2.956   3.503  0.3504 -0.6476  1.0141
    3PEO    H17   97   3.930   2.905   3.455 -1.1482 -2.6991  0.5425
    3PEO    H18   98   3.897   3.016   3.580 -0.7345  1.4497  0.1521
    3PEO     C9   99   3.767   3.058   3.404 -0.1674 -0.5810  0.0393
    3PEO    H19  100   3.701   2.991   3.348  1.3718 -0.4549 -1.9941
    3PEO    H20  101   3.837   3.106   3.334 -0.1542 -0.6188  0.0266
    3PEO     O4  102   3.694   3.160   3.484  0.2743 -0.3682  0.2712
    3PEO    C10  103   3.605   3.234   3.415  1.0592 -0.3394 -0.7217
    3PEO    H21  104   3.519   3.177   3.378 -0.9986 -0.8774  4.5102
    3PEO    H22  105   3.642   3.298   3.334 -1.5769 -0.1429 -1.8101
    4PEO     C1  106   3.559   3.337   3.524 -0.8147  0.6015  0.4677
    4PEO     H3  107   3.649   3.389   3.562 -0.1535  0.8221 -1.3447
    4PEO     H4  108   3.503   3.282   3.600 -0.9230 -1.3105 -0.9470
    4PEO      O  109   3.476   3.428   3.459 -0.5279 -0.3204 -0.3891
    4PEO     C2  110   3.421   3.515   3.549 -0.8502  1.0704  0.3906
    4PEO     H5  111   3.501   3.563   3.607 -0.3807  0.9493 -0.1586
    4PEO     H6  112   3.355   3.454   3.614  1.3019 -1.7731  0.0067
    4PEO     C3  113   3.331   3.624   3.488  0.0060  0.1939  0.8817
    4PEO     H7  114   3.268   3.585   3.407  2.4516  1.8927 -1.9794
    4PEO     H8  115   3.395   3.697   3.436  0.0462 -1.8427 -2.0840
    4PEO     O1  116   3.236   3.693   3.581 -0.6634 -0.4994 -0.1342
    4PEO     C4  117   3.130   3.615   3.643  0.2806 -0.7999 -0.0101
    4PEO     H9  118   3.127   3.634   3.751 -1.8843 -1.4350  0.0599
    4PEO    H10  119   3.145   3.507   3.636  1.5575 -0.7735  2.0911
    4PEO     C5  120   3.001   3.671   3.586 -0.5831  0.5427 -0.4059
    4PEO    H11  121   2.969   3.774   3.605  0.1683  1.0452 -1.7408
    4PEO    H12  122   2.925   3.609   3.635  1.5585  0.0188  2.3310
    4PEO     O2  123   2.995   3.639   3.442 -0.1386 -0.0104  0.1560
    4PEO     C6  124   2.899   3.539   3.417  0.0324 -0.0218  0.4722
    4PEO    H13  125   2.805   3.565   3.467 -0.4483  1.4135 -1.1459
    4PEO    H14  126   2.944   3.455   3.472  1.0302 -0.0545 -0.3773
    4PEO     C7  127   2.880   3.513   3.268 -0.1556  0.1104  0.2212
    4PEO    H15  128   2.816   3.588   3.220  1.8858  1.7352 -0.0387
    4PEO    H16  129   2.828   3.416   3.269  0.4413 -0.2424 -1.4712
    4PEO     O3  130   3.006   3.505   3.202  0.1817 -0.3361 -0.4538
    4PEO     C8  131   3.116   3.418   3.240  0.3050  0.3607 -0.9564
    4PEO    H17  132   3.152   3.443   3.340  4.5205 -2.4551 -1.6731
    4PEO    H18  133   3.199   3.459   3.181 -1.4012  1.5711 -2.6118
    4PEO     C9  134   3.073   3.273   3.225  0.3316  0.7974  0.3908
    4PEO    H19  135   3.152   3.219   3.170  1.7698  1.9273  1.3236
    4PEO    H20  136   2.990   3.268   3.153 -1.1226 -0.4686  2.1133
    4PEO     O4  137   3.036   3.211   3.351  0.0884  0.5619 -1.1372
    4PEO    C10  138   3.134   3.192   3.451  1.0005  0.2106  0.7908
    4PEO    H21  139   3.073   3.162   3.538  0.1405 -2.5091 -0.7142
    4PEO    H22  140   3.187   3.285   3.477  0.4737  0.2116  1.9460
    5PEO     C1  141   3.228   3.077   3.407  0.8110 -0.1154  0.5309
    5PEO     H3  142   3.294   3.064   3.494 -2.9190 -3.0727  3.0928
    5PEO     H4  143   3.288   3.108   3.321  3.3159  1.1729  2.6474
    5PEO      O  144   3.153   2.948   3.381 -0.0698  0.2741 -0.3527
    5PEO     C2  145   3.232   2.832   3.355 -0.1818  0.1991  0.0980
    5PEO     H5  146   3.172   2.743   3.381  0.4242 -0.1359  0.3677
    5PEO     H6  147   3.310   2.845   3.431  0.4520  0.9557 -0.6711
    5PEO     C3  148   3.281   2.830   3.218  0.6640 -0.2083  0.2557
    5PEO     H7  149   3.303   2.931   3.181  1.6935 -0.3726  0.4284
    5PEO     H8  150   3.209   2.794   3.143  0.8216  1.2947 -0.6272
    5PEO     O1  151   3.396   2.741   3.207 -0.6094 -0.0321  0.0839
    5PEO     C4  152   3.438   2.700   3.082 -0.1896  0.0843 -0.3210
    5PEO     H9  153   3.359   2.630   3.052  0.4020 -0.8037  0.1882
    5PEO    H10  154   3.531   2.644   3.094 -0.2385  0.4761  2.2879
    5PEO     C5  155   3.474   2.812   2.987 -0.3321  0.2288 -0.4810
    5PEO    H11  156   3.549   2.780   2.913 -2.5653 -0.3773 -2.5377
    5PEO    H12  157   3.534   2.886   3.040  0.5371  0.3408 -1.5876
    5PEO     O2  158   3.354   2.870   2.922  1.0076  0.6022  0.2552
    5PEO     C6  159   3.258   2.784   2.853  0.0090  0.5145  0.9082
    5PEO    H13  160   3.208   2.722   2.929  0.9804 -0.5017  0.7344
    5PEO    H14  161   3.309   2.716   2.784  0.3773  2.5481 -0.8558
    5PEO     C7  162   3.168   2.867   2.765  0.3505 -0.7406  0.8700
    5PEO    H15  163   3.124   2.820   2.676  0.6810  2.8709 -1.2815
    5PEO    H16  164   3.229   2.944   2.717 -1.5190  0.9627  1.1666
    5PEO     O3  165   3.069   2.944   2.846  0.4359 -0.1357  0.3621
    5PEO     C8  166   2.963   2.859   2.894 -0.6858  0.0362 -0.7996
    5PEO    H17  167   2.905   2.914   2.969  0.2303 -0.3903  0.2392
    5PEO    H18  168   2.997   2.774   2.954 -1.2652  0.4636  0.1533
    5PEO     C9  169   2.871   2.822   2.779  0.2359 -1.1070  0.5296
    5PEO    H19  170   2.910   2.726   2.743  0.8278 -0.4389 -0.6752
    5PEO    H20  171   2.874   2.884   2.688 -1.3309 -1.3832  0.2778
    5PEO     O4  172   2.740   2.794   2.832 -0.2208 -0.0236 -0.7415
    5PEO    C10  173   2.663   2.906   2.874  0.2407  0.0481  0.7820
    5PEO    H21  174   2.701   2.967   2.957  1.1963  0.0219  0.3628
    5PEO    H22  175   2.561   2.879   2.906 -1.1721  3.6980 -0.3628
    6PET     C9  176   2.633   2.998   2.753  0.0262 -0.7206  0.4175
    6PET     H6  177   2.534   3.045   2.761  0.6649  0.5524  0.9953
    6PET     H7  178   2.633   2.927   2.669 -0.3892  0.1253 -0.3030
    6PET     O2  179   2.741   3.095   2.729  0.6183  0.0918  0.2561
    6PET     C8  180   2.767   3.197   2.820 -0.0035  0.3332 -0.7344
    6PET     O1  181   2.681   3.223   2.906 -0.4260 -0.4066 -0.0170
    6PET     C4  182   2.899   3.268   2.805 -0.5394 -0.4494 -0.2013
    6PET     C5  183   2.995   3.219   2.719  0.3817  0.1086 -0.1659
    6PET     C6  184   3.116   3.294   2.711  0.4612  0.5986  1.7032
    6PET     H4  185   3.196   3.254   2.649 -1.2759 -0.1908 -0.0765
    6PET     H3  186   2.975   3.136   2.652 -2.1417  0.6416 -0.0977
    6PET     C3  187   2.926   3.382   2.882  0.2849  0.2106 -0.3662
    6PET     H2  188   2.854   3.420   2.954  1.8855 -2.7139  2.8660
    6PET     C2  189   3.041   3.458   2.871 -1.0189 -0.2809 -0.3295
    6PET     H1  190   3.057   3.547   2.930  1.3812 -0.7191 -0.2702
    6PET     C1  191   3.142   3.414   2.783 -0.1598  0.6042  0.2315
    6PET     C7  192   3.272   3.491   2.771  0.2668 -0.0376  0.0860
    6PET     O3  193   3.294   3.597   2.832  0.0394  0.6832 -0.6404
    6PET     O4  194   3.365   3.429   2.700  0.3829 -0.3073  0.0404
    6PET    C10  195   3.486   3.503   2.670 -0.6829 -1.3643 -0.2761
    6PET     H8  196   3.530   3.542   2.763 -0.6857  0.3931 -0.9972
    6PET     H9  197   3.483   3.596   2.612 -1.5646 -1.4707 -0.3956
    6PET    C11  198   3.575   3.401   2.594 -0.5104 -0.2453  0.1466
    6PET    H10  199   3.675   3.445   2.584 -0.5878  0.5421  2.5073
    6PET    H11  200   3.546   3.406   2.489  1.8290  2.8338 -0.4544
    6PET    C12  201   3.607   3.252   2.655  0.0488  0.4328 -0.3468
    6PET    H13  202   3.626   3.183   2.572 -4.6222 -0.2721 -0.9375
    6PET    H14  203   3.517   3.210   2.701  0.4668  0.4781  0.5184
    7PET     C9  204   3.731   3.251   2.753 -0.4353  0.3306  0.8516
    7PET     H6  205   3.814   3.296   2.697 -0.0214 -0.6912  0.6192
    7PET     H7  206   3.762   3.150   2.783  0.3630 -0.7378 -3.2294
    7PET     O2  207   3.704   3.322   2.872  0.0068  0.2704 -0.0044
    7PET     C8  208   3.791   3.308   2.975  0.0361  0.7203 -0.5696
    7PET     O1  209   3.869   3.218   2.996 -0.2893  0.0461  0.3996
    7PET     C4  210   3.761   3.405   3.095  0.6870 -0.6243 -0.0383
    7PET     C5  211   3.632   3.459   3.105 -0.4737 -1.1900 -0.0054
    7PET     C6  212   3.618   3.572   3.194  0.2209  0.4535 -0.1100
    7PET     H4  213   3.518   3.612   3.202 -1.1947 -3.0020  0.3060
    7PET     H3  214   3.550   3.411   3.054  0.5546 -0.5623 -2.2998
    7PET     C3  215   3.863   3.429   3.189 -0.6146  0.1137 -0.7465
    7PET     H2  216   3.958   3.377   3.186  0.0945  1.3781 -0.7923
    7PET     C2  217   3.841   3.526   3.287  0.4535 -0.3512  0.4060
    7PET     H1  218   3.926   3.537   3.353  3.1251 -1.2583 -2.7311
    7PET     C1  219   3.726   3.608   3.279  0.1906  0.4721  0.4255
    7PET     C7  220   3.706   3.712   3.384  0.1054 -0.0452 -0.2917
    7PET     O3  221   3.775   3.711   3.485 -0.3612 -0.3033  0.6019
    7PET     O4  222   3.602   3.800   3.365 -0.4598 -0.1966  0.4701
    7PET    C10  223   3.559   3.888   3.467  0.4496  0.2212  0.4905
    7PET     H8  224   3.652   3.928   3.508 -0.6723  1.6152  1.7502
    7PET     H9  225   3.484   3.838   3.530  0.5494 -0.4154  0.1048
    7PET    C11  226   3.493   4.012   3.395 -0.1305 -0.0956  0.9003
    7PET    H10  227   3.432   3.967   3.315  0.3457  0.6635  0.1031
    7PET    H11  228   3.561   4.079   3.341 -0.4508 -0.0269  0.5743
    7PET    C12  229   3.408   4.112   3.485  0.1687  0.6860 -0.5580
    7PET    H13  230   3.390   4.199   3.422  3.4363  1.2167 -0.8484
    7PET    H14  231   3.461   4.149   3.574  0.7535 -1.1995 -0.0956
    8PET     C9  232   3.271   4.067   3.524  1.1874 -1.1093 -0.2595
    8PET     H6  233   3.230   4.005   3.443 -2.8088  0.8554  0.1154
    8PET     H7  234   3.199   4.149   3.538  1.3627 -1.1225  0.7788
    8PET     O2  235   3.283   3.987   3.646  0.4295 -0.1667  0.4004
    8PET     C8  236   3.173   3.953   3.714  0.4451 -0.4389  0.6750
    8PET     O1  237   3.054   3.980   3.673  0.6195 -0.7487 -0.1136
    8PET     C4  238   3.203   3.910   3.862  0.4658  1.0104 -0.0191
    8PET     C5  239   3.329   3.853   3.900 -0.0209 -0.1879  0.0637
    8PET     C6  240   3.350   3.814   4.032  0.5381  0.0814 -0.0126
    8PET     H4  241   3.451   3.788   4.061  0.8971  0.3817 -0.9681
    8PET     H3  242   3.417   3.843   3.837 -0.6217 -0.3167 -0.7678
    8PET     C3  243   3.110   3.928   3.957 -0.7200 -1.5248 -0.1917
    8PET     H2  244   3.019   3.977   3.926 -0.5183  0.1448  1.7867
    8PET     C2  245   3.122   3.880   4.085 -0.5044 -0.3896 -0.4463
    8PET     H1  246   3.035   3.892   4.150 -0.6308  2.3237 -1.0182
    8PET     C1  247   3.245   3.826   4.123  0.1828  0.1152 -0.2896
    8PET     C7  248   3.263   3.772   4.260 -0.4948  0.4984 -0.1994
    8PET     O3  249   3.186   3.774   4.358 -0.6525 -0.0709  0.6338
    8PET     O4  250   3.401   3.730   4.272 -0.1612 -0.2372  0.5857
    8PET    C10  251   3.445   3.695   4.405 -0.5327 -0.9980  0.4567
    8PET     H8  252   3.386   3.608   4.436 -2.8645  1.4901  3.2700
    8PET     H9  253   3.415   3.771   4.477  0.3824  0.0069 -0.1985
    8PET    C11  254   3.595   3.654   4.412 -0.6976  0.4807  0.8130
    8PET    H10  255   3.647   3.744   4.376  2.7113 -0.3357  3.4480
    8PET    H11  256   3.607   3.569   4.345  3.1612  0.7330  1.0839
    8PET    C12  257   3.638   3.601   4.552 -0.1997 -1.6051  0.1886
    8PET    H13  258   3.618   3.685   4.619  0.8316 -0.4070 -0.9632
    8PET    H14  259   3.746   3.587   4.534 -0.2602 -0.9840 -0.6551
    9PET     C9  260   3.568   3.477   4.607  0.2411 -0.3255  0.0694
    9PET     H6  261   3.460   3.492   4.625  0.4829  1.6448 -0.0551
    9PET     H7  262   3.603   3.441   4.705 -2.4278 -1.2906  0.7201
    9PET     O2  263   3.581   3.369   4.506 -0.6578 -0.2581  0.5067
    9PET     C8  264   3.510   3.256   4.520  0.6359 -0.7399  0.0446
    9PET     O1  265   3.443   3.226   4.617  0.0090  0.0867  0.3946
    9PET     C4  266   3.519   3.161   4.404  0.1122 -0.3569 -0.0614
    9PET     C5  267   3.426   3.051   4.410  0.7394 -0.0554 -0.5989
    9PET     C6  268   3.437   2.946   4.313 -0.3116  0.0333  0.3336
    9PET     H4  269   3.369   2.863   4.332 -1.2353  1.0929  1.7760
    9PET     H3  270   3.353   3.036   4.489  0.9648 -0.7970 -0.5360
    9PET     C3  271   3.608   3.166   4.293 -0.5011  0.5875  0.2274
    9PET     H2  272   3.674   3.253   4.285  0.0760  0.0035 -1.5198
    9PET     C2  273   3.609   3.062   4.193  0.2652 -0.1324 -0.4254
    9PET     H1  274   3.671   3.079   4.106 -0.1993  0.9612 -0.5465
    9PET     C1  275   3.527   2.950   4.207  0.0709 -1.4633  0.2602
    9PET     C7  276   3.537   2.835   4.111  0.1737 -0.3858  0.7618
    9PET     O3  277   3.632   2.824   4.032  0.4608  0.1452 -0.8177
    9PET     O4  278   3.436   2.736   4.125 -0.0656 -1.3321 -0.2639
    9PET    C10  279   3.432   2.634   4.029  0.3026  0.1772  0.5805
    9PET     H8  280   3.525   2.576   4.031  0.5611  0.5117 -1.0003
    9PET     H9  281   3.427   2.682   3.931 -0.6331 -0.5642  0.2524
    9PET    C11  282   3.305   2.550   4.043  1.2101  0.1169  0.1131
    9PET    H10  283   3.223   2.609   4.085  0.8830  0.4614 -0.9907
    9PET    H11  284   3.316   2.470   4.116 -0.0792 -0.0797  0.1105
    9PET    C12  285   3.248   2.495   3.913 -0.0298 -0.0038 -0.7839
    9PET    H13  286   3.330   2.438   3.869  0.9748  0.6540  0.2052
    9PET    H14  287   3.226   2.572   3.838 -0.2423 -0.4882 -1.2222
   10PET     C9  288   3.127   2.390   3.931  0.6204 -0.6479  0.6845
   10PET     H6  289   3.036   2.441   3.965 -0.5765 -1.2499 -1.5194
   10PET     H7  290   3.152   2.305   3.995 -1.3038 -1.0389  0.9334
   10PET     O2  291   3.094   2.335   3.802 -0.6287 -0.5218 -0.2056
   10PET     C8  292   3.000   2.235   3.793 -0.6019  0.6905 -0.4407
   10PET     O1  293   2.946   2.189   3.892  0.8057 -0.4321 -0.0812
   10PET     C4  294   2.977   2.187   3.647 -0.2107  0.5528 -0.1859
   10PET     C5  295   3.056   2.245   3.548 -0.7725  0.0714 -0.1452
   10PET     C6  296   3.050   2.196   3.409 -0.1894 -0.8293 -0.1899
   10PET     H4  297   3.115   2.256   3.347  0.5005  1.1765  2.3820
   10PET     H3  298   3.116   2.335   3.558 -0.7296 -0.0349  0.5781
   10PET     C3  299   2.900   2.072   3.606  0.4202 -0.0500  0.2324
   10PET     H2  300   2.844   2.025   3.687  0.3315 -1.3592 -0.5814
   10PET     C2  301   2.895   2.024   3.471 -0.2129 -0.3072  0.1533
   10PET     H1  302   2.830   1.941   3.447  0.2343 -0.3935 -0.7799
   10PET     C1  303   2.974   2.084   3.374 -0.0909  0.3188 -0.8814
   10PET     C7  304   2.965   2.022   3.240 -1.2085  0.6599  0.2739
   10PET     O3  305   2.936   1.903   3.215 -0.2310  0.2104 -0.1554
   10PET     O4  306   2.965   2.112   3.138  0.2413  0.0942  0.4387
   10PET    C10  307   2.978   2.059   3.002 -0.4705  0.2414 -0.2556
   10PET     H8  308   2.893   1.998   2.971 -0.9023  1.2381 -1.0858
   10PET     H9  309   3.069   1.999   3.016 -0.4536 -0.3930 -2.9069
   10PET    C11  310   3.019   2.171   2.902 -0.2869 -0.1004 -0.0816
   10PET    H10  311   2.939   2.242   2.878  0.2668  0.2296 -1.0056
   10PET    H11  312   3.038   2.119   2.807 -2.4423  0.6060 -0.9187
   10PET    C12  313   3.144   2.254   2.927  0.0764  0.7564 -0.0525
   10PET    H13  314   3.163   2.332   2.852  0.6233 -0.0270 -0.7389
   10PET    H14  315   3.233   2.191   2.921 -0.0905  0.4912  0.2578
   11PET     C9  316   3.147   2.327   3.055  0.0440 -0.6408  0.3367
   11PET     H6  317   3.230   2.398   3.064  0.9131 -1.4426 -1.2735
   11PET     H7  318   3.144   2.259   3.141  0.8647  1.8055  2.3616
   11PET     O2  319   3.019   2.406   3.073 -0.3765 -0.1022 -0.3571
   11PET     C8  320   3.004   2.489   3.185 -0.2924  0.0362 -0.5409
   11PET     O1  321   3.083   2.484   3.277 -0.3594  0.0206 -0.0276
   11PET     C4  322   2.874   2.561   3.187  0.6135  1.0341 -0.2919
   11PET     C5  323   2.849   2.659   3.284 -0.4707  0.1751 -1.2183
   11PET     C6  324   2.730   2.735   3.291  0.2194 -0.1861  0.7817
   11PET     H4  325   2.725   2.813   3.366 -0.8504  0.1882  0.3317
   11PET     H3  326   2.933   2.683   3.348 -0.4810  0.3183 -1.2589
   11PET     C3  327   2.775   2.539   3.094  0.2086  0.8208  0.3678
   11PET     H2  328   2.783   2.465   3.014 -1.1756  1.8995 -0.8104
   11PET     C2  329   2.649   2.607   3.098  0.5230 -0.8259 -0.2448
   11PET     H1  330   2.580   2.586   3.018 -0.8875 -1.3547  1.0868
   11PET     C1  331   2.632   2.705   3.200  0.1377 -0.3703 -1.1191
   11PET     C7  332   2.499   2.777   3.200 -0.9382 -0.4191  0.4654
   11PET     O3  333   2.408   2.755   3.117 -0.3750  0.6346  0.1991
   11PET     O4  334   2.495   2.877   3.295  0.2014  0.3149 -0.3351
   11PET    C10  335   2.383   2.953   3.301  0.2724 -0.1936  0.2930
   11PET     H8  336   2.339   2.986   3.206 -0.5006 -1.8355  0.0618
   11PET     H9  337   2.405   3.045   3.358 -0.1734  0.5258 -0.6837
   11PET    C11  338   2.254   2.882   3.365 -0.5923  0.0509 -0.0485
   11PET    H10  339   2.224   2.802   3.297 -1.9972 -0.4652  1.1409
   11PET    H11  340   2.178   2.961   3.376  0.4041  1.4369 -2.6204
   11PET    C12  341   2.287   2.820   3.504 -0.4529 -0.2162  0.0164
   11PET    H13  342   2.320   2.893   3.579 -1.1516 -1.6453  1.7601
   11PET    H14  343   2.375   2.757   3.493 -0.1586  0.1475  0.2911
   12PET     C9  344   2.174   2.742   3.567  0.0227 -0.4059  0.0328
   12PET     H6  345   2.094   2.811   3.598  1.6071  2.1071 -1.2876
   12PET     H7  346   2.210   2.682   3.652 -3.4120 -2.8146 -0.1087
   12PET     O2  347   2.115   2.649   3.480  0.1288 -1.3312  0.3373
   12PET     C8  348   2.185   2.534   3.437 -0.5129  0.2823 -0.4373
   12PET     O1  349   2.295   2.501   3.471 -0.3627 -0.2641 -0.1135
   12PET     C4  350   2.109   2.439   3.354 -0.1067  0.1487  0.6598
   12PET     C5  351   1.977   2.464   3.315  0.2554 -0.0317 -0.1767
   12PET     C6  352   1.903   2.378   3.230 -0.0427  0.8347  0.1893
   12PET     H4  353   1.801   2.403   3.202  0.6490  1.1012 -2.2264
   12PET     H3  354   1.938   2.560   3.349 -1.6047 -1.2547  1.2537
   12PET     C3  355   2.168   2.317   3.311 -0.3816 -0.0103 -0.7415
   12PET     H2  356   2.265   2.285   3.348 -1.2573 -1.6122  0.2614
   12PET     C2  357   2.097   2.227   3.232 -0.4531  0.6561  0.1831
   12PET     H1  358   2.146   2.136   3.199 -0.2710  0.5867  0.6394
   12PET     C1  359   1.969   2.260   3.184 -0.1812 -0.3085 -0.2339
   12PET     C7  360   1.885   2.175   3.099 -0.0931  0.4048 -0.4366
   12PET     O3  361   1.914   2.060   3.065 -1.1221 -0.1661 -0.3028
   12PET     O4  362   1.777   2.234   3.042 -0.1748 -0.6813 -0.2000
   12PET    C10  363   1.702   2.157   2.948 -0.8783  0.1480  0.2432
   12PET     H8  364   1.684   2.058   2.992  2.5653 -0.9123 -0.5160
   12PET     H9  365   1.775   2.150   2.865  0.6306  3.4594  1.1855
   12PET    C11  366   1.583   2.243   2.891  0.7544  0.7478  0.0255
   12PET    H10  367   1.502   2.255   2.964 -1.2841 -2.2206 -1.6318
   12PET    H11  368   1.537   2.183   2.812  0.9716  0.3827  0.1746
   12PET    C12  369   1.617   2.385   2.829 -0.5780  0.3708 -0.1774
   12PET    H13  370   1.514   2.414   2.805 -0.1393  2.6131  0.4918
   12PET    H14  371   1.661   2.364   2.731 -0.3646 -1.5567  0.3087
   13PET     C9  372   1.706   2.496   2.901  0.4540  0.0964  0.4988
   13PET     H6  373   1.674   2.488   3.006  0.4077  1.0149  0.5571
   13PET     H7  374   1.681   2.595   2.862 -0.3626  0.1764  1.2113
   13PET     O2  375   1.847   2.468   2.870  0.3983  0.0793  0.0469
   13PET     C8  376   1.941   2.528   2.947  0.2079  1.2605  1.0895
   13PET     O1  377   1.921   2.611   3.027  0.2861 -0.6985 -0.7108
   13PET     C4  378   2.083   2.469   2.919  0.0784 -0.1479  0.3897
   13PET     C5  379   2.113   2.361   2.831  0.5091  1.6507  0.0952
   13PET     C6  380   2.243   2.311   2.814  0.7737 -0.1855  0.1508
   13PET     H4  381   2.273   2.231   2.746  0.1597 -2.1834  2.1532
   13PET     H3  382   2.032   2.308   2.781  2.2262  0.8335 -1.9399
   13PET     C3  383   2.193   2.525   2.990 -0.1310 -0.5122 -0.0774
   13PET     H2  384   2.172   2.610   3.054  2.7041  0.2228 -0.0554
   13PET     C2  385   2.316   2.462   2.988  0.8572 -0.3727  0.0804
   13PET     H1  386   2.384   2.489   3.068 -2.1110  2.0843  1.8899
   13PET     C1  387   2.339   2.354   2.907 -0.1867 -0.3295  0.8359
   13PET     C7  388   2.470   2.280   2.899 -0.3735 -0.2939 -0.5883
   13PET     O3  389   2.581   2.332   2.895 -0.2927 -0.1093 -0.6663
   13PET     O4  390   2.447   2.145   2.900 -0.6815  0.0293  0.2079
   13PET    C10  391   2.549   2.049   2.939  0.6357 -0.5064 -0.3335
   13PET     H8  392   2.647   2.071   2.895  1.1666 -0.8047  0.6862
   13PET     H9  393   2.524   1.949   2.900 -1.8027 -0.3466  0.7051
   13PET    C11  394   2.573   2.043   3.094  0.2349  0.7976 -0.4242
   13PET    H10  395   2.655   1.974   3.118 -0.6217 -0.8032 -1.9322
   13PET    H11  396   2.478   2.003   3.133  1.3469  1.0859  2.7255
   13PET    C12  397   2.605   2.169   3.167 -0.0594 -0.3463 -0.6505
   13PET    H13  398   2.527   2.243   3.147 -0.1934 -1.0104 -2.6620
   13PET    H14  399   2.699   2.221   3.145 -0.2168  1.0594  1.8512
   14PET     C9  400   2.588   2.144   3.319 -1.0255 -0.4087  0.6156
   14PET     H6  401   2.670   2.077   3.351 -0.5479 -0.8408 -1.4059
   14PET     H7  402   2.486   2.107   3.335 -1.5763  1.3074  1.1437
   14PET     O2  403   2.598   2.276   3.380 -0.4657 -0.0070 -0.0824
   14PET     C8  404   2.620   2.262   3.518 -0.2045 -0.1117  0.5423
   14PET     O1  405   2.635   2.157   3.584  1.2891 -0.2372  0.2622
   14PET     C4  406   2.633   2.399   3.588 -0.5762 -0.7522  0.1942
   14PET     C5  407   2.653   2.396   3.730 -0.3150  0.0407 -0.7059
   14PET     C6  408   2.665   2.519   3.802 -0.5121 -0.0397 -0.6956
   14PET     H4  409   2.706   2.525   3.903 -1.5173  1.4952 -0.3709
   14PET     H3  410   2.669   2.307   3.790 -0.6843  1.6843  1.8827
   14PET     C3  411   2.618   2.524   3.527  0.6065  0.6187  0.2881
   14PET     H2  412   2.595   2.521   3.421  1.0219 -0.2727  0.2225
   14PET     C2  413   2.607   2.645   3.602 -0.1776  0.3654 -0.0581
   14PET     H1  414   2.575   2.734   3.549 -0.7466  1.1633  1.5990
   14PET     C1  415   2.637   2.642   3.736 -0.0993  0.4895  0.5447
   14PET     C7  416   2.621   2.768   3.819 -0.4270 -1.1543  0.4284
   14PET     O3  417   2.634   2.766   3.941 -0.9371 -0.9785  0.0342
   14PET     O4  418   2.603   2.887   3.744  1.3402 -0.6170 -0.3175
   14PET    C10  419   2.600   3.006   3.821 -0.0038 -0.5740  0.6202
   14PET     H8  420   2.640   3.091   3.764  0.1366 -2.5627 -2.3714
   14PET     H9  421   2.668   2.994   3.906  0.5536 -1.3304  0.0811
   14PET    C11  422   2.451   3.038   3.863 -0.8650 -0.5413 -0.0166
   14PET    H10  423   2.422   2.955   3.928 -2.9725 -0.3661 -0.6821
   14PET    H11  424   2.385   3.034   3.775 -2.1876  0.1550  0.9222
   14PET    C12  425   2.426   3.179   3.914 -0.5838  0.3744 -0.0658
   14PET    H13  426   2.329   3.170   3.964  0.4447 -0.7745  1.7617
   14PET    H14  427   2.410   3.252   3.834 -0.4707 -1.7753 -2.0949
   15PET     C9  428   2.522   3.230   4.032 -1.0732 -0.6519 -0.2320
   15PET     H6  429   2.476   3.324   4.064  0.9766  0.6525 -0.9659
   15PET     H7  430   2.625   3.245   3.995 -0.4920 -0.9314  1.2498
   15PET     O2  431   2.518   3.133   4.123 -0.3312  0.1852 -0.1542
   15PET     C8  432   2.574   3.151   4.242 -0.5638  0.1635 -0.1874
   15PET     O1  433   2.600   3.261   4.285  0.1508 -0.0901  0.0754
   15PET     C4  434   2.590   3.026   4.325 -0.4728  1.1523  1.7120
   15PET     C5  435   2.574   2.898   4.267  0.4220 -0.2059 -0.1225
   15PET     C6  436   2.588   2.791   4.343 -0.1081 -0.4701 -1.0713
   15PET     H4  437   2.583   2.694   4.294  3.5127 -1.1836 -0.2199
   15PET     H3  438   2.543   2.887   4.164 -1.6542 -1.9165  0.6556
   15PET     C3  439   2.616   3.040   4.467  0.0284 -0.1050  0.1643
   15PET     H2  440   2.622   3.138   4.514 -0.7335  1.0222 -2.0242
   15PET     C2  441   2.634   2.924   4.540  0.5427 -0.2173  0.6708
   15PET     H1  442   2.643   2.927   4.649  2.4739  0.0943  0.5252
   15PET     C1  443   2.618   2.798   4.478  0.2029 -0.1787 -0.0497
   15PET     C7  444   2.636   2.677   4.561  0.7849 -1.1983 -0.0280
   15PET     O3  445   2.646   2.678   4.684 -0.7768 -0.0823  0.2018
   15PET     O4  446   2.665   2.560   4.485  0.3100  0.0402 -0.5883
   15PET    C10  447   2.689   2.437   4.558 -0.7590 -0.4120  0.5591
   15PET     H8  448   2.596   2.407   4.608 -0.4132 -1.1193  0.7799
   15PET     H9  449   2.763   2.458   4.636 -0.6127  0.7375  0.1245
   15PET    C11  450   2.737   2.320   4.468 -0.3744 -0.0041  0.0084
   15PET    H10  451   2.660   2.273   4.405  0.6363 -0.6777 -0.7389
   15PET    H11  452   2.759   2.240   4.540  1.0497  1.2853  1.0287
   15PET    C12  453   2.867   2.345   4.379 -0.5693 -0.2235  0.5094
   15PET    H13  454   2.915   2.250   4.354 -1.6269 -1.2440  2.1954
   15PET    H14  455   2.930   2.385   4.459  1.3384 -1.2445 -0.4732
   16PET     C9  456   2.849   2.430   4.251  0.0235 -1.3410 -0.0535
   16PET     H6  457   2.757   2.421   4.191  0.9795  1.2055 -2.0192
   16PET     H7  458   2.916   2.390   4.174  0.4675  2.7228 -1.9548
   16PET     O2  459   2.901   2.559   4.282  0.2848  0.5406  0.2047
   16PET     C8  460   2.928   2.636   4.171 -0.1873 -0.0528 -0.0815
   16PET     O1  461   2.926   2.599   4.060 -0.7133 -0.3170 -0.1157
   16PET     C4  462   2.947   2.778   4.206 -1.1393 -0.7606  0.2052
   16PET     C5  463   2.985   2.825   4.333  0.0795  0.1842 -1.0685
   16PET     C6  464   2.988   2.953   4.376  0.2240  0.7159 -0.6251
   16PET     H4  465   3.006   2.976   4.481  2.1412 -0.1360 -0.7519
   16PET     H3  466   2.994   2.749   4.410  0.1049  1.7389  0.4887
   16PET     C3  467   2.918   2.884   4.113 -0.2322 -0.3384 -1.1604
   16PET     H2  468   2.886   2.852   4.015  1.3162 -0.4419 -1.6433
   16PET     C2  469   2.938   3.013   4.142 -0.5208  0.3469  0.3312
   16PET     H1  470   2.908   3.094   4.076 -0.9582 -1.0573 -1.2360
   16PET     C1  471   2.962   3.055   4.280 -0.4579 -0.8347  0.4907
   16PET     C7  472   2.955   3.200   4.317 -0.3576 -0.0511 -0.2163
   16PET     O3  473   2.998   3.245   4.424  0.4926 -0.7423  0.1159
   16PET     O4  474   2.907   3.274   4.219  0.2921 -0.1692 -0.1420
   16PET    C10  475   2.878   3.414   4.249  0.3300  0.6979  1.1712
   16PET     H8  476   2.965   3.479   4.265  2.3986 -1.3934 -1.1201
   16PET     H9  477   2.812   3.424   4.336 -1.4505  1.7599 -0.2635
   16PET    C11  478   2.797   3.481   4.143 -0.1985 -0.1252  0.2944
   16PET    H10  479   2.740   3.564   4.187 -2.8449 -2.8683  2.2243
   16PET    H11  480   2.726   3.417   4.088  0.4907  1.4745 -2.5869
   16PET    C12  481   2.899   3.538   4.031  0.0614 -0.7080 -0.0393
   16PET    H13  482   2.984   3.586   4.081 -1.8288  1.0165  1.6156
   16PET    H14  483   2.844   3.611   3.971 -2.3289 -3.4594 -1.3291
   17PET     C9  484   2.948   3.433   3.937  0.2524  0.3628  0.0213
   17PET     H6  485   2.983   3.348   3.996  0.2345  0.8310  0.7039
   17PET     H7  486   3.025   3.485   3.878 -1.7578  0.5833 -2.5448
   17PET     O2  487   2.838   3.411   3.850 -0.0439 -0.1306 -0.0829
   17PET     C8  488   2.862   3.346   3.730 -0.0787  0.5528  0.0029
   17PET     O1  489   2.967   3.297   3.709  0.3337 -0.1042 -0.1875
   17PET     C4  490   2.739   3.327   3.645 -0.7206 -0.1225  0.5249
   17PET     C5  491   2.614   3.402   3.674 -0.3159 -0.0758  0.4866
   17PET     C6  492   2.498   3.377   3.605 -0.2215  0.0900  0.0646
   17PET     H4  493   2.407   3.431   3.633 -2.4077 -3.5650  0.3428
   17PET     H3  494   2.604   3.473   3.756  0.1386 -1.8008  2.0691
   17PET     C3  495   2.741   3.240   3.528 -0.5413  0.3348  0.3357
   17PET     H2  496   2.830   3.180   3.510 -1.5010 -0.7392 -0.9394
   17PET     C2  497   2.627   3.243   3.442 -0.3840 -0.9688  0.6336
   17PET     H1  498   2.613   3.194   3.347 -0.3758  1.3256 -0.5994
   17PET     C1  499   2.501   3.304   3.478 -0.3303  0.2853 -0.6016
   17PET     C7  500   2.372   3.295   3.394 -0.2165  0.9213 -0.2141
   17PET     O3  501   2.264   3.314   3.449 -0.4738 -1.1684 -0.2184
   17PET     O4  502   2.393   3.276   3.261  0.6437  0.1128  0.4875
   17PET    C10  503   2.280   3.282   3.174  0.1471  0.1319 -0.2660
   17PET     H8  504   2.206   3.359   3.201 -0.8887 -1.1033  0.4632
   17PET     H9  505   2.227   3.187   3.190  1.8176 -0.5591  1.3845
   17PET    C11  506   2.331   3.286   3.027  0.6151  0.3245  0.2594
   17PET    H10  507   2.365   3.183   3.007  1.0865  0.3165  1.0401
   17PET    H11  508   2.413   3.357   3.012 -1.9976  3.8837  2.0439
   17PET    C12  509   2.222   3.303   2.925  0.0989  0.7345  0.0392
   17PET    H13  510   2.173   3.397   2.951  2.3539  1.3005  2.3919
   17PET    H14  511   2.158   3.217   2.948  0.8713  0.5194  1.4221
   18PET     C9  512   2.275   3.294   2.785 -1.0319  0.3532 -0.0222
   18PET     H6  513   2.370   3.241   2.776 -0.5293  1.4818 -1.5789
   18PET     H7  514   2.286   3.384   2.722  0.3883 -0.1547 -0.5304
   18PET     O2  515   2.165   3.221   2.714  1.0274 -0.1197 -0.7578
   18PET     C8  516   2.170   3.092   2.691  0.4760 -0.3994 -0.2822
   18PET     O1  517   2.260   3.021   2.726  0.3130 -0.6034 -0.0591
   18PET     C4  518   2.056   3.036   2.612 -0.3210 -0.2096 -0.2271
   18PET     C5  519   2.064   2.904   2.559 -0.2644 -0.3392 -0.6702
   18PET     C6  520   1.970   2.854   2.471 -0.5896 -0.1354 -0.2414
   18PET     H4  521   1.979   2.759   2.420  1.9972  0.1771 -0.4322
   18PET     H3  522   2.160   2.855   2.574 -1.3452 -2.2316  0.3057
   18PET     C3  523   1.933   3.107   2.587 -0.8448  0.1414  0.6482
   18PET     H2  524   1.915   3.202   2.637 -0.8439 -0.6747  2.2334
   18PET     C2  525   1.834   3.057   2.508 -0.9217  0.1914  0.2680
   18PET     H1  526   1.741   3.111   2.488 -0.8785  0.5859  1.1429
   18PET     C1  527   1.859   2.930   2.450  0.3224 -0.9816 -0.7046
   18PET     C7  528   1.748   2.874   2.380  0.5136 -1.4820 -0.4496
   18PET     O3  529   1.654   2.940   2.337 -0.4330  0.3069  0.5675
   18PET     O4  530   1.747   2.738   2.352  0.2311 -0.0640 -0.2362
   18PET    C10  531   1.672   2.685   2.236 -0.7308  1.1794  0.0914
   18PET     H8  532   1.722   2.730   2.150  1.1882  3.2022  2.1835
   18PET     H9  533   1.570   2.726   2.242  0.0389  3.1409 -0.0829
   18PET    C11  534   1.680   2.532   2.245  0.1977 -0.8503  0.0322
   18PET    H10  535   1.602   2.485   2.183 -2.8889  1.6597  1.8869
   18PET    H11  536   1.653   2.504   2.347 -1.5545 -1.3359 -0.5414
   18PET    C12  537   1.816   2.472   2.206 -0.4037  0.5423 -0.0902
   18PET    H13  538   1.844   2.512   2.108  0.0214  1.0951  0.2515
   18PET    H14  539   1.811   2.363   2.197 -1.3371  0.6430 -0.8690
   19PET     C9  540   1.935   2.489   2.294 -0.0442  0.5738  0.2100
   19PET     H6  541   1.897   2.473   2.396  0.3488  0.8937  0.4074
   19PET     H7  542   1.978   2.590   2.291  1.8556 -0.2486 -0.8945
   19PET     O2  543   2.030   2.385   2.261 -1.2687  0.0406 -0.0524
   19PET     C8  544   2.145   2.373   2.339  0.5709  0.9335 -0.5609
   19PET     O1  545   2.161   2.420   2.452  0.5619 -0.5763  0.3022
   19PET     C4  546   2.231   2.258   2.281 -0.0472  0.7845 -0.6124
   19PET     C5  547   2.210   2.209   2.150  0.0011 -0.3922 -0.3216
   19PET     C6  548   2.274   2.091   2.107  0.7627 -0.3599 -0.1446
   19PET     H4  549   2.236   2.033   2.024 -0.0076  0.7098 -0.5555
   19PET     H3  550   2.137   2.254   2.083  0.5235  2.2210  0.8105
   19PET     C3  551   2.332   2.200   2.361 -0.0082 -0.4281 -0.3999
   19PET     H2  552   2.350   2.234   2.462 -1.4447  0.1116 -0.3167
   19PET     C2  553   2.402   2.091   2.308 -0.0864  1.0191 -0.4381
   19PET     H1  554   2.479   2.043   2.368 -1.6403 -0.2554  0.5916
   19PET     C1  555   2.371   2.036   2.182 -0.2048 -0.0282  0.6182
   19PET     C7  556   2.439   1.914   2.125 -1.3601  0.5192 -0.1594
   19PET     O3  557   2.368   1.823   2.084 -0.9078  0.3309 -0.0424
   19PET     O4  558   2.575   1.914   2.136  0.2316  0.7628  0.1252
   19PET    C10  559   2.647   1.809   2.078  0.1584  0.3035  0.5516
   19PET     H8  560   2.665   1.822   1.971 -1.2491 -2.8040 -0.1053
   19PET     H9  561   2.595   1.714   2.094 -1.2376  0.9766  0.0766
   19PET    C11  562   2.784   1.800   2.154 -0.1387 -0.3889 -1.1845
   19PET    H10  563   2.830   1.899   2.155  1.3026 -1.0597  1.1461
   19PET    H11  564   2.850   1.726   2.108 -0.7062 -1.9922  0.4922
   19PET    C12  565   2.780   1.739   2.298  1.5786 -0.3126  0.8795
   19PET    H13  566   2.886   1.726   2.321  2.9711  1.3083 -3.9901
   19PET    H14  567   2.731   1.641   2.304 -0.9198  0.7951 -0.5970
   20PET     C9  568   2.701   1.811   2.405  0.4028 -0.8784  0.9520
   20PET     H6  569   2.727   1.765   2.501  2.5042  0.1783  0.9196
   20PET     H7  570   2.595   1.809   2.378  1.3286  1.3787 -3.3514
   20PET     O2  571   2.748   1.950   2.402 -0.4815  0.3506  0.0134
   20PET     C8  572   2.701   2.031   2.497  0.7315 -0.6570 -0.2425
   20PET     O1  573   2.616   1.998   2.575 -0.6766  0.1977 -0.7281
   20PET     C4  574   2.792   2.157   2.517 -0.1247 -0.5749 -0.4131
   20PET     C5  575   2.791   2.248   2.630 -0.2803  0.4749 -0.5802
   20PET     C6  576   2.880   2.361   2.636  0.3206 -0.0670 -0.0290
   20PET     H4  577   2.891   2.429   2.720  2.4260  2.2502 -2.0863
   20PET     H3  578   2.740   2.237   2.725  1.0638  0.7273  0.1774
   20PET     C3  579   2.884   2.191   2.417  0.2307 -0.1265  0.3911
   20PET     H2  580   2.895   2.124   2.332 -0.1058 -0.7698  0.8549
   20PET     C2  581   2.971   2.293   2.427 -0.1065  0.4837 -0.0673
   20PET     H1  582   3.050   2.305   2.353  1.4611  0.3282  1.5245
   20PET     C1  583   2.960   2.387   2.528  0.7412  0.3633  0.5499
   20PET     C7  584   3.042   2.506   2.535  0.1998 -0.3448 -0.3456
   20PET     O3  585   3.054   2.577   2.633 -0.1666  0.0564 -0.2813
   20PET     O4  586   3.110   2.515   2.418 -0.2417 -0.0314  0.2332
   20PET    C10  587   3.215   2.614   2.425 -0.1532 -0.1160  0.3392
   20PET     H8  588   3.281   2.611   2.513 -1.1055 -0.8301  1.0295
   20PET     H9  589   3.168   2.713   2.425  0.1379  0.0261 -0.3066
   20PET    C11  590   3.303   2.618   2.292 -0.8114  0.1036 -0.7644
   20PET    H10  591   3.341   2.719   2.270 -3.2039  0.9469 -1.1998
   20PET    H11  592   3.239   2.596   2.206 -0.3382  2.0866 -1.6587
   20PET    C12  593   3.414   2.505   2.288 -0.7036 -0.1762 -0.1384
   20PET    H13  594   3.470   2.511   2.194  1.7255 -0.6418  1.2292
   20PET    H14  595   3.365   2.409   2.305  0.9179 -0.7658  1.2892
   21PET     C9  596   3.517   2.529   2.403  1.2056  0.5531 -1.0641
   21PET     H6  597   3.583   2.443   2.422  1.4283  0.9031 -0.2218
   21PET     H7  598   3.465   2.529   2.499  0.9922 -0.0137 -1.1757
   21PET     O2  599   3.585   2.649   2.375 -0.0444  0.5949  0.4137
   21PET     C8  600   3.685   2.696   2.458 -0.3185  0.3115 -0.2012
   21PET     O1  601   3.724   2.651   2.561  0.2274 -0.3442  0.2877
   21PET     C4  602   3.728   2.838   2.414 -0.5059 -0.2369  0.3496
   21PET     C5  603   3.674   2.894   2.298 -0.2708  0.0643  0.4316
   21PET     C6  604   3.698   3.027   2.258 -0.3692 -0.4067  0.9037
   21PET     H4  605   3.636   3.073   2.181  0.7041  0.4038  0.4907
   21PET     H3  606   3.599   2.841   2.240  0.0403 -0.1925  0.2662
   21PET     C3  607   3.830   2.902   2.478  0.4728 -0.4719 -0.3118
   21PET     H2  608   3.881   2.849   2.557 -0.2283 -2.4837 -1.1665
   21PET     C2  609   3.862   3.040   2.445 -0.5003 -0.3271  0.1567
   21PET     H1  610   3.943   3.080   2.506 -0.3111  3.1645 -2.2257
   21PET     C1  611   3.784   3.108   2.338 -0.6061  0.4396  0.2059
   21PET     C7  612   3.806   3.250   2.306 -0.2059  0.1517  0.4795
   21PET     O3  613   3.862   3.323   2.386  0.0177  0.4777  0.0504
   21PET     O4  614   3.777   3.283   2.178  0.9224 -0.6078  0.1559
   21PET    C10  615   3.792   3.412   2.118  0.8733 -0.4699  0.5777
   21PET     H8  616   3.896   3.437   2.092  1.3306  0.6709  3.2621
   21PET     H9  617   3.766   3.496   2.184 -2.6804  0.5905 -2.0291
   21PET    C11  618   3.696   3.438   1.994  0.0767  0.0505 -0.6034
   21PET    H10  619   3.706   3.539   1.953 -1.3281 -0.6581 -2.8071
   21PET    H11  620   3.592   3.432   2.028  0.1787  1.6833  0.0261
   21PET    C12  621   3.703   3.339   1.882  0.0525  0.5873  0.0622
   21PET    H13  622   3.678   3.239   1.919 -1.2814  0.6818 -0.5744
   21PET    H14  623   3.807   3.326   1.848  0.3183 -0.9704  1.3887
   22PET     C9  624   3.625   3.369   1.752 -0.6044  1.0586  0.2070
   22PET     H6  625   3.702   3.385   1.675  0.7550 -2.0444  0.8417
   22PET     H7  626   3.577   3.465   1.773  0.8604  1.2124  3.0536
   22PET     O2  627   3.541   3.266   1.708  0.1999 -0.1262  0.3945
   22PET     C8  628   3.427   3.239   1.775  0.3049  0.9479 -0.6556
   22PET     O1  629   3.396   3.289   1.884  0.4396 -0.4484  0.5413
   22PET     C4  630   3.346   3.131   1.704  0.5318 -0.3068  0.6754
   22PET     C5  631   3.342   3.124   1.561 -0.1462  0.0540 -0.9615
   22PET     C6  632   3.276   3.013   1.505  0.0350 -0.2307 -0.6953
   22PET     H4  633   3.287   2.995   1.398 -1.9073 -0.9967 -0.7832
   22PET     H3  634   3.374   3.204   1.494  1.8962  1.4745  1.6150
   22PET     C3  635   3.263   3.056   1.790  0.4937 -0.2116  0.6758
   22PET     H2  636   3.270   3.063   1.898 -0.2822 -0.4858  0.7497
   22PET     C2  637   3.205   2.947   1.726  0.6512  0.1323 -0.4657
   22PET     H1  638   3.150   2.879   1.791  1.4464  2.9655  3.3149
   22PET     C1  639   3.205   2.928   1.591 -0.6336 -0.7191 -0.7419
   22PET     C7  640   3.123   2.807   1.536  0.4468  0.2429 -0.0932
   22PET     O3  641   3.140   2.784   1.419 -0.5814 -0.0445  0.3836
   22PET     O4  642   3.033   2.747   1.609  0.9811  0.6868 -0.3426
   22PET    C10  643   2.957   2.628   1.561  0.2371 -0.0948 -0.4690
   22PET     H8  644   3.025   2.546   1.535  1.8752  1.1947 -0.2872
   22PET     H9  645   2.890   2.651   1.478 -0.0941  0.4412 -0.0543
   22PET    C11  646   2.873   2.586   1.682 -0.1935 -0.2608 -0.1607
   22PET    H10  647   2.929   2.591   1.776  0.6698  1.7968 -0.7513
   22PET    H11  648   2.835   2.484   1.669 -1.5828  0.5250 -2.5116
   22PET    C12  649   2.751   2.674   1.712  1.1087 -0.2599  0.6422
   22PET    H13  650   2.669   2.641   1.647  2.1038 -0.5571 -0.4729
   22PET    H14  651   2.770   2.779   1.687  1.8147 -0.8944 -1.5623
   23PET     C9  652   2.692   2.675   1.853 -0.4349 -0.4570 -0.7470
   23PET     H6  653   2.687   2.573   1.894  0.8425  0.6915  2.4101
   23PET     H7  654   2.592   2.717   1.843 -0.8106 -0.8752  1.2017
   23PET     O2  655   2.789   2.769   1.930  0.0548 -0.3719 -0.2232
   23PET     C8  656   2.779   2.774   2.064 -0.2746 -0.4657 -0.5899
   23PET     O1  657   2.682   2.726   2.132  0.4402 -0.9434  0.1290
   23PET     C4  658   2.896   2.827   2.136  0.8820  0.7178 -0.3317
   23PET     C5  659   3.003   2.865   2.061 -0.7332  0.3891  0.5121
   23PET     C6  660   3.119   2.922   2.126  0.3239 -0.1130 -0.1409
   23PET     H4  661   3.199   2.968   2.070  0.0228 -1.2789 -1.5770
   23PET     H3  662   2.996   2.857   1.953 -0.9241 -0.9198  0.6174
   23PET     C3  663   2.895   2.850   2.276 -0.3269  1.1872  0.4133
   23PET     H2  664   2.805   2.817   2.328  0.2072 -0.2825  0.4381
   23PET     C2  665   3.006   2.908   2.340  0.4651 -0.5964 -0.1906
   23PET     H1  666   3.013   2.913   2.448 -1.5613  0.7251 -0.1013
   23PET     C1  667   3.117   2.948   2.267 -0.2640 -0.3084 -0.1352
   23PET     C7  668   3.225   3.019   2.340 -0.1028  0.0530  0.1154
   23PET     O3  669   3.248   3.007   2.460  0.6844  0.7227 -0.0062
   23PET     O4  670   3.302   3.101   2.258 -0.5483  0.2960 -0.0213
   23PET    C10  671   3.377   3.210   2.323  0.5501  0.3415  0.0779
   23PET     H8  672   3.468   3.181   2.378 -0.1894 -1.0059  0.6040
   23PET     H9  673   3.317   3.265   2.397 -2.3102 -3.1320  0.4378
   23PET    C11  674   3.407   3.318   2.218 -0.3773  0.6228 -0.3452
   23PET    H10  675   3.389   3.287   2.115 -0.8511 -0.3019  0.0040
   23PET    H11  676   3.516   3.324   2.230 -0.1736 -1.6941 -0.7450
   23PET    C12  677   3.347   3.467   2.229  0.1419  0.5287 -0.1595
   23PET    H13  678   3.326   3.473   2.337  0.3839 -0.6725 -0.0414
   23PET    H14  679   3.252   3.473   2.175  0.7492 -0.0072 -1.3122
   24PET     C9  680   3.436   3.584   2.175 -0.6579  0.0029 -0.2715
   24PET     H6  681   3.544   3.563   2.181 -0.0944  3.2591  2.4205
   24PET     H7  682   3.426   3.681   2.225  1.5537  0.4387 -0.6103
   24PET     O2  683   3.397   3.592   2.044 -0.0787 -0.2434  0.3913
   24PET     C8  684   3.465   3.671   1.962  0.2662 -0.0019 -0.0824
   24PET     O1  685   3.566   3.735   1.996  0.7557 -0.3016  0.0724
   24PET     C4  686   3.415   3.673   1.815 -0.3643 -0.0164 -1.0363
   24PET     C5  687   3.321   3.578   1.771 -0.3039 -0.3205 -0.4717
   24PET     C6  688   3.295   3.570   1.629  0.7515  0.2110 -1.1075
   24PET     H4  689   3.225   3.496   1.591  1.0302  0.9323 -3.0465
   24PET     H3  690   3.263   3.519   1.841 -0.1455 -1.6872 -1.4660
   24PET     C3  691   3.495   3.733   1.719 -0.7596 -0.1169 -0.2846
   24PET     H2  692   3.585   3.789   1.742 -0.3472 -0.0613 -1.9639
   24PET     C2  693   3.458   3.734   1.584  1.3320 -0.3287  0.8442
   24PET     H1  694   3.523   3.797   1.524  3.9922 -0.8555  3.0551
   24PET     C1  695   3.351   3.653   1.536  0.1622  0.6605 -0.1731
   24PET     C7  696   3.298   3.659   1.395 -0.1888  0.4886 -0.3025
   24PET     O3  697   3.194   3.603   1.362  0.4890  0.3075 -0.4712
   24PET     O4  698   3.371   3.743   1.317  0.4019  0.3133  0.3507
   24PET    C10  699   3.328   3.796   1.191 -0.1819 -0.4015  0.0401
   24PET     H8  700   3.320   3.709   1.125 -2.4704  0.1824 -0.5124
   24PET     H9  701   3.409   3.858   1.151 -0.9671  1.3121  1.0288
   24PET    C11  702   3.196   3.892   1.205  0.9570  0.5742 -0.6829
   24PET    H10  703   3.111   3.859   1.266  0.7516  1.0494 -0.7063
   24PET    H11  704   3.164   3.903   1.101 -0.8947  1.9274 -0.0055
   24PET    C12  705   3.232   4.033   1.249  0.5164 -0.3308 -0.2078
   24PET    H13  706   3.142   4.095   1.260 -0.6333 -1.7045 -1.7808
   24PET    H14  707   3.300   4.086   1.181  1.9293  1.1430  2.2711
   25PET     C9  708   3.306   4.048   1.390 -0.1703  0.2844 -0.3650
   25PET     H6  709   3.327   4.155   1.389 -2.1034  0.7009  1.4098
   25PET     H7  710   3.389   3.976   1.392 -0.9017 -0.6292 -1.6731
   25PET     O2  711   3.217   4.021   1.493  0.4736  0.5672  0.5454
   25PET     C8  712   3.278   4.005   1.614 -0.2528  0.0140  0.4586
   25PET     O1  713   3.396   4.035   1.633 -0.1766  0.2934  0.2641
   25PET     C4  714   3.191   3.953   1.718  1.3559  0.6141 -0.1276
   25PET     C5  715   3.069   3.890   1.686  0.0185 -0.2260 -0.1704
   25PET     C6  716   2.990   3.847   1.793  1.1099  1.2867 -0.1523
   25PET     H4  717   2.888   3.816   1.773  0.5776  2.5312  0.5418
   25PET     H3  718   3.020   3.876   1.589 -2.2569 -1.5268  1.1093
   25PET     C3  719   3.244   3.947   1.850 -0.9449 -0.1380 -0.0463
   25PET     H2  720   3.340   3.995   1.869 -0.3763  0.0120 -3.0630
   25PET     C2  721   3.169   3.879   1.952  0.8997  0.3564  0.0252
   25PET     H1  722   3.213   3.872   2.051  3.0606  0.5136 -0.9083
   25PET     C1  723   3.037   3.830   1.926 -0.2608 -0.3375 -0.2050
   25PET     C7  724   2.953   3.753   2.026 -0.1850  0.2738  0.5147
   25PET     O3  725   2.845   3.701   1.996 -0.6940 -0.3463  0.3332
   25PET     O4  726   3.026   3.726   2.145 -0.5149 -0.8163  0.7504
   25PET    C10  727   2.947   3.678   2.254 -0.3444  0.0595 -0.2262
   25PET     H8  728   2.889   3.590   2.224  0.0650 -1.3424  2.9041
   25PET     H9  729   2.881   3.755   2.296 -1.8629  0.2684 -2.8555
   25PET    C11  730   3.042   3.647   2.361 -0.6472  0.0192 -0.0784
   25PET    H10  731   3.134   3.704   2.342 -1.5519  1.0394 -1.5102
   25PET    H11  732   3.057   3.538   2.360 -1.3021 -0.0935 -3.1926
   25PET    C12  733   2.991   3.675   2.500  1.5603 -0.1565  0.3295
   25PET    H13  734   2.933   3.767   2.507 -1.0514 -1.6975 -0.3065
   25PET    H14  735   3.077   3.686   2.567  0.5991  0.2739  1.5022
   26PET     C9  736   2.897   3.569   2.551  0.5797 -0.4524  0.2121
   26PET     H6  737   2.851   3.604   2.645  0.3958 -2.6517  0.9675
   26PET     H7  738   2.941   3.468   2.548 -0.1623 -0.7908  0.5097
   26PET     O2  739   2.783   3.553   2.454  0.0629  0.6430 -0.3933
   26PET     C8  740   2.667   3.493   2.500  0.5762  0.1015 -0.0379
   26PET     O1  741   2.641   3.474   2.615  0.1983  0.5335  0.0441
   26PET     C4  742   2.562   3.470   2.382 -0.0637  0.5553 -0.4551
   26PET     C5  743   2.424   3.435   2.416  0.0754  0.1027 -0.4004
   26PET     C6  744   2.332   3.388   2.317 -0.1350 -0.1359 -0.3272
   26PET     H4  745   2.230   3.362   2.343  0.3997  0.5583  2.7009
   26PET     H3  746   2.399   3.446   2.522  0.0023 -1.4732 -0.2468
   26PET     C3  747   2.598   3.454   2.247  0.2580  0.0360 -0.4181
   26PET     H2  748   2.692   3.492   2.208  0.8608  0.4849  1.4163
   26PET     C2  749   2.499   3.414   2.148  0.3748  0.5884 -0.3501
   26PET     H1  750   2.517   3.400   2.042 -0.5081 -0.2367 -0.3991
   26PET     C1  751   2.363   3.380   2.182  0.6337  0.4290 -0.7391
   26PET     C7  752   2.264   3.321   2.076  0.0212  0.6310  0.1925
   26PET     O3  753   2.301   3.319   1.961 -0.0445 -0.0048  0.3646
   26PET     O4  754   2.140   3.286   2.123  0.9732 -0.8585  0.5298
   26PET    C10  755   2.047   3.248   2.020  0.7308  0.6898  0.8143
   26PET     H8  756   2.090   3.164   1.964  1.7656  0.3518  2.0917
   26PET     H9  757   2.043   3.321   1.939 -1.4386 -0.1965  0.0819
   26PET    C11  758   1.913   3.206   2.087  0.1620 -0.6807 -0.1694
   26PET    H10  759   1.825   3.226   2.025  0.3783 -2.2991 -1.0155
   26PET    H11  760   1.895   3.281   2.165  2.8977 -0.2451  0.1085
   26PET    C12  761   1.907   3.070   2.148 -0.1324  0.8795 -0.2644
   26PET    H13  762   1.812   3.057   2.201  1.4201 -3.4434  1.6649
   26PET    H14  763   1.969   3.060   2.237 -1.0104 -0.5497  0.1936
   27PET     C9  764   1.898   2.942   2.055 -0.1168 -0.1925 -0.1078
   27PET     H6  765   1.804   2.947   1.998  0.8974  2.4610 -1.6407
   27PET     H7  766   1.903   2.847   2.110  0.1903 -0.9750 -1.4603
   27PET     O2  767   2.013   2.937   1.966 -0.3190  0.2494 -0.1690
   27PET     C8  768   2.007   2.830   1.874 -0.6282 -0.2266 -0.7290
   27PET     O1  769   1.916   2.755   1.865 -0.2176 -0.2118 -0.0333
   27PET     C4  770   2.140   2.822   1.795 -0.2005  0.5408 -0.1929
   27PET     C5  771   2.241   2.914   1.822  0.2532 -0.4174 -0.3493
   27PET     C6  772   2.347   2.925   1.733  0.1832  0.8378  0.1008
   27PET     H4  773   2.418   3.007   1.742  0.2097  0.8207  0.0548
   27PET     H3  774   2.228   2.987   1.901 -0.8214  0.2229 -1.0967
   27PET     C3  775   2.137   2.735   1.686  0.0868 -0.1320 -0.0422
   27PET     H2  776   2.056   2.666   1.668 -0.6858  0.5827  0.6487
   27PET     C2  777   2.249   2.744   1.594  0.0021 -0.3097  0.4549
   27PET     H1  778   2.264   2.672   1.514  1.4170 -1.3715  1.6670
   27PET     C1  779   2.352   2.837   1.622  0.6501  0.8714  0.3284
   27PET     C7  780   2.461   2.851   1.523 -0.1052  0.3248 -0.5223
   27PET     O3  781   2.477   2.767   1.433  0.4540  0.3651 -0.0532
   27PET     O4  782   2.521   2.978   1.526  0.7390  0.9098  0.0491
   27PET    C10  783   2.651   2.988   1.454  0.1341  0.3155 -0.2738
   27PET     H8  784   2.652   2.941   1.355  1.0125 -1.6890  0.6618
   27PET     H9  785   2.730   2.944   1.516 -0.6730 -1.0984 -0.2383
   27PET    C11  786   2.678   3.131   1.440 -0.5243  0.2869 -0.0342
   27PET    H10  787   2.671   3.186   1.535 -0.3782  1.4133 -0.6700
   27PET    H11  788   2.592   3.178   1.390 -0.9792 -1.2433 -0.7053
   27PET    C12  789   2.815   3.180   1.377  0.6829 -0.1626 -0.1418
   27PET    H13  790   2.822   3.288   1.360  2.1517 -0.2139  0.0458
   27PET    H14  791   2.821   3.148   1.272 -3.2711  1.3945 -0.9105
   28PET     C9  792   2.936   3.121   1.449 -0.0907 -0.2542 -0.2593
   28PET     H6  793   3.023   3.165   1.400  1.2782 -1.6913  0.8377
   28PET     H7  794   2.922   3.014   1.426  0.7824 -0.3218 -0.4797
   28PET     O2  795   2.922   3.130   1.596  0.3050  0.5291 -0.2490
   28PET     C8  796   2.974   3.235   1.674  0.0760  0.1516  0.2228
   28PET     O1  797   3.036   3.321   1.625  0.4323  0.2504 -0.2067
   28PET     C4  798   2.934   3.220   1.820 -0.7842 -0.1907  0.6377
   28PET     C5  799   2.818   3.154   1.864 -0.9535  0.7169  0.2234
   28PET     C6  800   2.790   3.137   1.998 -0.2088  0.5778 -0.7668
   28PET     H4  801   2.705   3.073   2.024  1.2916 -0.7661  0.9678
   28PET     H3  802   2.749   3.095   1.805  0.9815 -0.5057 -0.8757
   28PET     C3  803   3.013   3.284   1.909 -0.9281  1.2348 -0.3843
   28PET     H2  804   3.099   3.340   1.875  1.1476 -1.8213 -0.3384
   28PET     C2  805   2.993   3.261   2.050  0.1515 -0.2939  0.3309
   28PET     H1  806   3.054   3.305   2.128  0.8670  1.4594 -1.1800
   28PET     C1  807   2.882   3.188   2.091  0.7343 -0.1017 -0.6215
   28PET     C7  808   2.840   3.191   2.239 -0.9553  0.7582  0.4058
   28PET     O3  809   2.914   3.225   2.326 -0.6252 -0.6358 -0.4301
   28PET     O4  810   2.730   3.114   2.257 -0.1591  0.7821  0.1509
   28PET    C10  811   2.688   3.102   2.384 -0.3847 -0.3611  0.1984
   28PET     H8  812   2.674   3.200   2.432 -1.9704 -0.0137 -0.9151
   28PET     H9  813   2.760   3.045   2.443 -0.2017  0.4602  0.7776
   28PET    C11  814   2.543   3.049   2.395  0.1268 -0.4947 -0.4609
   28PET    H10  815   2.474   3.121   2.351 -2.8621 -1.4721  2.4560
   28PET    H11  816   2.511   3.048   2.499  2.5506 -4.5143  0.3797
   28PET    C12  817   2.521   2.910   2.325  1.3685  0.8351  0.5758
   28PET    H13  818   2.577   2.833   2.380 -0.4264  0.7879  2.4036
   28PET    H14  819   2.569   2.918   2.227 -0.8910  1.0844 -0.5421
   29PET     C9  820   2.371   2.881   2.311 -0.5171 -0.0038  0.6655
   29PET     H6  821   2.328   2.958   2.247 -0.5321 -0.3480  0.2589
   29PET     H7  822   2.332   2.888   2.413  3.4029 -1.1079  2.3687
   29PET     O2  823   2.357   2.745   2.255  0.0343  0.6426  0.0081
   29PET     C8  824   2.245   2.721   2.195 -0.6935  0.2041  0.7352
   29PET     O1  825   2.142   2.780   2.214  0.4014 -0.4243 -0.1325
   29PET     C4  826   2.260   2.613   2.087  0.2132 -0.2310 -0.8832
   29PET     C5  827   2.388   2.574   2.042  0.7124  0.6386 -0.1479
   29PET     C6  828   2.388   2.474   1.946 -0.1908 -0.0855 -0.3293
   29PET     H4  829   2.485   2.435   1.917  1.8208  5.5585 -1.7911
   29PET     H3  830   2.478   2.620   2.081  0.5773 -0.9160  2.1183
   29PET     C3  831   2.145   2.564   2.028 -0.7316  0.1633 -0.1958
   29PET     H2  832   2.047   2.597   2.060 -0.2867  2.1331 -0.7680
   29PET     C2  833   2.146   2.473   1.924 -0.2965 -0.7594  0.2687
   29PET     H1  834   2.054   2.431   1.883 -0.3612 -0.2784 -0.0802
   29PET     C1  835   2.271   2.426   1.884 -0.3502  0.7712  1.2146
   29PET     C7  836   2.277   2.319   1.775  0.7453 -0.2915  0.6545
   29PET     O3  837   2.189   2.311   1.698  0.7224 -0.1076  0.2681
   29PET     O4  838   2.390   2.239   1.782  0.0470  0.4791 -0.2063
   29PET    C10  839   2.403   2.137   1.670  0.0249  0.7986  0.2925
   29PET     H8  840   2.391   2.180   1.570 -1.6484 -3.4200 -1.4149
   29PET     H9  841   2.325   2.064   1.693 -2.6234  2.6285 -2.5824
   29PET    C11  842   2.554   2.076   1.679 -0.3989 -0.5144  0.6164
   29PET    H10  843   2.567   1.990   1.612 -0.1804  0.1434 -0.1859
   29PET    H11  844   2.569   2.049   1.785  3.7878  1.8709  0.7437
   29PET    C12  845   2.670   2.184   1.653  0.4804  0.2635 -0.1971
   29PET    H13  846   2.614   2.278   1.664 -2.8288 -1.4463 -1.8263
   29PET    H14  847   2.692   2.191   1.546  0.7726  0.1331 -0.1457
   30PET     C9  848   2.789   2.154   1.739  0.4291  0.5719 -0.4594
   30PET     H6  849   2.863   2.215   1.686  2.7476 -2.2202 -0.5195
   30PET     H7  850   2.809   2.046   1.733 -2.6586 -0.0190 -0.7709
   30PET     O2  851   2.754   2.201   1.866  0.5098  0.2723 -0.3154
   30PET     C8  852   2.853   2.288   1.924  0.3124  1.1908 -0.4247
   30PET     O1  853   2.961   2.295   1.873  0.0256  0.2334 -0.2088
   30PET     C4  854   2.804   2.361   2.060  0.0416  0.8462  0.1026
   30PET     C5  855   2.880   2.468   2.107  0.1061  0.2180  0.2924
   30PET     C6  856   2.847   2.518   2.238  0.2524  0.3883 -0.0607
   30PET     H4  857   2.917   2.586   2.286  0.9361  0.8083 -1.6118
   30PET     H3  858   2.966   2.492   2.046  0.1927 -0.9244 -0.0407
   30PET     C3  859   2.681   2.311   2.119 -0.0360  0.5188  0.2454
   30PET     H2  860   2.613   2.234   2.083  1.4003 -1.4573  1.6597
   30PET     C2  861   2.643   2.374   2.243 -0.1704 -0.0479  0.0892
   30PET     H1  862   2.547   2.349   2.288 -1.4554  2.4858 -1.1673
   30PET     C1  863   2.728   2.475   2.298  0.2883  0.0464 -0.4410
   30PET     C7  864   2.685   2.530   2.433  0.0283 -0.0749 -0.1003
   30PET     O3  865   2.743   2.632   2.482 -0.3943  0.3673 -0.8447
   30PET     O4  866   2.569   2.479   2.487 -0.1453 -0.5307 -0.3664
   30PET    C10  867   2.529   2.510   2.621  0.4103  0.4160  0.4845
   30PET     H8  868   2.618   2.513   2.687  0.9234  0.2701 -0.1987
   30PET     H9  869   2.460   2.433   2.656  1.7186 -0.8223  0.3861
   30PET    C11  870   2.449   2.639   2.617  0.5913  0.6737  0.9801
   30PET    H10  871   2.361   2.633   2.552  2.2738 -0.0434 -1.2579
   30PET    H11  872   2.510   2.725   2.587 -0.9914  1.0264 -1.3730
   30PET    C12  873   2.402   2.673   2.762 -0.1729  0.1682  0.5255
   30PET    H13  874   2.316   2.738   2.781 -0.4988  1.2605 -4.1067
   30PET    H14  875   2.489   2.704   2.820  0.4940 -1.6828  0.5228
   5.88059   5.88059   5.88059
