Generic title in water
 3475
    1PET     C9    1   1.121   1.945   0.876 -0.2980 -0.4862  0.1952
    1PET     H6    2   1.216   2.000   0.873  1.5572 -3.5189 -0.7473
    1PET     H7    3   1.049   1.979   0.801  1.0082 -1.2371 -1.4529
    1PET     O2    4   1.076   1.945   1.006 -0.2265 -0.4800  0.1505
    1PET     C8    5   1.148   1.883   1.104  0.7332  0.0344  0.3134
    1PET     O1    6   1.248   1.826   1.077 -0.7195 -0.3232 -0.4698
    1PET     C4    7   1.097   1.905   1.244  0.1205 -0.2816 -0.9319
    1PET     C5    8   1.138   1.822   1.352  0.5266  0.6345 -0.6542
    1PET     C6    9   1.097   1.843   1.481 -0.2376 -0.3424  0.4069
    1PET     H4   10   1.138   1.782   1.560  0.3834 -1.6736 -0.8799
    1PET     H3   11   1.216   1.751   1.327  1.6159  2.2543 -2.1710
    1PET     C3   12   1.006   2.004   1.277 -0.1242 -0.1111 -0.3780
    1PET     H2   13   0.976   2.076   1.200 -0.6646 -1.2994 -1.3062
    1PET     C2   14   0.962   2.023   1.411 -0.2792 -0.3222 -0.0792
    1PET     H1   15   0.879   2.087   1.436  0.3763 -0.1288  1.7352
    1PET     C1   16   1.008   1.948   1.517 -0.5169 -0.3124  0.2889
    1PET     C7   17   0.978   1.971   1.665  0.8440 -0.7691 -0.1095
    1PET     O3   18   1.001   1.885   1.751 -0.2931 -0.7804  0.2879
    1PET     O4   19   0.910   2.094   1.691  0.5642  0.0427  0.4457
    1PET    C10   20   0.858   2.115   1.823 -0.3255 -0.2364 -0.1325
    1PET     H8   21   0.849   2.223   1.839  2.2921  0.2345 -1.2438
    1PET     H9   22   0.930   2.085   1.900  1.4719  1.7929 -0.9255
    1PET    C11   23   0.717   2.051   1.840  0.7430 -0.1528  0.0674
    1PET    H10   24   0.690   2.061   1.946 -0.4630  1.6149 -0.3548
    1PET    H11   25   0.724   1.942   1.832 -0.4901 -0.2036 -0.6532
    1PET    C12   26   0.600   2.120   1.763 -0.0424 -0.5760 -0.0692
    1PET    H13   27   0.606   2.228   1.779  0.4122  0.2039 -4.3152
    1PET    H14   28   0.507   2.076   1.801  0.4510 -1.1628  0.4808
    2PEO     C1   29   0.602   2.090   1.615 -0.0195  1.0063 -0.1125
    2PEO     H3   30   0.606   1.980   1.611  1.3263  1.0395  0.0771
    2PEO     H4   31   0.692   2.121   1.561 -0.3542  0.3870 -1.0642
    2PEO      O   32   0.480   2.133   1.553 -0.6622 -0.0470  0.1486
    2PEO     C2   33   0.465   2.271   1.533  0.0717 -0.4785  0.2376
    2PEO     H5   34   0.513   2.341   1.602  0.0457 -0.1867 -0.0385
    2PEO     H6   35   0.356   2.284   1.536  0.2284  1.5229 -0.8738
    2PEO     C3   36   0.492   2.304   1.383 -0.5532 -0.0633 -0.0092
    2PEO     H7   37   0.416   2.378   1.355 -1.0034 -0.5136  0.0132
    2PEO     H8   38   0.478   2.210   1.329  1.3953 -0.7179  0.5065
    2PEO     O1   39   0.621   2.357   1.369 -0.0740 -0.0169  0.3997
    2PEO     C4   40   0.662   2.368   1.234 -0.6032 -0.1793  0.1557
    2PEO     H9   41   0.734   2.450   1.233 -1.0537  0.2577  1.3937
    2PEO    H10   42   0.577   2.402   1.174  0.2702  3.4878  0.7987
    2PEO     C5   43   0.732   2.235   1.179  0.2691 -0.4924 -0.5058
    2PEO    H11   44   0.794   2.189   1.257 -0.7150 -0.3547  0.3674
    2PEO    H12   45   0.805   2.266   1.103 -0.2631 -1.5067 -1.4644
    2PEO     O2   46   0.641   2.141   1.127  0.3619  0.4679  0.0948
    2PEO     C6   47   0.568   2.172   1.010 -0.3357  0.1292  1.0937
    2PEO    H13   48   0.631   2.164   0.921  0.8443 -3.2633  2.0852
    2PEO    H14   49   0.515   2.269   1.008 -0.9606 -0.2121 -1.1455
    2PEO     C7   50   0.456   2.065   0.988 -0.6257 -0.4614 -0.0360
    2PEO    H15   51   0.501   1.965   0.993 -1.8324 -0.9730  1.1325
    2PEO    H16   52   0.406   2.082   0.892  2.7819  0.7927 -1.7436
    2PEO     O3   53   0.361   2.079   1.096 -0.3008 -0.4259 -0.0311
    2PEO     C8   54   0.267   2.185   1.074  0.2822  0.1871 -0.3723
    2PEO    H17   55   0.313   2.282   1.049 -1.2349  0.8925 -0.5658
    2PEO    H18   56   0.203   2.203   1.161  1.7130  2.2611  0.3342
    2PEO     C9   57   0.161   2.152   0.971 -0.0463  0.2404  0.0303
    2PEO    H19   58   0.074   2.219   0.978  0.7207  1.1306  1.6111
    2PEO    H20   59   0.125   2.051   0.995  1.4962 -0.0886  1.0848
    2PEO     O4   60   0.218   2.162   0.836  0.2496 -0.3461 -0.6054
    2PEO    C10   61   0.132   2.120   0.725 -0.6705 -0.1692 -0.3964
    2PEO    H21   62   0.176   2.165   0.635  0.5436 -0.6245 -0.0645
    2PEO    H22   63   0.034   2.162   0.746 -0.7021 -0.9827  1.2832
    3PET     C9   64   0.139   1.968   0.699  0.2549 -0.0966 -0.1081
    3PET     H6   65   0.055   1.939   0.634 -0.9866  0.9390  0.9592
    3PET     H7   66   0.113   1.925   0.797 -1.4961  2.3380  0.5780
    3PET     O2   67   0.262   1.914   0.654  0.3733 -0.1647  0.3604
    3PET     C8   68   0.273   1.777   0.632  0.3826 -0.7640  0.1620
    3PET     O1   69   0.185   1.700   0.660  0.2839 -0.0303  0.6251
    3PET     C4   70   0.393   1.744   0.548  1.0309 -0.4877  0.2384
    3PET     C5   71   0.425   1.611   0.509  0.1896  0.2060 -0.1984
    3PET     C6   72   0.526   1.581   0.415 -0.4613 -1.1115 -0.3162
    3PET     H4   73   0.543   1.476   0.393  1.3729 -1.1904  1.2495
    3PET     H3   74   0.367   1.530   0.551  0.0917 -0.1934 -1.0721
    3PET     C3   75   0.471   1.842   0.488 -0.3737  1.1716 -0.5271
    3PET     H2   76   0.458   1.944   0.522  0.7529  1.2033 -0.1527
    3PET     C2   77   0.587   1.814   0.409 -0.3354  0.0916 -0.4567
    3PET     H1   78   0.648   1.897   0.375 -0.6849 -0.2940 -2.0941
    3PET     C1   79   0.614   1.684   0.360 -0.2365 -0.9463 -0.2893
    3PET     C7   80   0.718   1.648   0.264 -0.6006  0.1073  0.1741
    3PET     O3   81   0.805   1.731   0.238  0.1079  0.3224  0.0289
    3PET     O4   82   0.706   1.522   0.211  0.0144  0.3521  0.3916
    3PET    C10   83   0.812   1.486   0.123 -0.5619  0.8831  0.2167
    3PET     H8   84   0.913   1.495   0.166  0.0362  1.8920 -1.2956
    3PET     H9   85   0.820   1.549   0.033  2.1302  1.3885  0.7091
    3PET    C11   86   0.798   1.340   0.079 -0.2700  0.2180  0.1360
    3PET    H10   87   0.856   1.331  -0.014 -0.2606 -0.0199  0.1660
    3PET    H11   88   0.691   1.321   0.064 -0.0033 -0.9358 -0.3918
    3PET    C12   89   0.845   1.237   0.191 -0.5218  0.4533  0.7738
    3PET    H13   90   0.807   1.266   0.290 -0.3383 -1.3660  1.4014
    3PET    H14   91   0.954   1.245   0.200 -0.5056  1.3268 -0.0861
    4PET     C9   92   0.807   1.089   0.172  0.0633  0.3521  0.2343
    4PET     H6   93   0.880   1.020   0.218 -1.4056 -1.3205  0.1478
    4PET     H7   94   0.811   1.067   0.065  0.7899 -0.5265  0.4261
    4PET     O2   95   0.679   1.062   0.220  0.7074 -0.3785  0.0106
    4PET     C8   96   0.669   1.032   0.350 -0.4077 -0.3818  0.1719
    4PET     O1   97   0.776   1.008   0.419  0.2731 -0.6148 -0.5300
    4PET     C4   98   0.534   1.016   0.405  0.7415  0.3892 -0.3491
    4PET     C5   99   0.515   1.030   0.542  1.0027 -0.1344 -0.1716
    4PET     C6  100   0.381   1.012   0.589  0.2906 -0.1664  0.5043
    4PET     H4  101   0.365   1.015   0.696 -2.2764  0.8588  0.1505
    4PET     H3  102   0.600   1.034   0.610 -0.4513 -1.5049  1.8417
    4PET     C3  103   0.425   0.999   0.313  0.3613  1.0064 -0.1599
    4PET     H2  104   0.433   0.984   0.206 -1.6046  1.0736 -0.3546
    4PET     C2  105   0.297   0.985   0.363 -0.0681  0.7754 -0.4272
    4PET     H1  106   0.213   0.965   0.296 -0.5437  1.4756 -0.0565
    4PET     C1  107   0.268   0.997   0.502  0.4933  0.1412  0.0521
    4PET     C7  108   0.129   0.990   0.556  0.2781 -0.0569 -0.3874
    4PET     O3  109   0.034   1.014   0.486  0.0420  0.0323 -0.3801
    4PET     O4  110   0.124   0.941   0.687  0.2711  0.0979  0.1310
    4PET    C10  111   0.000   0.893   0.741 -0.5117  0.0691 -0.1608
    4PET     H8  112  -0.083   0.893   0.670 -1.0045 -0.2502  0.4104
    4PET     H9  113  -0.025   0.958   0.825  2.3821  0.8394  0.2277
    4PET    C11  114   0.031   0.749   0.788  1.0872 -0.4635 -0.1200
    4PET    H10  115  -0.036   0.704   0.862 -0.1695 -3.1042 -2.6290
    4PET    H11  116   0.122   0.764   0.846  0.3969  0.9515  0.6503
    4PET    C12  117   0.032   0.651   0.675 -0.0794  0.0784  0.3014
    4PET    H13  118  -0.068   0.640   0.631  0.6226  0.6937 -1.5770
    4PET    H14  119   0.053   0.556   0.726  3.4224  1.0236  0.9133
    5PET     C9  120   0.142   0.662   0.563 -0.3274  0.4675 -0.2953
    5PET     H6  121   0.116   0.753   0.507 -3.4887  0.4398  0.9645
    5PET     H7  122   0.130   0.579   0.491 -0.3377 -0.8055  1.1209
    5PET     O2  123   0.268   0.663   0.641  0.4737  0.2830  0.1097
    5PET     C8  124   0.383   0.684   0.572 -0.4614 -0.5719 -0.1287
    5PET     O1  125   0.394   0.687   0.448 -0.4749 -0.7180  0.1555
    5PET     C4  126   0.498   0.701   0.669  0.8190  0.0660  0.2567
    5PET     C5  127   0.632   0.718   0.627  0.8975 -0.2716 -0.5422
    5PET     C6  128   0.740   0.724   0.717 -0.1245  0.0599  0.4536
    5PET     H4  129   0.838   0.760   0.686  0.0640 -0.8356 -0.0213
    5PET     H3  130   0.661   0.746   0.526  2.8672  0.3690  0.1465
    5PET     C3  131   0.475   0.682   0.805 -0.9245 -0.3095  0.2385
    5PET     H2  132   0.381   0.639   0.841 -0.3490 -0.9858  0.9693
    5PET     C2  133   0.584   0.685   0.895 -0.0549  0.0082 -0.3247
    5PET     H1  134   0.568   0.662   1.000  2.8861  2.4429  0.7872
    5PET     C1  135   0.715   0.704   0.852 -0.4657 -0.1925 -1.0037
    5PET     C7  136   0.829   0.711   0.959  0.0085  0.4064 -0.3384
    5PET     O3  137   0.945   0.734   0.930  0.3511  0.1189 -0.5708
    5PET     O4  138   0.779   0.712   1.087 -0.0420 -0.3779  0.4273
    5PET    C10  139   0.868   0.703   1.194 -0.0754  0.8331 -0.5203
    5PET     H8  140   0.929   0.792   1.214 -0.9173  1.2826  0.1052
    5PET     H9  141   0.925   0.609   1.186  0.9754  1.4788 -0.7480
    5PET    C11  142   0.774   0.692   1.310 -0.3679 -0.1489 -0.3270
    5PET    H10  143   0.829   0.649   1.394  0.1790  0.3563 -0.4210
    5PET    H11  144   0.701   0.615   1.281 -1.6287 -0.4962  3.2761
    5PET    C12  145   0.701   0.824   1.353  0.4956  0.1332  0.0754
    5PET    H13  146   0.686   0.877   1.258  1.4715 -0.4700 -0.4362
    5PET    H14  147   0.767   0.886   1.414  0.4496  0.3083 -0.0518
    6PEO     C1  148   0.563   0.793   1.425 -0.3299  0.0283 -0.4155
    6PEO     H3  149   0.506   0.721   1.364 -2.3903  1.9860 -0.9452
    6PEO     H4  150   0.496   0.880   1.427  1.0332  1.0988 -0.4468
    6PEO      O  151   0.586   0.732   1.552  0.5442  0.0347 -0.1340
    6PEO     C2  152   0.473   0.735   1.641  0.0142 -0.1785  0.7247
    6PEO     H5  153   0.444   0.840   1.651 -0.5412 -0.2531 -0.0857
    6PEO     H6  154   0.511   0.687   1.733  1.6299  1.1870  0.8181
    6PEO     C3  155   0.354   0.650   1.579 -0.1357  0.6167  1.2265
    6PEO     H7  156   0.298   0.700   1.500 -0.1880  0.2517  1.0280
    6PEO     H8  157   0.298   0.628   1.671  1.9585  1.7478  2.8786
    6PEO     O1  158   0.396   0.522   1.513  0.5832  0.2373 -0.4561
    6PEO     C4  159   0.449   0.414   1.596 -0.0620  0.1034  0.6431
    6PEO     H9  160   0.527   0.469   1.649 -1.1466  0.7594  1.6110
    6PEO    H10  161   0.482   0.331   1.532  0.6840  1.4508 -0.7760
    6PEO     C5  162   0.340   0.353   1.688  0.0014  0.4174 -0.5203
    6PEO    H11  163   0.294   0.436   1.742  0.3468 -0.0189  0.4803
    6PEO    H12  164   0.392   0.287   1.760  0.2429 -0.0004 -1.0702
    6PEO     O2  165   0.243   0.295   1.601 -0.2218  0.3534 -0.3097
    6PEO     C6  166   0.147   0.208   1.670  0.0611 -0.2182 -0.3648
    6PEO    H13  167   0.211   0.164   1.748  1.7162  1.6251 -0.5748
    6PEO    H14  168   0.111   0.135   1.598  1.5772 -3.0440  1.5437
    6PEO     C7  169   0.026   0.294   1.734  0.2378 -0.9087 -0.1900
    6PEO    H15  170   0.063   0.375   1.798 -0.2787 -0.3647 -0.5733
    6PEO    H16  171  -0.035   0.227   1.796 -0.7238  0.0839 -0.0474
    6PEO     O3  172  -0.054   0.362   1.630 -0.1567  0.4309  0.3866
    6PEO     C8  173   0.001   0.480   1.576  0.6324  0.1095 -0.4492
    6PEO    H17  174   0.097   0.452   1.531  0.6898 -1.5215  0.5989
    6PEO    H18  175   0.010   0.556   1.654 -1.9479 -0.2750  0.3068
    6PEO     C9  176  -0.098   0.542   1.466  0.5775  0.3708 -0.1009
    6PEO    H19  177  -0.059   0.638   1.428 -0.2119 -0.8507 -4.4949
    6PEO    H20  178  -0.193   0.558   1.519  1.4784  0.1929  1.6506
    6PEO     O4  179  -0.104   0.440   1.367 -0.1223  0.7958  0.6813
    6PEO    C10  180  -0.201   0.477   1.266  0.4040 -1.0229  0.5534
    6PEO    H21  181  -0.299   0.495   1.313  0.2354  0.6494 -0.3670
    6PEO    H22  182  -0.206   0.390   1.200  0.5098 -0.5389 -0.0961
    7PET     C9  183  -0.143   0.602   1.187  0.3281  0.2751 -0.4106
    7PET     H6  184  -0.157   0.699   1.236 -1.7251  0.4430 -1.2267
    7PET     H7  185  -0.203   0.614   1.095 -3.3485 -0.9802  1.6219
    7PET     O2  186  -0.009   0.581   1.167  0.0866 -0.1267 -0.5535
    7PET     C8  187   0.031   0.497   1.065 -0.7460  0.2890  0.0081
    7PET     O1  188  -0.048   0.444   0.988  0.5890 -0.3888 -0.4236
    7PET     C4  189   0.178   0.477   1.063 -1.0152 -0.4624 -0.7692
    7PET     C5  190   0.261   0.513   1.175  0.7414 -0.4463 -0.0674
    7PET     C6  191   0.397   0.482   1.175  0.0269  0.0726  0.0962
    7PET     H4  192   0.455   0.497   1.265 -0.4667 -1.6940  0.7388
    7PET     H3  193   0.228   0.558   1.268  2.0677 -0.3495  0.3717
    7PET     C3  194   0.240   0.424   0.942  0.1502  0.1842 -0.7597
    7PET     H2  195   0.184   0.395   0.853 -0.5272 -1.4401  0.1676
    7PET     C2  196   0.372   0.387   0.948 -0.3137 -0.0140  0.2217
    7PET     H1  197   0.406   0.334   0.860 -0.0892 -0.6791  0.6993
    7PET     C1  198   0.452   0.415   1.068 -0.2667  0.2233  0.0336
    7PET     C7  199   0.602   0.375   1.076 -0.6764 -0.8063 -0.2714
    7PET     O3  200   0.666   0.382   1.180 -0.4150  0.0822 -0.1907
    7PET     O4  201   0.655   0.334   0.956 -1.0440 -0.2986  0.0474
    7PET    C10  202   0.793   0.287   0.951  0.6706 -0.0136  0.4090
    7PET     H8  203   0.814   0.205   1.020  0.0028  0.1006  0.7503
    7PET     H9  204   0.872   0.363   0.955  0.1852  0.6076 -1.1028
    7PET    C11  205   0.809   0.238   0.808  0.0036  0.0118 -0.2938
    7PET    H10  206   0.728   0.171   0.780 -1.4022  1.5056  0.0112
    7PET    H11  207   0.906   0.187   0.802  1.0284  1.6083  1.5779
    7PET    C12  208   0.815   0.348   0.705  0.3104  0.7977  0.2755
    7PET    H13  209   0.888   0.427   0.728 -0.6604  1.0058  3.0075
    7PET    H14  210   0.719   0.401   0.701 -0.2983 -0.3037 -0.0117
    8PET     C9  211   0.831   0.287   0.562 -0.0281 -0.5748 -0.4227
    8PET     H6  212   0.747   0.220   0.540 -1.2466  0.9761 -0.7401
    8PET     H7  213   0.919   0.223   0.561 -0.9248 -1.8493 -0.0563
    8PET     O2  214   0.844   0.388   0.464  0.6306  0.2192  0.3731
    8PET     C8  215   0.733   0.462   0.423  0.3970 -0.0649  0.7835
    8PET     O1  216   0.616   0.445   0.458  0.2516  0.6302 -0.4498
    8PET     C4  217   0.775   0.566   0.316  0.0943  0.7707 -0.5329
    8PET     C5  218   0.903   0.616   0.308  0.2352 -0.3518  0.1907
    8PET     C6  219   0.938   0.708   0.208  0.2808  0.1743  0.2185
    8PET     H4  220   1.037   0.751   0.207  1.2560 -1.9487  0.7072
    8PET     H3  221   0.978   0.585   0.381  1.6281 -0.6376 -1.3025
    8PET     C3  222   0.680   0.611   0.230  0.9292 -0.3607  0.8318
    8PET     H2  223   0.586   0.556   0.229 -1.1401  2.9191 -0.0667
    8PET     C2  224   0.708   0.705   0.135 -0.4937 -0.1869 -0.4095
    8PET     H1  225   0.623   0.734   0.073  0.5008  2.1814 -0.7595
    8PET     C1  226   0.841   0.742   0.113 -0.2303 -0.1277  0.8316
    8PET     C7  227   0.883   0.825  -0.008 -0.9424 -0.0058  0.2434
    8PET     O3  228   0.999   0.868  -0.024 -0.0298  0.2930  0.0177
    8PET     O4  229   0.782   0.858  -0.090  0.6368  0.0973 -0.1515
    8PET    C10  230   0.804   0.949  -0.195  0.1903  0.1452  0.6731
    8PET     H8  231   0.865   0.895  -0.268  3.2144 -0.8991  3.6819
    8PET     H9  232   0.855   1.041  -0.163  1.5750 -0.7156  1.0311
    8PET    C11  233   0.673   0.986  -0.266  0.0004  0.1050 -0.3873
    8PET    H10  234   0.645   0.904  -0.333 -0.0292 -0.3788  0.2050
    8PET    H11  235   0.702   1.077  -0.320  2.0544  0.4619  1.1743
    8PET    C12  236   0.566   1.043  -0.163  0.7308 -0.5251  0.6434
    8PET    H13  237   0.624   1.112  -0.102  1.2278  1.4519 -1.8674
    8PET    H14  238   0.536   0.951  -0.112  2.5133 -0.7757  1.3212
    9PET     C9  239   0.446   1.109  -0.220  0.4100  0.0943 -0.2008
    9PET     H6  240   0.392   1.037  -0.281  3.2345 -1.0106 -1.5751
    9PET     H7  241   0.482   1.190  -0.285  0.7356  0.0166 -0.1205
    9PET     O2  242   0.376   1.171  -0.114  0.2220  0.0956 -0.3925
    9PET     C8  243   0.286   1.088  -0.044 -0.0581 -0.4327 -0.0376
    9PET     O1  244   0.271   0.968  -0.056 -0.3902  0.5640  0.1554
    9PET     C4  245   0.212   1.159   0.061  0.3345 -0.0646 -0.4311
    9PET     C5  246   0.279   1.250   0.149  0.5783  0.5500  0.0947
    9PET     C6  247   0.210   1.307   0.254 -0.2090 -0.7661  0.0500
    9PET     H4  248   0.265   1.375   0.318 -0.9955 -0.2749  0.2087
    9PET     H3  249   0.383   1.275   0.130  0.2800  1.1655 -0.8145
    9PET     C3  250   0.072   1.131   0.087 -0.1442 -0.3185 -0.3969
    9PET     H2  251   0.008   1.070   0.024 -0.6872 -0.2255  0.0616
    9PET     C2  252   0.008   1.183   0.204 -0.4348  1.0366 -0.8617
    9PET     H1  253  -0.094   1.155   0.226  0.3389 -2.0286 -0.6836
    9PET     C1  254   0.074   1.274   0.285  0.6911 -0.2411  0.4251
    9PET     C7  255  -0.000   1.322   0.412 -0.9907 -0.2138  0.5667
    9PET     O3  256  -0.115   1.316   0.438  0.9533 -0.0433 -0.4489
    9PET     O4  257   0.093   1.376   0.502  0.0986 -0.1426 -0.0144
    9PET    C10  258   0.052   1.401   0.639 -0.5331 -0.2082  0.1317
    9PET     H8  259  -0.032   1.471   0.634 -1.2512 -0.7524  2.9143
    9PET     H9  260   0.136   1.453   0.687  0.8692 -2.4424  0.2535
    9PET    C11  261   0.033   1.277   0.723  0.1518 -0.3469  0.3500
    9PET    H10  262   0.132   1.230   0.710  0.2236 -0.2605  0.5867
    9PET    H11  263  -0.046   1.214   0.681 -0.3197  0.1079  0.5414
    9PET    C12  264   0.005   1.307   0.871  0.3730  0.0089 -0.3519
    9PET    H13  265   0.090   1.364   0.911 -0.4871 -0.2245  1.9421
    9PET    H14  266   0.018   1.217   0.932  2.2771  1.2136  1.1651
   10PET     C9  267  -0.130   1.365   0.896  0.0932  0.0442  0.3719
   10PET     H6  268  -0.198   1.282   0.874  0.9571 -0.3244 -1.0883
   10PET     H7  269  -0.145   1.447   0.824 -0.3011  1.0417  1.5568
   10PET     O2  270  -0.137   1.413   1.026  0.4704 -0.2402  0.0011
   10PET     C8  271  -0.185   1.343   1.130 -0.3743  0.1055 -0.0780
   10PET     O1  272  -0.237   1.229   1.120 -0.7785 -0.3262  0.9702
   10PET     C4  273  -0.180   1.422   1.259 -0.5094 -0.3431 -0.0996
   10PET     C5  274  -0.260   1.389   1.376 -0.5228 -0.6957  0.6021
   10PET     C6  275  -0.250   1.465   1.496 -0.5424  0.0406 -0.5284
   10PET     H4  276  -0.305   1.430   1.584 -0.4236 -1.1395 -0.8970
   10PET     H3  277  -0.328   1.305   1.368 -3.0359  1.1424  1.0389
   10PET     C3  278  -0.095   1.534   1.272  0.2034 -0.4412  0.2348
   10PET     H2  279  -0.032   1.572   1.193 -0.6293  2.6721  0.8823
   10PET     C2  280  -0.081   1.604   1.395  0.0632 -0.0324 -0.1896
   10PET     H1  281  -0.019   1.693   1.398 -0.9085  0.6580 -0.0942
   10PET     C1  282  -0.166   1.575   1.501  0.0326  0.0694 -0.3106
   10PET     C7  283  -0.144   1.645   1.636  0.2338 -0.6383  0.0632
   10PET     O3  284  -0.110   1.762   1.636  0.1527  0.0481 -0.0753
   10PET     O4  285  -0.181   1.571   1.742 -0.0547 -0.2224 -0.8035
   10PET    C10  286  -0.163   1.626   1.874 -0.1134 -0.1559  0.1792
   10PET     H8  287  -0.226   1.713   1.894 -0.8327 -1.0328  1.9806
   10PET     H9  288  -0.057   1.651   1.891 -0.1396  0.0967 -0.0324
   10PET    C11  289  -0.198   1.506   1.966 -0.1065  1.2162  0.2638
   10PET    H10  290  -0.134   1.417   1.955 -1.4580  0.3978 -1.4890
   10PET    H11  291  -0.292   1.473   1.920  0.5210 -0.1177 -0.1317
   10PET    C12  292  -0.220   1.524   2.115 -0.7983  0.7167 -0.0008
   10PET    H13  293  -0.264   1.431   2.155  0.3227 -0.1825 -0.7870
   10PET    H14  294  -0.280   1.613   2.138 -0.4807  1.0643 -0.4921
   11PET     C9  295  -0.082   1.544   2.178 -0.0293 -0.4555 -0.0343
   11PET     H6  296  -0.025   1.624   2.130  0.3805 -1.8022 -1.9488
   11PET     H7  297  -0.020   1.454   2.165  0.4254  0.0084 -1.2028
   11PET     O2  298  -0.091   1.585   2.317  0.4582  0.1971 -0.1560
   11PET     C8  299  -0.121   1.485   2.404  1.1044 -0.5300 -0.7524
   11PET     O1  300  -0.143   1.371   2.381  0.3378 -0.7239 -0.0195
   11PET     C4  301  -0.128   1.539   2.547  0.3658  0.6575 -0.7150
   11PET     C5  302  -0.066   1.658   2.592  0.1956  0.3110 -0.4296
   11PET     C6  303  -0.079   1.698   2.724 -0.3232  0.1179 -0.1145
   11PET     H4  304  -0.042   1.797   2.751  1.2937 -0.5646  0.2945
   11PET     H3  305  -0.011   1.721   2.524  1.3134 -1.1038 -0.8747
   11PET     C3  306  -0.187   1.457   2.639 -0.7213  0.4245  0.6184
   11PET     H2  307  -0.225   1.365   2.598 -4.4224  2.0458  0.0633
   11PET     C2  308  -0.202   1.493   2.777 -0.4016  0.5318 -0.5506
   11PET     H1  309  -0.257   1.429   2.845  1.2872 -1.5531 -1.0446
   11PET     C1  310  -0.143   1.617   2.818 -0.1699  0.4632 -0.5033
   11PET     C7  311  -0.154   1.665   2.962  0.5991 -0.1409  0.9719
   11PET     O3  312  -0.221   1.612   3.050  0.6210  0.6129  0.2079
   11PET     O4  313  -0.094   1.785   2.982 -0.2078  0.0473 -0.1382
   11PET    C10  314  -0.091   1.835   3.115 -0.6145  0.0142  0.2448
   11PET     H8  315  -0.042   1.762   3.181  0.6729 -0.1799 -0.8963
   11PET     H9  316  -0.189   1.874   3.145 -1.0783  0.3000 -1.5467
   11PET    C11  317   0.009   1.950   3.119 -0.1691 -0.0743 -0.4691
   11PET    H10  318   0.012   1.989   3.222 -1.1070  1.0017 -0.8242
   11PET    H11  319  -0.028   2.036   3.062 -1.1970  1.8597  2.8521
   11PET    C12  320   0.149   1.933   3.047  0.1957  0.3018  0.5225
   11PET    H13  321   0.205   2.026   3.058  1.8757  0.0087 -3.6767
   11PET    H14  322   0.138   1.914   2.940 -0.1594  2.0069  0.2379
   12PET     C9  323   0.234   1.825   3.118 -0.8567 -0.1189 -0.4645
   12PET     H6  324   0.213   1.831   3.225  0.5277 -1.8502 -0.0600
   12PET     H7  325   0.341   1.843   3.104 -0.8478  0.1413 -0.0796
   12PET     O2  326   0.202   1.691   3.078 -0.1597  0.4813  0.1595
   12PET     C8  327   0.248   1.628   2.970  0.2723 -0.2362  0.8545
   12PET     O1  328   0.307   1.682   2.875  0.0502 -0.4673  0.5936
   12PET     C4  329   0.195   1.486   2.966  0.1228 -0.8814 -0.0407
   12PET     C5  330   0.107   1.446   3.065  0.0147 -0.2831 -0.5458
   12PET     C6  331   0.079   1.312   3.082  0.1002  0.4217  0.1553
   12PET     H4  332   0.017   1.284   3.167  1.2082  1.2947  1.2852
   12PET     H3  333   0.072   1.512   3.144  1.5319 -1.0102  0.8138
   12PET     C3  334   0.244   1.384   2.877  0.3626 -0.0219 -0.3174
   12PET     H2  335   0.315   1.417   2.802  0.9554 -0.8615 -0.1482
   12PET     C2  336   0.202   1.249   2.878  0.5706 -0.2660  0.3329
   12PET     H1  337   0.226   1.177   2.800  0.1001  1.4529 -1.4709
   12PET     C1  338   0.129   1.213   2.989  0.1505  0.4229  0.0559
   12PET     C7  339   0.094   1.068   3.011  0.0622  0.3485 -0.1037
   12PET     O3  340   0.037   1.036   3.114 -0.2266  0.7069  0.8707
   12PET     O4  341   0.124   0.982   2.909  0.0902  0.2789  0.8367
   12PET    C10  342   0.095   0.839   2.925 -0.4455  0.3063 -0.1848
   12PET     H8  343   0.083   0.805   2.822 -0.0131 -1.2371  0.2558
   12PET     H9  344   0.011   0.817   2.992  0.0217  1.2724  0.7450
   12PET    C11  345   0.219   0.760   2.973 -0.0988 -0.1242 -0.8682
   12PET    H10  346   0.182   0.658   2.991  0.1751  0.2527  2.4475
   12PET    H11  347   0.255   0.801   3.069 -2.4237 -0.2843  0.1241
   12PET    C12  348   0.331   0.758   2.868 -0.1971 -0.2733  0.3508
   12PET    H13  349   0.357   0.861   2.841  2.3788 -0.4831  1.6449
   12PET    H14  350   0.299   0.719   2.771  1.1085  1.7937 -0.9996
   13PET     C9  351   0.462   0.685   2.901 -0.3989 -0.3137 -0.3246
   13PET     H6  352   0.433   0.579   2.891 -0.0090 -0.2854 -2.0734
   13PET     H7  353   0.501   0.708   3.001  5.5476 -0.8778 -2.1313
   13PET     O2  354   0.562   0.724   2.810  0.6593 -0.0139  0.6726
   13PET     C8  355   0.552   0.673   2.683 -0.2968 -0.0743  0.1528
   13PET     O1  356   0.472   0.595   2.641  0.5207  0.5183  0.1570
   13PET     C4  357   0.654   0.738   2.590 -0.7942  0.2989 -0.0069
   13PET     C5  358   0.644   0.721   2.450 -0.5317  0.3675  0.1798
   13PET     C6  359   0.721   0.792   2.358 -0.3528  0.7582  0.8115
   13PET     H4  360   0.700   0.777   2.252  0.1744 -3.0686  1.1107
   13PET     H3  361   0.563   0.657   2.416 -0.6500  0.0686  0.9995
   13PET     C3  362   0.750   0.838   2.635  0.8143  0.8294  0.1656
   13PET     H2  363   0.757   0.858   2.742 -2.0289  1.7288  0.2797
   13PET     C2  364   0.831   0.904   2.543 -0.1646  0.1024 -0.5925
   13PET     H1  365   0.907   0.965   2.590 -0.3714 -2.2855  3.3293
   13PET     C1  366   0.819   0.879   2.404 -0.8172 -0.3925 -0.0407
   13PET     C7  367   0.897   0.962   2.309  0.0472  0.2779  0.2723
   13PET     O3  368   0.947   1.069   2.342  0.3048 -0.1082  0.1062
   13PET     O4  369   0.901   0.909   2.181 -0.4874  0.1091 -0.8253
   13PET    C10  370   0.994   0.969   2.081 -0.0805  0.0235 -0.0544
   13PET     H8  371   1.097   0.965   2.118  0.2789  3.4887 -0.4049
   13PET     H9  372   0.977   1.075   2.062  0.1507  0.1267  0.3014
   13PET    C11  373   0.989   0.882   1.953  0.4267  0.2795  0.1808
   13PET    H10  374   0.996   0.776   1.980 -0.9252 -0.0206 -0.5283
   13PET    H11  375   1.077   0.904   1.892 -0.1534  1.3503 -0.3094
   13PET    C12  376   0.853   0.889   1.866  0.7061 -0.9520  0.2481
   13PET    H13  377   0.774   0.844   1.927  1.6091 -0.6193  1.7072
   13PET    H14  378   0.866   0.829   1.775  0.8194  2.0390 -1.8926
   14PET     C9  379   0.822   1.041   1.829 -0.2831 -0.0110  0.5675
   14PET     H6  380   0.762   1.046   1.737 -1.5705 -1.8643  1.2672
   14PET     H7  381   0.924   1.077   1.811  0.0288 -0.6568  1.0067
   14PET     O2  382   0.754   1.100   1.941 -0.5724 -0.1755  0.0227
   14PET     C8  383   0.625   1.059   1.979  1.4123 -0.4289  0.9566
   14PET     O1  384   0.547   0.997   1.910  0.7399 -0.4250 -0.1545
   14PET     C4  385   0.599   1.085   2.131 -0.6940  0.0352  0.6010
   14PET     C5  386   0.677   1.165   2.215 -0.7615  0.2487 -0.0414
   14PET     C6  387   0.652   1.174   2.354 -0.8335 -0.6315 -0.2387
   14PET     H4  388   0.714   1.242   2.411 -0.9824 -0.4574 -0.2846
   14PET     H3  389   0.763   1.214   2.169 -1.8189 -1.2213 -4.0646
   14PET     C3  390   0.505   1.004   2.191 -0.0395 -0.3341 -0.1682
   14PET     H2  391   0.453   0.929   2.131 -1.7708 -1.4111  2.4522
   14PET     C2  392   0.472   1.008   2.329 -0.2342 -0.4599  0.5424
   14PET     H1  393   0.391   0.948   2.370 -0.0252 -0.7051  0.5961
   14PET     C1  394   0.547   1.090   2.417  0.1770  0.0630  0.3550
   14PET     C7  395   0.515   1.100   2.566  0.8883 -0.5613  0.3997
   14PET     O3  396   0.446   1.022   2.625  0.3498  0.6045 -0.0509
   14PET     O4  397   0.572   1.206   2.628 -0.2659  0.3194 -0.2150
   14PET    C10  398   0.575   1.190   2.770 -0.2654  0.2062  0.7804
   14PET     H8  399   0.626   1.096   2.794 -0.0672  0.2281  0.4446
   14PET     H9  400   0.473   1.195   2.812 -0.3942  3.1551  0.3320
   14PET    C11  401   0.651   1.307   2.823  0.0363  0.3351  0.3062
   14PET    H10  402   0.757   1.279   2.819  0.4083  1.7415 -1.6869
   14PET    H11  403   0.633   1.315   2.931 -0.6513  0.3595  0.1950
   14PET    C12  404   0.613   1.449   2.756 -0.1926  0.7139 -0.4629
   14PET    H13  405   0.504   1.457   2.752 -0.3027 -0.6859 -0.8610
   14PET    H14  406   0.649   1.468   2.654  1.7033 -0.0573  0.0035
   15PET     C9  407   0.659   1.561   2.847  0.3490  0.1991 -0.9738
   15PET     H6  408   0.658   1.656   2.793  0.9439 -1.0556 -3.3249
   15PET     H7  409   0.761   1.537   2.880 -0.8037 -1.2034  1.9239
   15PET     O2  410   0.580   1.559   2.970  0.4179  0.2995 -0.2193
   15PET     C8  411   0.628   1.638   3.069 -0.0986  1.0250 -0.4021
   15PET     O1  412   0.728   1.712   3.059  0.6538  0.4334 -0.2654
   15PET     C4  413   0.545   1.646   3.191  0.4379 -0.7813  0.1346
   15PET     C5  414   0.442   1.542   3.220  0.2031 -0.6779  1.4367
   15PET     C6  415   0.351   1.556   3.325  0.3203 -0.6951 -0.3727
   15PET     H4  416   0.279   1.477   3.342 -1.3398  0.3605 -2.0472
   15PET     H3  417   0.432   1.454   3.157  0.7139 -0.3652  0.9061
   15PET     C3  418   0.539   1.766   3.266  0.4694  0.5486  0.1566
   15PET     H2  419   0.610   1.846   3.244 -1.5055  2.0188 -1.2076
   15PET     C2  420   0.445   1.778   3.377  0.2373 -0.0654 -0.1512
   15PET     H1  421   0.450   1.862   3.445  3.7283 -0.3695  0.1243
   15PET     C1  422   0.351   1.677   3.400  0.0044  0.4219  0.2974
   15PET     C7  423   0.251   1.696   3.511  0.3048  0.0055  0.0635
   15PET     O3  424   0.203   1.602   3.566 -0.1368  0.3497 -0.6966
   15PET     O4  425   0.221   1.829   3.539  0.1684 -0.2354 -0.3812
   15PET    C10  426   0.129   1.857   3.643 -0.2265  0.5408 -0.9101
   15PET     H8  427   0.176   1.834   3.739 -0.0562 -0.5294 -1.2317
   15PET     H9  428   0.040   1.793   3.633  1.4067 -1.9389 -0.5758
   15PET    C11  429   0.109   2.011   3.636 -0.4692  0.3768  0.0500
   15PET    H10  430   0.039   2.035   3.716 -0.1555  0.6468  0.2442
   15PET    H11  431   0.065   2.038   3.539  4.1596 -0.4826 -2.5819
   15PET    C12  432   0.236   2.087   3.655  0.6775 -0.2262  0.3190
   15PET    H13  433   0.302   2.069   3.569  1.2703 -0.9494  0.9178
   15PET    H14  434   0.280   2.055   3.750 -0.0806  1.6203  1.3468
   16PET     C9  435   0.208   2.245   3.674  0.0991  0.4452  0.6803
   16PET     H6  436   0.298   2.303   3.697  1.7406 -0.6464 -2.4054
   16PET     H7  437   0.144   2.243   3.763  0.6930 -2.1164  1.1076
   16PET     O2  438   0.146   2.301   3.555 -0.5009  0.2217 -0.2149
   16PET     C8  439   0.207   2.302   3.431  0.0390  0.3561  0.4576
   16PET     O1  440   0.329   2.281   3.412  0.5546 -0.0096 -0.6586
   16PET     C4  441   0.105   2.335   3.322  0.0032 -0.1491 -0.0291
   16PET     C5  442  -0.019   2.392   3.356 -0.2852 -0.6212  1.2494
   16PET     C6  443  -0.104   2.435   3.251  0.5045 -0.0732  0.1746
   16PET     H4  444  -0.200   2.478   3.279  0.7645  0.5829  0.0665
   16PET     H3  445  -0.050   2.408   3.459 -0.2280  1.4231  0.9821
   16PET     C3  446   0.153   2.343   3.189 -0.7547  0.4314  0.8661
   16PET     H2  447   0.255   2.310   3.172  0.0389  2.5997  1.1141
   16PET     C2  448   0.067   2.388   3.092 -0.1320  0.3938  0.4267
   16PET     H1  449   0.093   2.379   2.987  0.2059  1.5705  0.3850
   16PET     C1  450  -0.062   2.429   3.114 -0.5288  0.5489 -0.1443
   16PET     C7  451  -0.145   2.469   2.996 -0.3380  0.4285  0.0379
   16PET     O3  452  -0.092   2.484   2.886  0.3455 -0.1484 -0.1906
   16PET     O4  453  -0.273   2.493   3.020 -0.3784 -0.5760 -0.8107
   16PET    C10  454  -0.351   2.569   2.920 -0.2554  0.0761  0.0684
   16PET     H8  455  -0.306   2.662   2.884  1.3981 -0.3787  0.8615
   16PET     H9  456  -0.449   2.584   2.967 -0.2765 -1.1653  0.4720
   16PET    C11  457  -0.384   2.464   2.800  0.5435  0.2654  0.5898
   16PET    H10  458  -0.292   2.437   2.746  1.3936  1.6947  1.2802
   16PET    H11  459  -0.450   2.510   2.725  2.3757  1.4638 -0.3701
   16PET    C12  460  -0.443   2.330   2.835 -0.2405  0.0180  0.6304
   16PET    H13  461  -0.374   2.277   2.901 -0.2433 -1.1927 -0.2901
   16PET    H14  462  -0.450   2.265   2.747 -1.7260 -1.9278  2.0854
   17PET     C9  463  -0.577   2.337   2.894  0.0507  0.5139  0.5157
   17PET     H6  464  -0.626   2.408   2.826  1.4133  0.0973 -0.9578
   17PET     H7  465  -0.580   2.389   2.991  0.1437  2.3810 -0.4525
   17PET     O2  466  -0.643   2.209   2.876  0.2859  0.1527 -0.0881
   17PET     C8  467  -0.615   2.108   2.958 -0.5344 -0.2125  0.3632
   17PET     O1  468  -0.559   2.122   3.064  0.5323  0.5302  0.1754
   17PET     C4  469  -0.667   1.978   2.904 -0.7958  0.0544  0.1937
   17PET     C5  470  -0.716   1.974   2.776  0.7554 -0.3009  0.2854
   17PET     C6  471  -0.776   1.856   2.739 -0.4341 -0.3631  0.7155
   17PET     H4  472  -0.810   1.860   2.636  2.0116  0.5230 -0.1215
   17PET     H3  473  -0.723   2.057   2.706 -2.4361 -1.3011 -0.7849
   17PET     C3  474  -0.680   1.867   2.990 -0.7706  0.4254  0.0818
   17PET     H2  475  -0.628   1.868   3.086  0.9622  0.7142 -0.8087
   17PET     C2  476  -0.744   1.748   2.953  0.0673 -0.5271  0.6189
   17PET     H1  477  -0.751   1.659   3.015  2.5702 -0.8717  0.5214
   17PET     C1  478  -0.799   1.746   2.824 -0.8380  0.4094 -0.4595
   17PET     C7  479  -0.872   1.624   2.776 -0.2096 -0.6595 -0.6322
   17PET     O3  480  -0.938   1.555   2.846  0.2424 -0.4011  0.5692
   17PET     O4  481  -0.855   1.603   2.642  0.4764 -0.2509  0.5500
   17PET    C10  482  -0.954   1.509   2.586 -0.2422 -0.0362 -0.0203
   17PET     H8  483  -1.051   1.557   2.602 -0.3472  1.1975 -3.4645
   17PET     H9  484  -0.955   1.415   2.643  3.0095  0.2288  0.6637
   17PET    C11  485  -0.919   1.480   2.436  0.3104 -0.0026  0.1096
   17PET    H10  486  -0.986   1.396   2.415 -0.0105  0.1358  0.5663
   17PET    H11  487  -0.819   1.435   2.423  0.8768  0.7046  1.7624
   17PET    C12  488  -0.943   1.605   2.345  0.3740  0.1182 -0.1714
   17PET    H13  489  -1.038   1.650   2.376 -0.1433  1.5203 -3.3702
   17PET    H14  490  -0.973   1.558   2.250  0.8215 -2.6527  0.9470
   18PET     C9  491  -0.822   1.700   2.336 -0.1680  0.2037 -0.0258
   18PET     H6  492  -0.729   1.653   2.370 -0.5702  0.3482  1.3293
   18PET     H7  493  -0.846   1.788   2.396 -0.3374  0.1683 -0.0402
   18PET     O2  494  -0.816   1.746   2.197  0.5121 -0.1763 -0.5845
   18PET     C8  495  -0.725   1.834   2.153 -1.1224 -0.2049  0.0583
   18PET     O1  496  -0.623   1.868   2.216 -0.0764  0.1027  0.3897
   18PET     C4  497  -0.754   1.877   2.011  0.4709 -0.8798  0.7280
   18PET     C5  498  -0.838   1.803   1.927 -0.1478 -0.4590  0.0521
   18PET     C6  499  -0.845   1.829   1.787  0.0043 -0.1265 -0.9944
   18PET     H4  500  -0.920   1.773   1.731 -3.0870  1.9600  0.7796
   18PET     H3  501  -0.891   1.716   1.965  1.2927 -1.4655 -0.1465
   18PET     C3  502  -0.698   1.993   1.959 -0.5272  0.0869  0.0340
   18PET     H2  503  -0.646   2.061   2.026  0.7889  2.4428 -3.1336
   18PET     C2  504  -0.707   2.021   1.823 -0.8524 -0.4228 -1.0525
   18PET     H1  505  -0.665   2.116   1.791  0.2107 -0.7449 -0.6421
   18PET     C1  506  -0.781   1.943   1.734 -0.7354  0.9177 -0.0512
   18PET     C7  507  -0.814   1.987   1.595  0.1199  0.9671 -0.2534
   18PET     O3  508  -0.886   1.922   1.522 -0.0027  0.5619  0.5088
   18PET     O4  509  -0.756   2.104   1.566  0.1242 -0.1166 -0.1862
   18PET    C10  510  -0.747   2.144   1.424 -0.6283  0.1885 -0.2194
   18PET     H8  511  -0.724   2.250   1.411  1.0826  0.1465  1.8592
   18PET     H9  512  -0.842   2.124   1.374 -1.3837 -1.6911  1.7705
   18PET    C11  513  -0.630   2.072   1.351 -0.2324  0.5472  0.5172
   18PET    H10  514  -0.631   2.084   1.242  1.4603  0.6522  0.4843
   18PET    H11  515  -0.637   1.964   1.370 -2.1549  0.1095 -2.1151
   18PET    C12  516  -0.489   2.118   1.390  0.3668 -0.1647  0.0738
   18PET    H13  517  -0.486   2.142   1.497  0.6731  3.1363 -0.5653
   18PET    H14  518  -0.474   2.209   1.332  2.1739 -0.1939  0.4399
   19PET     C9  519  -0.365   2.022   1.359  0.9623 -0.6692  0.2114
   19PET     H6  520  -0.266   2.066   1.378 -0.5941  2.4320  2.0130
   19PET     H7  521  -0.358   2.004   1.251 -0.7111  1.4150 -0.3034
   19PET     O2  522  -0.388   1.891   1.420  0.9467  0.9807 -0.1806
   19PET     C8  523  -0.384   1.886   1.554 -0.5305 -0.0278 -0.0379
   19PET     O1  524  -0.339   1.968   1.633  0.0950  0.8817 -0.2402
   19PET     C4  525  -0.451   1.767   1.611  0.4328  0.8074 -0.4751
   19PET     C5  526  -0.466   1.756   1.749  0.6675  0.5792 -0.8961
   19PET     C6  527  -0.534   1.648   1.808 -0.0850  0.6825  0.2214
   19PET     H4  528  -0.546   1.653   1.916  2.8399 -3.2031  0.9630
   19PET     H3  529  -0.421   1.827   1.818 -0.7385  0.7951 -0.1703
   19PET     C3  530  -0.496   1.654   1.536 -0.1910 -0.7363  0.3833
   19PET     H2  531  -0.473   1.643   1.430 -2.1880 -3.9752  0.1546
   19PET     C2  532  -0.568   1.552   1.590  0.3545  0.6109 -0.1701
   19PET     H1  533  -0.612   1.476   1.527 -0.7063  1.3426 -0.3345
   19PET     C1  534  -0.585   1.544   1.729  0.0811  0.2463 -0.6192
   19PET     C7  535  -0.646   1.421   1.795  0.6019 -0.2522 -0.1572
   19PET     O3  536  -0.705   1.340   1.727 -0.0008  0.0401 -0.5391
   19PET     O4  537  -0.641   1.417   1.926  0.3185 -0.4490  0.2957
   19PET    C10  538  -0.701   1.310   1.993 -0.3496  0.4642 -0.5343
   19PET     H8  539  -0.661   1.210   1.977 -0.9109  0.1089  0.2298
   19PET     H9  540  -0.805   1.301   1.959 -1.3268  2.6080  1.5592
   19PET    C11  541  -0.689   1.328   2.140  0.9783  0.0994 -0.5707
   19PET    H10  542  -0.770   1.275   2.191  1.9981  1.4761  2.7396
   19PET    H11  543  -0.714   1.432   2.164 -1.7082  0.2738 -3.4710
   19PET    C12  544  -0.552   1.295   2.195 -1.0986  0.1397 -0.1902
   19PET    H13  545  -0.486   1.373   2.155  2.1695 -0.9307  2.6000
   19PET    H14  546  -0.505   1.203   2.159 -0.4973  1.0136 -1.7699
   20PET     C9  547  -0.534   1.316   2.347  0.1818  0.1661  0.3860
   20PET     H6  548  -0.454   1.259   2.396  0.9142  1.0401  0.2371
   20PET     H7  549  -0.629   1.275   2.383 -0.6950  1.4185 -0.4216
   20PET     O2  550  -0.520   1.458   2.380  0.2235  0.7599 -0.0121
   20PET     C8  551  -0.531   1.483   2.515 -0.4709  0.3172 -0.4542
   20PET     O1  552  -0.566   1.401   2.603 -0.0717 -0.3784  0.0574
   20PET     C4  553  -0.477   1.619   2.549  0.0074  0.3707 -0.2719
   20PET     C5  554  -0.473   1.655   2.685  0.3376  0.0524 -0.7575
   20PET     C6  555  -0.426   1.776   2.730 -0.4035  0.3693  0.5266
   20PET     H4  556  -0.421   1.802   2.835  1.0321 -3.9225  1.7127
   20PET     H3  557  -0.524   1.601   2.764 -0.2078  0.9168 -0.5007
   20PET     C3  558  -0.411   1.707   2.454  0.6441  0.0628  0.1118
   20PET     H2  559  -0.409   1.681   2.348  1.0301  0.7029 -0.0431
   20PET     C2  560  -0.360   1.833   2.498 -0.7371 -0.4737  0.2354
   20PET     H1  561  -0.308   1.904   2.433 -1.3902  0.9548  1.2188
   20PET     C1  562  -0.366   1.868   2.634  0.3066 -0.6348 -0.5858
   20PET     C7  563  -0.292   1.990   2.693  0.3036 -0.3767 -0.2405
   20PET     O3  564  -0.283   2.031   2.809  0.1853  0.3627  0.5150
   20PET     O4  565  -0.226   2.060   2.592  0.2320  0.2172 -0.9353
   20PET    C10  566  -0.135   2.163   2.633  0.0588  0.4871  0.1646
   20PET     H8  567  -0.178   2.231   2.708 -0.8696 -1.4598  1.4613
   20PET     H9  568  -0.113   2.223   2.544 -0.0948 -1.0888 -0.9603
   20PET    C11  569  -0.003   2.108   2.677 -0.8652  0.8629  0.0066
   20PET    H10  570   0.001   2.028   2.752  3.4651 -0.5121 -1.3927
   20PET    H11  571   0.062   2.188   2.714 -0.6011  0.8687 -0.4531
   20PET    C12  572   0.072   2.045   2.555  0.2976  1.2451 -0.1853
   20PET    H13  573   0.086   2.118   2.475  0.3872  0.9296 -0.4617
   20PET    H14  574  -0.001   1.973   2.514  1.2212  0.6752 -0.8514
   21PET     C9  575   0.209   1.979   2.589 -0.5853  0.3297  0.4915
   21PET     H6  576   0.193   1.909   2.672  2.2097 -0.0076  0.8512
   21PET     H7  577   0.282   2.053   2.624  0.2916 -0.8462  1.1999
   21PET     O2  578   0.261   1.901   2.481  0.3739  0.8077 -0.4970
   21PET     C8  579   0.293   1.961   2.361 -0.9763 -0.6223 -0.3115
   21PET     O1  580   0.320   2.082   2.341 -0.1895 -0.1232 -0.1137
   21PET     C4  581   0.304   1.864   2.245  0.0895  0.0477  0.1924
   21PET     C5  582   0.377   1.907   2.126 -0.1837  0.0324 -0.7995
   21PET     C6  583   0.371   1.834   2.004 -0.5959  0.0884 -0.1725
   21PET     H4  584   0.404   1.877   1.910 -0.2687  0.7114  0.2177
   21PET     H3  585   0.436   1.998   2.125 -1.8567  1.1671 -0.2289
   21PET     C3  586   0.229   1.740   2.237 -0.6377 -0.2966 -0.3962
   21PET     H2  587   0.186   1.707   2.331  0.8436  0.6799  0.6800
   21PET     C2  588   0.238   1.662   2.121  1.0225 -0.3919 -0.3429
   21PET     H1  589   0.197   1.562   2.123 -1.6145  0.6161  0.6610
   21PET     C1  590   0.295   1.711   1.997 -0.0845  0.1553  0.2337
   21PET     C7  591   0.280   1.631   1.870 -0.2807 -0.3724  0.6890
   21PET     O3  592   0.211   1.533   1.860  0.1367  0.0768 -0.1005
   21PET     O4  593   0.333   1.694   1.764 -0.0961  0.4209 -0.0402
   21PET    C10  594   0.327   1.622   1.635  0.6033 -0.6571 -0.4703
   21PET     H8  595   0.222   1.603   1.608  0.6609 -1.8778  0.1221
   21PET     H9  596   0.372   1.523   1.646 -0.1522 -0.9424  0.1946
   21PET    C11  597   0.401   1.703   1.529  0.4591 -0.1817  0.0152
   21PET    H10  598   0.423   1.634   1.447 -1.5631 -0.0381 -0.7012
   21PET    H11  599   0.497   1.744   1.562  1.1674 -1.6155 -0.1911
   21PET    C12  600   0.309   1.813   1.478 -0.0712  0.1176 -0.1725
   21PET    H13  601   0.304   1.888   1.558  1.1692 -0.8939  0.9301
   21PET    H14  602   0.209   1.768   1.474  0.1787 -0.3624 -1.4458
   22PET     C9  603   0.363   1.890   1.346  0.3502  0.4113 -0.1045
   22PET     H6  604   0.453   1.944   1.381 -0.1502 -0.8595  3.5886
   22PET     H7  605   0.284   1.954   1.306  1.2609  1.1081 -0.8417
   22PET     O2  606   0.407   1.795   1.248 -0.6281  0.3283 -0.3597
   22PET     C8  607   0.316   1.736   1.163 -1.1693 -0.0424  0.2303
   22PET     O1  608   0.197   1.758   1.173  0.9534  0.2654  0.1390
   22PET     C4  609   0.387   1.637   1.060 -0.1511 -0.0792 -0.5657
   22PET     C5  610   0.514   1.580   1.088  0.0032 -0.2587  0.3887
   22PET     C6  611   0.574   1.513   0.980  0.6012  0.0780 -0.1824
   22PET     H4  612   0.671   1.469   0.998 -0.4648 -1.6426  1.8665
   22PET     H3  613   0.569   1.602   1.179 -0.4657 -0.1717  0.6587
   22PET     C3  614   0.317   1.600   0.945  0.0071 -0.1954  0.4837
   22PET     H2  615   0.214   1.631   0.931  0.4330  1.5413  0.8459
   22PET     C2  616   0.372   1.516   0.850  0.5556 -0.9185 -0.2618
   22PET     H1  617   0.316   1.489   0.762  0.0359 -1.2768  0.1718
   22PET     C1  618   0.500   1.481   0.864 -0.6302  0.6340  0.5959
   22PET     C7  619   0.566   1.394   0.761 -0.0867 -0.4841  0.4246
   22PET     O3  620   0.501   1.335   0.680 -0.0219  0.2998  1.0198
   22PET     O4  621   0.702   1.407   0.756 -0.5294 -0.3922 -0.2217
   22PET    C10  622   0.776   1.355   0.651 -0.0649  0.0094 -1.0272
   22PET     H8  623   0.737   1.404   0.562 -0.1472  0.6914 -0.6264
   22PET     H9  624   0.784   1.246   0.652  0.1003  0.0229 -0.6893
   22PET    C11  625   0.917   1.408   0.695 -0.3987  0.3953  0.0638
   22PET    H10  626   0.996   1.333   0.681 -0.4060  0.4563 -0.3019
   22PET    H11  627   0.925   1.429   0.803  0.4204  1.2916 -0.1479
   22PET    C12  628   0.967   1.542   0.624 -0.3586 -1.2709  0.6669
   22PET    H13  629   0.942   1.540   0.517 -2.0217 -1.7325  1.0282
   22PET    H14  630   1.075   1.554   0.637 -0.3156  0.7659 -1.0462
   23PET     C9  631   0.885   1.666   0.671 -0.8710  0.6453  0.3640
   23PET     H6  632   0.781   1.653   0.641 -0.1688 -1.6116 -1.3710
   23PET     H7  633   0.930   1.759   0.635  1.2491 -0.5652 -0.3292
   23PET     O2  634   0.894   1.658   0.807 -0.4529 -0.4707  0.8294
   23PET     C8  635   0.840   1.767   0.877 -0.5286 -0.2927 -0.1523
   23PET     O1  636   0.795   1.868   0.825 -0.1034  0.2939 -0.3910
   23PET     C4  637   0.837   1.750   1.023 -0.0859  0.1824 -0.4250
   23PET     C5  638   0.774   1.843   1.102  0.2899  0.5020 -0.3203
   23PET     C6  639   0.768   1.823   1.245  0.0495  0.1060 -0.2112
   23PET     H4  640   0.707   1.892   1.302 -0.0690  1.2678 -1.6716
   23PET     H3  641   0.720   1.930   1.067 -1.7022  0.7554  2.9727
   23PET     C3  642   0.884   1.633   1.081  0.1827 -0.4215  0.1313
   23PET     H2  643   0.921   1.552   1.018  1.5886 -1.2341  1.9032
   23PET     C2  644   0.887   1.609   1.225  0.4782 -0.4993  0.0268
   23PET     H1  645   0.910   1.507   1.253  0.9649 -1.0430 -2.1559
   23PET     C1  646   0.823   1.707   1.303 -0.0908  0.5956 -0.4819
   23PET     C7  647   0.800   1.687   1.453  0.2624  0.0952 -0.1351
   23PET     O3  648   0.762   1.782   1.523  0.5941  0.2039  0.4723
   23PET     O4  649   0.846   1.568   1.495 -0.1218 -0.3774 -0.1645
   23PET    C10  650   0.867   1.539   1.634 -0.5241 -0.3524  0.0327
   23PET     H8  651   0.930   1.623   1.664  0.8772 -0.1628 -3.0617
   23PET     H9  652   0.927   1.448   1.646 -0.0254  0.0178  0.3985
   23PET    C11  653   0.733   1.534   1.713 -0.1488 -0.0160 -0.1001
   23PET    H10  654   0.671   1.457   1.665  2.5555 -1.3546 -1.6653
   23PET    H11  655   0.677   1.628   1.716 -3.0052 -1.5974  1.7365
   23PET    C12  656   0.743   1.487   1.857  0.1521 -1.2967  0.2540
   23PET    H13  657   0.787   1.572   1.911 -0.4820 -0.0566 -1.1184
   23PET    H14  658   0.803   1.395   1.866 -0.4228 -1.6355  0.7044
   24PET     C9  659   0.598   1.473   1.919  0.3954 -0.3592  0.5593
   24PET     H6  660   0.540   1.566   1.927  0.9233 -0.0592  0.9284
   24PET     H7  661   0.612   1.428   2.018 -2.3155 -1.5474  0.5040
   24PET     O2  662   0.524   1.381   1.843 -0.5299 -0.5824  0.2278
   24PET     C8  663   0.431   1.308   1.899  0.6128  0.3152 -0.6762
   24PET     O1  664   0.403   1.316   2.015 -0.1540  0.2839  0.3914
   24PET     C4  665   0.357   1.216   1.802  0.4132  0.2456  0.8983
   24PET     C5  666   0.398   1.203   1.667 -0.2390 -1.1991 -0.3619
   24PET     C6  667   0.334   1.107   1.583 -0.3174 -0.0918  0.1529
   24PET     H4  668   0.358   1.123   1.479  0.8053 -0.3570  0.3554
   24PET     H3  669   0.461   1.282   1.628 -2.2394  1.5288  1.5356
   24PET     C3  670   0.257   1.124   1.850  0.8212 -0.3661 -0.5839
   24PET     H2  671   0.224   1.139   1.952 -1.4472  0.1765 -1.3217
   24PET     C2  672   0.185   1.040   1.768 -0.1428 -0.1663 -0.3494
   24PET     H1  673   0.102   0.981   1.806  0.1501 -1.0046 -0.9659
   24PET     C1  674   0.227   1.028   1.632  0.4973 -0.2309 -1.2182
   24PET     C7  675   0.146   0.927   1.552  0.0414  0.4126  0.4656
   24PET     O3  676   0.074   0.841   1.597 -0.5003 -0.3159  0.5903
   24PET     O4  677   0.165   0.936   1.418 -0.1833 -0.2553  0.3613
   24PET    C10  678   0.125   0.832   1.328  0.6202  0.2167  0.0191
   24PET     H8  679   0.016   0.829   1.317  0.4613  2.1823  0.5531
   24PET     H9  680   0.152   0.733   1.366 -0.2584 -0.0799 -0.1086
   24PET    C11  681   0.184   0.872   1.187 -0.7044  0.6445 -0.4134
   24PET    H10  682   0.151   0.974   1.167  0.3242  1.3332  1.2443
   24PET    H11  683   0.136   0.815   1.106 -2.8102 -0.2985  1.3666
   24PET    C12  684   0.335   0.875   1.180  0.2058  0.2252  0.0774
   24PET    H13  685   0.384   0.777   1.186  0.8090  0.5103 -0.1062
   24PET    H14  686   0.379   0.939   1.258 -0.4030 -0.3925  0.9563
   25PEO     C1  687   0.380   0.944   1.047  0.5598 -0.1725  0.1117
   25PEO     H3  688   0.319   1.033   1.029 -1.2618 -1.6222 -1.3390
   25PEO     H4  689   0.354   0.879   0.963  0.2020  1.0080 -0.7111
   25PEO      O  690   0.522   0.964   1.051  0.0121  0.1580 -0.1092
   25PEO     C2  691   0.579   1.035   0.944 -0.6622 -0.6065 -0.0780
   25PEO     H5  692   0.532   1.134   0.934 -1.1261 -0.7893  0.2881
   25PEO     H6  693   0.568   0.982   0.849 -1.3556  0.0817 -0.3895
   25PEO     C3  694   0.728   1.062   0.960  0.4861  0.5209  0.3441
   25PEO     H7  695   0.772   1.053   0.860  0.0945 -1.0979  0.2897
   25PEO     H8  696   0.769   0.975   1.013  1.2822 -0.5737 -1.9139
   25PEO     O1  697   0.756   1.183   1.030  0.3174  0.3227 -0.2080
   25PEO     C4  698   0.902   1.214   1.036 -0.3853 -0.6066 -0.0013
   25PEO     H9  699   0.925   1.321   1.039 -0.0517 -0.6940  1.4939
   25PEO    H10  700   0.956   1.177   0.948 -0.7860 -3.4984  0.8407
   25PEO     C5  701   0.961   1.139   1.162  0.1107  0.4230  0.4829
   25PEO    H11  702   1.071   1.136   1.153  0.1278 -0.3892  0.8525
   25PEO    H12  703   0.937   1.034   1.179  0.9483  0.4509  2.0081
   25PEO     O2  704   0.917   1.209   1.279  0.3076  0.7888  0.4292
   25PEO     C6  705   0.947   1.148   1.407  0.4542 -0.5620  0.0386
   25PEO    H13  706   1.056   1.154   1.419  0.3022  0.4175  1.1105
   25PEO    H14  707   0.935   1.039   1.417  0.6847 -0.9579 -2.9874
   25PEO     C7  708   0.864   1.220   1.518 -0.4533  0.3410  0.2468
   25PEO    H15  709   0.854   1.326   1.489  1.5572  0.5840  0.3243
   25PEO    H16  710   0.917   1.217   1.614 -1.8511 -0.5936  1.0220
   25PEO     O3  711   0.730   1.158   1.530  0.5013  0.0149 -0.3348
   25PEO     C8  712   0.638   1.162   1.421 -0.0644 -0.1392  0.6686
   25PEO    H17  713   0.545   1.110   1.448  0.7562 -1.2966  1.4274
   25PEO    H18  714   0.682   1.112   1.334 -0.3617  0.8392 -0.0547
   25PEO     C9  715   0.609   1.298   1.371  0.4116 -0.1047  0.3797
   25PEO    H19  716   0.674   1.313   1.284  1.2064  0.9774  1.1345
   25PEO    H20  717   0.635   1.382   1.436  3.6343  1.2122 -2.2850
   25PEO     O4  718   0.468   1.309   1.341 -0.4349 -0.2325  0.2408
   25PEO    C10  719   0.436   1.249   1.209  0.4641 -0.1700 -0.0196
   25PEO    H21  720   0.435   1.141   1.226  0.4243 -0.5021 -1.9523
   25PEO    H22  721   0.511   1.272   1.132 -0.2938  0.2650 -0.6461
   26PET     C9  722   0.294   1.298   1.164  0.1222 -0.6912  0.2440
   26PET     H6  723   0.284   1.266   1.060  0.5256  0.5689 -0.2052
   26PET     H7  724   0.294   1.407   1.152  1.0227 -0.9625 -3.2512
   26PET     O2  725   0.193   1.250   1.253  0.1036 -0.0918 -0.0194
   26PET     C8  726   0.163   1.330   1.368 -0.5571  0.5446  0.9849
   26PET     O1  727   0.204   1.445   1.384  0.8930  0.0025 -0.0304
   26PET     C4  728   0.068   1.265   1.460 -0.5414  0.1652  0.3996
   26PET     C5  729  -0.034   1.178   1.409 -0.3541 -0.6368  0.0260
   26PET     C6  730  -0.135   1.130   1.496 -0.8407  0.2759  0.3194
   26PET     H4  731  -0.218   1.081   1.446  0.4439 -0.9632 -0.6826
   26PET     H3  732  -0.050   1.169   1.302 -1.6869  1.3571  0.0164
   26PET     C3  733   0.071   1.299   1.596  0.2351 -0.2260  0.2361
   26PET     H2  734   0.143   1.376   1.621 -1.3988  2.4965 -2.7588
   26PET     C2  735  -0.028   1.244   1.674 -0.8151 -0.9265  1.0612
   26PET     H1  736  -0.032   1.286   1.774 -0.2055 -0.0648  0.7316
   26PET     C1  737  -0.124   1.156   1.628  0.1098 -0.7348  0.1994
   26PET     C7  738  -0.228   1.105   1.730  0.9661 -0.0837  0.2273
   26PET     O3  739  -0.322   1.036   1.689 -0.4260  0.2492 -0.1914
   26PET     O4  740  -0.194   1.125   1.854 -0.1396 -0.0808 -0.3575
   26PET    C10  741  -0.283   1.081   1.960 -0.2113 -0.2863  1.3662
   26PET     H8  742  -0.314   0.976   1.951  0.0963 -0.2481 -5.1331
   26PET     H9  743  -0.373   1.143   1.951 -0.2658 -0.2110  2.3830
   26PET    C11  744  -0.211   1.098   2.091 -0.6336  0.0155  0.2086
   26PET    H10  745  -0.272   1.056   2.172  0.1860  2.5115  2.2745
   26PET    H11  746  -0.200   1.203   2.121  0.1995 -0.0544  0.1769
   26PET    C12  747  -0.068   1.038   2.100 -0.5940 -0.3964 -0.1680
   26PET    H13  748   0.009   1.089   2.042 -1.6450 -0.1880 -1.4271
   26PET    H14  749  -0.077   0.935   2.065 -2.1940 -0.8157  1.3430
   27PET     C9  750  -0.012   1.033   2.242 -0.0103  0.9130  0.2544
   27PET     H6  751   0.067   0.957   2.247 -1.0742 -0.4111 -1.7379
   27PET     H7  752  -0.089   1.001   2.313 -0.1280  1.3613  0.3348
   27PET     O2  753   0.043   1.156   2.273 -0.2363  0.4834  0.1442
   27PET     C8  754   0.073   1.185   2.404  0.6854 -0.2367 -0.2640
   27PET     O1  755   0.041   1.114   2.505  0.0850 -0.9321  0.9760
   27PET     C4  756   0.171   1.299   2.407  0.8810 -0.0803  0.4164
   27PET     C5  757   0.271   1.313   2.311  0.0425 -0.8795  0.0431
   27PET     C6  758   0.364   1.417   2.325 -0.0487  0.5073  0.0816
   27PET     H4  759   0.443   1.407   2.251 -0.9141 -1.8581 -0.6208
   27PET     H3  760   0.298   1.233   2.243  3.1796  1.4160 -1.6548
   27PET     C3  761   0.163   1.383   2.517  0.0418 -0.0769 -0.0735
   27PET     H2  762   0.097   1.374   2.603  3.7297 -1.4521  2.8992
   27PET     C2  763   0.261   1.483   2.529  0.2115 -1.1018  0.5485
   27PET     H1  764   0.257   1.555   2.610 -0.1560  0.0318 -0.4590
   27PET     C1  765   0.363   1.498   2.435 -0.0660 -1.2940 -0.0439
   27PET     C7  766   0.456   1.614   2.433  0.0756  0.4515 -0.2945
   27PET     O3  767   0.472   1.687   2.531 -0.1150 -0.8354  0.0969
   27PET     O4  768   0.525   1.638   2.317  0.4874 -0.4006  0.1112
   27PET    C10  769   0.635   1.729   2.302 -0.2238  0.0572 -0.1192
   27PET     H8  770   0.618   1.813   2.370 -1.4234 -3.1740  3.9912
   27PET     H9  771   0.651   1.750   2.196  1.0166 -1.0916 -0.1788
   27PET    C11  772   0.759   1.652   2.355 -0.3071  0.1700 -0.1281
   27PET    H10  773   0.735   1.605   2.451  1.7667 -0.8459 -0.0458
   27PET    H11  774   0.835   1.721   2.393 -0.1873 -1.3135  2.6270
   27PET    C12  775   0.827   1.560   2.255  0.1217 -0.4364  0.0021
   27PET    H13  776   0.861   1.619   2.169  1.7561  1.4990  1.8515
   27PET    H14  777   0.751   1.485   2.230 -0.5038 -1.0181  3.2206
   28PEO     C1  778   0.943   1.482   2.323  0.0320  0.1719 -0.6042
   28PEO     H3  779   0.911   1.448   2.422  2.0300  0.8657  0.3259
   28PEO     H4  780   1.023   1.554   2.344  0.1052  0.2785 -1.2319
   28PEO      O  781   0.994   1.364   2.241  0.7370  0.3581  0.3007
   28PEO     C2  782   1.047   1.394   2.112  0.1708 -0.5075  0.2131
   28PEO     H5  783   0.968   1.445   2.056  0.0892  1.7834  2.2368
   28PEO     H6  784   1.081   1.297   2.074 -0.8823 -0.3177 -1.3194
   28PEO     C3  785   1.171   1.479   2.118 -0.2672  0.6859 -0.8026
   28PEO     H7  786   1.140   1.582   2.140 -3.1812  0.4408 -3.0712
   28PEO     H8  787   1.199   1.482   2.012 -2.5814 -0.4096 -1.5061
   28PEO     O1  788   1.260   1.412   2.212  0.0183 -0.6821 -0.1450
   28PEO     C4  789   1.381   1.493   2.255  0.0215 -0.2554  0.6093
   28PEO     H9  790   1.428   1.542   2.170  1.4133  0.6596  1.8597
   28PEO    H10  791   1.454   1.430   2.307 -1.3080 -0.6567  2.0990
   28PEO     C5  792   1.342   1.606   2.353 -0.8957  0.6272  0.3276
   28PEO    H11  793   1.428   1.622   2.419  0.7139 -0.0265 -1.5177
   28PEO    H12  794   1.252   1.581   2.409 -2.2628 -1.6506 -2.6032
   28PEO     O2  795   1.317   1.729   2.289 -0.1481 -0.4649 -0.0208
   28PEO     C6  796   1.270   1.841   2.373 -0.5008  0.4186  0.3204
   28PEO    H13  797   1.289   1.937   2.323  0.1313  0.7075  1.0953
   28PEO    H14  798   1.312   1.841   2.474 -0.1067 -4.2034  0.3808
   28PEO     C7  799   1.124   1.831   2.405  0.8507  0.1179  0.0589
   28PEO    H15  800   1.100   1.921   2.464 -0.1771  1.6914 -2.5987
   28PEO    H16  801   1.091   1.752   2.473 -0.7947  0.7693  0.0477
   28PEO     O3  802   1.051   1.822   2.281 -0.6339  0.2363  0.4680
   28PEO     C8  803   1.053   1.936   2.192  0.2359 -0.3004 -0.1102
   28PEO    H17  804   1.004   1.900   2.100 -2.0101 -0.6723  1.1571
   28PEO    H18  805   1.150   1.980   2.166  0.4245  0.7323  2.1687
   28PEO     C9  806   0.968   2.052   2.253  0.4393  0.1529 -0.4536
   28PEO    H19  807   1.001   2.147   2.209 -0.8732 -0.0125 -1.8897
   28PEO    H20  808   0.981   2.057   2.362 -1.9346 -2.8049  0.0774
   28PEO     O4  809   0.837   2.010   2.221  0.7384  0.3297  0.0726
   28PEO    C10  810   0.732   2.085   2.298  0.4908  0.3842  0.2618
   28PEO    H21  811   0.741   2.052   2.402 -0.6310 -0.3519  0.1412
   28PEO    H22  812   0.631   2.056   2.265  0.7752 -0.3827  0.0480
   29PEO     C1  813   0.731   2.237   2.270 -0.1234  0.5683 -0.5041
   29PEO     H3  814   0.833   2.273   2.285  0.5901 -1.3963 -0.2718
   29PEO     H4  815   0.663   2.291   2.337  1.8321  2.4102  0.1006
   29PEO      O  816   0.700   2.265   2.137 -0.0841 -0.0319 -0.3085
   29PEO     C2  817   0.704   2.405   2.093 -0.8744 -0.0397 -0.0954
   29PEO     H5  818   0.685   2.413   1.985 -2.4663 -0.1526  0.1546
   29PEO     H6  819   0.796   2.454   2.126 -0.6363  0.2699 -1.1725
   29PEO     C3  820   0.589   2.481   2.155  0.0053 -0.7303  0.6199
   29PEO     H7  821   0.604   2.589   2.145 -1.9147 -0.3503  1.4034
   29PEO     H8  822   0.588   2.477   2.265  0.3587  0.7967  0.7071
   29PEO     O1  823   0.457   2.445   2.091  0.2855 -0.1738  0.0137
   29PEO     C4  824   0.391   2.325   2.130  0.2972  1.0117 -0.0846
   29PEO     H9  825   0.397   2.308   2.239 -0.6338 -1.3589 -0.3458
   29PEO    H10  826   0.440   2.238   2.085  0.1750  0.7465  0.2871
   29PEO     C5  827   0.245   2.339   2.099 -0.1137  0.1980 -0.1233
   29PEO    H11  828   0.205   2.419   2.163  1.2749  0.0468  0.9671
   29PEO    H12  829   0.189   2.249   2.126 -0.7289  1.0870  1.7782
   29PEO     O2  830   0.230   2.370   1.962  0.0532  0.1160 -0.4130
   29PEO     C6  831   0.246   2.262   1.873  0.1922 -1.4049 -0.6468
   29PEO    H13  832   0.330   2.198   1.903 -1.1535 -2.1766  1.8243
   29PEO    H14  833   0.258   2.315   1.778  1.2595  1.1876  0.8267
   29PEO     C7  834   0.112   2.182   1.865 -0.2822 -0.3821  0.1810
   29PEO    H15  835   0.100   2.137   1.765 -3.0008 -2.6464  1.3972
   29PEO    H16  836   0.022   2.242   1.880 -0.3346 -0.6688  1.0522
   29PEO     O3  837   0.127   2.071   1.959  0.0936  0.0698  0.1753
   29PEO     C8  838   0.049   1.961   1.922  0.1212 -0.2047 -0.6782
   29PEO    H17  839   0.083   1.875   1.981 -0.0833  1.7936  2.5287
   29PEO    H18  840   0.058   1.936   1.815  0.0649 -1.7603 -0.3444
   29PEO     C9  841  -0.103   1.970   1.963  0.2793 -0.3335  0.0155
   29PEO    H19  842  -0.162   1.916   1.888 -1.2750  0.3342  0.7167
   29PEO    H20  843  -0.129   2.075   1.946  0.1648 -0.5360 -1.1509
   29PEO     O4  844  -0.120   1.924   2.099  0.6985 -0.0458 -0.6136
   29PEO    C10  845  -0.057   1.995   2.206 -0.2615 -0.2053 -0.1322
   29PEO    H21  846   0.052   1.985   2.200 -0.4369 -2.3894 -0.3981
   29PEO    H22  847  -0.088   1.945   2.299  1.7704 -2.5201 -0.5967
   30PET     C9  848  -0.109   2.146   2.209  0.0376  0.3718 -0.2407
   30PET     H6  849  -0.109   2.197   2.111 -0.2590  2.1708  0.6480
   30PET     H7  850  -0.039   2.203   2.272  0.9387  1.1778 -1.8967
   30PET     O2  851  -0.241   2.146   2.277  0.0372  1.2471 -0.4844
   30PET     C8  852  -0.297   2.262   2.313  0.3522 -0.1761  0.4800
   30PET     O1  853  -0.238   2.366   2.298  0.5599 -0.0852 -0.0523
   30PET     C4  854  -0.433   2.260   2.376 -0.2413  0.4377  0.1117
   30PET     C5  855  -0.508   2.132   2.380 -0.2557  0.1059  0.1568
   30PET     C6  856  -0.638   2.132   2.427 -0.8186 -0.9297  0.3827
   30PET     H4  857  -0.690   2.037   2.435  0.6677 -2.0279 -1.9983
   30PET     H3  858  -0.467   2.036   2.348 -1.3734 -0.3897  0.1596
   30PET     C3  859  -0.498   2.378   2.424 -0.0124 -0.1032 -0.5917
   30PET     H2  860  -0.453   2.476   2.416 -0.2345 -0.0488 -1.2474
   30PET     C2  861  -0.628   2.366   2.478 -0.3865  0.1432 -0.8443
   30PET     H1  862  -0.675   2.457   2.514  2.5567  0.6360  2.2866
   30PET     C1  863  -0.701   2.248   2.472 -1.1116 -0.1628  0.6256
   30PET     C7  864  -0.842   2.242   2.525  0.3510 -0.3058 -0.4038
   30PET     O3  865  -0.901   2.331   2.576  0.2250 -0.3881  0.1898
   30PET     O4  866  -0.902   2.120   2.509 -0.1624  0.1315  0.4213
   30PET    C10  867  -1.038   2.094   2.542  0.1218 -0.0124 -0.0857
   30PET     H8  868  -1.093   2.177   2.495  0.6674  0.3103 -0.1591
   30PET     H9  869  -1.053   2.094   2.651  0.4417 -0.0077 -0.0402
   30PET    C11  870  -1.069   1.952   2.478  1.1045 -0.3999  0.4097
   30PET    H10  871  -1.172   1.935   2.512  1.5208 -1.9650  0.9714
   30PET    H11  872  -1.001   1.877   2.520  0.3748 -1.4175 -0.1931
   30PET    C12  873  -1.047   1.949   2.323  0.3384 -0.0812 -0.1682
   30PET    H13  874  -1.110   2.019   2.268  0.5733 -0.8135 -1.4286
   30PET    H14  875  -0.942   1.962   2.294  0.3460 -1.7335 -1.0159
   31SOL     OW  876   2.913   0.136   1.323 -0.0388 -0.1273  0.0198
   31SOL    HW1  877   2.869   0.147   1.408 -0.2842  0.3938 -0.1720
   31SOL    HW2  878   3.001   0.171   1.338 -0.3090  0.6390 -0.1353
   32SOL     OW  879   1.903   0.148   2.098  0.0656 -0.5048  0.8657
   32SOL    HW1  880   1.808   0.153   2.084  0.2303 -1.0593 -0.6460
   32SOL    HW2  881   1.928   0.237   2.122 -0.7867 -0.2577  0.8701
   33SOL     OW  882   0.269   0.601   2.404 -0.1385  0.0157 -0.6512
   33SOL    HW1  883   0.340   0.542   2.428 -1.5607 -1.5592 -0.1411
   33SOL    HW2  884   0.203   0.545   2.364 -2.2330  0.9190  1.3046
   34SOL     OW  885   2.441   0.776   1.681 -0.2668 -0.2079 -0.3472
   34SOL    HW1  886   2.388   0.704   1.716  1.5410 -1.7751 -0.6063
   34SOL    HW2  887   2.385   0.852   1.685 -2.1677 -1.5684  0.3087
   35SOL     OW  888   2.806   0.710   2.437 -0.0153  0.1168 -0.1569
   35SOL    HW1  889   2.717   0.742   2.427  0.0481  0.5176  0.4586
   35SOL    HW2  890   2.830   0.735   2.527  0.3071 -0.9880  0.0821
   36SOL     OW  891   0.952   0.023   1.602 -0.0832 -0.0591 -0.8624
   36SOL    HW1  892   0.882  -0.035   1.632 -0.4662 -0.0978 -1.7793
   36SOL    HW2  893   0.931   0.109   1.638  0.8499 -0.5972  1.0723
   37SOL     OW  894   0.930   0.257   1.326 -0.5470  0.8573  0.3428
   37SOL    HW1  895   0.852   0.235   1.377 -1.2540  2.2144 -0.1133
   37SOL    HW2  896   0.922   0.206   1.246 -0.5422  0.3749  0.6461
   38SOL     OW  897   0.292   2.864   1.536 -0.1841 -0.1588  0.7603
   38SOL    HW1  898   0.284   2.777   1.576  2.4541 -1.1771 -0.6768
   38SOL    HW2  899   0.370   2.902   1.578 -1.2397  1.5108  1.2842
   39SOL     OW  900   0.793   0.149   2.046 -0.3655  0.0351  0.0393
   39SOL    HW1  901   0.836   0.232   2.027  2.1091 -1.0457  0.5253
   39SOL    HW2  902   0.780   0.108   1.960  1.1226 -0.3118 -0.0417
   40SOL     OW  903   2.217   0.167   1.524 -0.1599 -0.5153 -0.1364
   40SOL    HW1  904   2.201   0.089   1.576  0.8706 -1.0921 -0.6581
   40SOL    HW2  905   2.264   0.226   1.584  0.8207 -1.0881 -0.3088
   41SOL     OW  906   1.051   0.242   2.454 -0.1565 -0.4314 -0.1424
   41SOL    HW1  907   1.106   0.265   2.379 -1.0274  2.2687 -0.0455
   41SOL    HW2  908   0.964   0.226   2.416 -0.1480 -1.0719  0.0958
   42SOL     OW  909   3.032   0.427   2.016  0.0938 -1.1985  0.2121
   42SOL    HW1  910   3.023   0.349   2.071 -3.6573 -0.6951  0.5565
   42SOL    HW2  911   3.097   0.480   2.061  2.2455 -3.7150  0.3395
   43SOL     OW  912   0.145   2.975   2.934  0.2097  0.5698  0.7428
   43SOL    HW1  913   0.198   3.049   2.964  0.9733  0.4727 -0.3145
   43SOL    HW2  914   0.198   2.934   2.866 -1.2464  0.5036 -0.4006
   44SOL     OW  915   1.501   1.868   0.112  0.4110  0.2010 -0.9247
   44SOL    HW1  916   1.575   1.853   0.053 -0.0508  0.2222 -1.5258
   44SOL    HW2  917   1.426   1.878   0.053  0.1209  1.3643 -0.3779
   45SOL     OW  918   2.008   1.502   1.427  0.1722 -0.2428 -0.3193
   45SOL    HW1  919   1.993   1.582   1.376  1.0715  0.3945  0.4022
   45SOL    HW2  920   2.084   1.461   1.387 -0.1243 -0.6159 -0.5169
   46SOL     OW  921   2.479   2.877   1.581 -0.4861  0.0254  0.1875
   46SOL    HW1  922   2.512   2.812   1.643 -1.5693 -0.6874  0.0468
   46SOL    HW2  923   2.547   2.882   1.514 -0.3442 -0.9248  0.2351
   47SOL     OW  924   0.927   3.084   2.377 -0.1535 -0.1902  0.1294
   47SOL    HW1  925   0.981   3.009   2.402  0.4520  0.0696 -0.3688
   47SOL    HW2  926   0.931   3.084   2.281  0.4441  0.8917  0.1415
   48SOL     OW  927   2.766   0.034   2.201  0.2828 -0.1576 -0.2661
   48SOL    HW1  928   2.809  -0.049   2.221 -0.4742 -0.1489  1.5764
   48SOL    HW2  929   2.780   0.087   2.279 -0.2830  1.0138 -0.9427
   49SOL     OW  930   1.654   1.120   1.186 -0.1177  0.4142  0.2896
   49SOL    HW1  931   1.584   1.125   1.121  0.0153 -0.8949  0.0221
   49SOL    HW2  932   1.727   1.079   1.139  0.8000  1.6438  0.6008
   50SOL     OW  933   1.501   2.804   0.452  0.0917  0.1059  0.2979
   50SOL    HW1  934   1.575   2.787   0.393 -0.4610 -2.2164  0.1665
   50SOL    HW2  935   1.535   2.867   0.515  1.8713 -0.1397 -0.3567
   51SOL     OW  936   0.271   2.634   1.871  0.1149  0.0507 -0.6509
   51SOL    HW1  937   0.304   2.551   1.904 -0.3205  0.5239  1.0996
   51SOL    HW2  938   0.324   2.701   1.916 -0.3375  0.7277 -1.0982
   52SOL     OW  939   3.033   3.165   1.300  0.5757  0.5538  0.0556
   52SOL    HW1  940   2.982   3.113   1.238 -0.5702  0.8127  0.7532
   52SOL    HW2  941   3.070   3.101   1.361  2.0897  0.2489 -1.1119
   53SOL     OW  942   0.064   0.700   0.164  0.5246  0.0310 -0.7487
   53SOL    HW1  943   0.041   0.611   0.139 -0.2104  0.3377 -1.1895
   53SOL    HW2  944  -0.010   0.730   0.217  0.7352  0.3969 -0.6572
   54SOL     OW  945   1.595   2.101   2.525  0.0123 -0.1546  0.4087
   54SOL    HW1  946   1.609   2.186   2.567 -0.1975  0.4685 -0.7440
   54SOL    HW2  947   1.543   2.051   2.589 -0.7254  0.9347  0.6832
   55SOL     OW  948   0.558   2.356   0.391  0.1042  0.1154 -0.0449
   55SOL    HW1  949   0.645   2.390   0.412 -0.1535 -0.1553  1.6135
   55SOL    HW2  950   0.538   2.296   0.463 -0.4771 -1.6844 -1.6126
   56SOL     OW  951   0.717   3.199   1.673  0.1118 -0.5992 -0.7527
   56SOL    HW1  952   0.632   3.239   1.653  0.4334  0.6917  0.3094
   56SOL    HW2  953   0.713   3.178   1.766  0.7507 -1.0669 -0.8203
   57SOL     OW  954   1.311   2.521   0.212  0.4606  0.0540  0.1375
   57SOL    HW1  955   1.291   2.581   0.140  0.1898 -0.3710 -0.1468
   57SOL    HW2  956   1.271   2.561   0.289  2.1005  1.3306  0.3827
   58SOL     OW  957   1.965   3.043   0.919 -0.1066  0.0997  0.6717
   58SOL    HW1  958   1.897   3.097   0.880 -1.0426  0.0195  2.0943
   58SOL    HW2  959   1.919   2.963   0.947  1.3579 -1.8172 -1.9828
   59SOL     OW  960   2.011   1.033   2.235 -0.3987 -0.1194 -0.1133
   59SOL    HW1  961   1.946   1.072   2.177 -0.4874 -0.8706 -0.5410
   59SOL    HW2  962   1.962   0.970   2.288  0.0280 -1.0311 -0.7625
   60SOL     OW  963   1.435   0.577   0.421 -0.4430 -0.1122  0.7334
   60SOL    HW1  964   1.359   0.540   0.467 -0.4383 -1.3457 -0.2035
   60SOL    HW2  965   1.398   0.616   0.342 -0.4280  1.8593  1.6378
   61SOL     OW  966   1.665   2.175   3.289 -0.3621  0.3021 -0.1140
   61SOL    HW1  967   1.658   2.130   3.205 -1.2978  0.1692  0.0253
   61SOL    HW2  968   1.651   2.267   3.268  0.1011  0.3576 -0.1945
   62SOL     OW  969   1.572   3.036   2.492  0.3535  0.0976  0.3644
   62SOL    HW1  970   1.631   3.058   2.565  0.2282 -0.6399  0.7011
   62SOL    HW2  971   1.612   3.077   2.415  0.0619  1.5681  0.9707
   63SOL     OW  972   2.140   1.164   1.831  0.1659 -0.2819  0.8324
   63SOL    HW1  973   2.066   1.145   1.889  0.7606  0.4868  1.8889
   63SOL    HW2  974   2.190   1.232   1.878  0.6818  0.3542 -0.5854
   64SOL     OW  975   0.473   3.323   1.605  0.0631  0.3031  0.3557
   64SOL    HW1  976   0.440   3.355   1.521  0.6647  0.7453  0.2817
   64SOL    HW2  977   0.394   3.308   1.657 -0.3456 -0.3381 -0.4024
   65SOL     OW  978   0.157   3.069   1.359  0.3159 -0.2875 -0.2895
   65SOL    HW1  979   0.192   3.002   1.418  0.7309 -0.6220 -0.8949
   65SOL    HW2  980   0.202   3.052   1.276 -0.2567  0.1755 -0.6957
   66SOL     OW  981   0.341   0.307   2.057 -0.1388 -0.6616  0.1325
   66SOL    HW1  982   0.427   0.279   2.088  0.4074 -0.6666 -1.3313
   66SOL    HW2  983   0.299   0.226   2.027  0.0156 -0.4311 -0.7171
   67SOL     OW  984   2.811   0.891   2.157  0.4204 -0.5357 -0.1051
   67SOL    HW1  985   2.828   0.804   2.120  1.4309 -0.1972 -0.4815
   67SOL    HW2  986   2.883   0.906   2.218  1.1109  0.6219 -1.1354
   68SOL     OW  987   0.789   3.277   1.042  0.1098 -0.2947  0.3495
   68SOL    HW1  988   0.844   3.204   1.072 -0.1171 -0.8740 -0.6095
   68SOL    HW2  989   0.749   3.311   1.122  2.6496  0.8356  1.2471
   69SOL     OW  990   1.044   0.540   3.185 -0.1562  0.3318  0.0039
   69SOL    HW1  991   0.957   0.570   3.158  0.6629  0.6372 -2.6396
   69SOL    HW2  992   1.096   0.545   3.105  2.0373 -0.8532  1.2685
   70SOL     OW  993   0.356   2.868   3.151 -0.0889 -0.1012 -0.2457
   70SOL    HW1  994   0.325   2.954   3.121 -0.6577 -0.8833 -2.0615
   70SOL    HW2  995   0.334   2.809   3.079  2.8683 -1.2736 -0.3142
   71SOL     OW  996   2.770   2.395   1.178 -0.3181 -0.2720 -0.3759
   71SOL    HW1  997   2.787   2.416   1.087 -0.9680 -1.1030 -0.7025
   71SOL    HW2  998   2.781   2.478   1.225 -0.8296  0.3459 -1.3248
   72SOL     OW  999   1.339   0.224   0.681 -0.3511 -0.1068  0.6261
   72SOL    HW1 1000   1.418   0.205   0.731 -0.2246 -0.4495  0.2976
   72SOL    HW2 1001   1.369   0.230   0.590 -0.3748  1.6539  0.6944
   73SOL     OW 1002   0.559   0.130   0.304  0.2711  0.2162  0.1894
   73SOL    HW1 1003   0.559   0.041   0.339  0.9487 -0.0594 -0.4763
   73SOL    HW2 1004   0.651   0.148   0.286 -0.0738  0.0588 -2.0907
   74SOL     OW 1005   2.278   0.502   1.554 -0.1603 -0.9889  0.1009
   74SOL    HW1 1006   2.212   0.441   1.587  0.5321 -1.3002  0.9499
   74SOL    HW2 1007   2.320   0.537   1.633  0.4219 -0.4955 -0.4123
   75SOL     OW 1008   3.194   2.958   1.436  0.4408  0.4371 -0.4196
   75SOL    HW1 1009   3.154   2.872   1.450  1.6298 -0.6783 -3.2824
   75SOL    HW2 1010   3.281   2.951   1.476  0.9321 -0.0803 -1.5544
   76SOL     OW 1011   0.106   0.749   2.029 -0.1832 -0.3183  0.1289
   76SOL    HW1 1012   0.055   0.675   1.997  1.8452 -1.0478 -1.7082
   76SOL    HW2 1013   0.068   0.770   2.114 -2.5727 -1.6648 -0.5143
   77SOL     OW 1014   2.319   1.564   1.129 -0.1179 -0.4158 -0.5441
   77SOL    HW1 1015   2.250   1.599   1.185 -0.4323  0.6600 -1.5717
   77SOL    HW2 1016   2.399   1.576   1.179 -0.3114  1.1541 -0.5617
   78SOL     OW 1017   3.022   3.314   2.073  0.0637 -0.0717 -0.3513
   78SOL    HW1 1018   2.979   3.306   1.987  1.0567  0.8250 -0.9573
   78SOL    HW2 1019   2.981   3.392   2.112 -1.0377 -0.9944  0.4086
   79SOL     OW 1020   2.695   3.140   2.508  0.2773 -0.4561  0.1150
   79SOL    HW1 1021   2.642   3.217   2.489 -0.4503 -0.5218  1.7491
   79SOL    HW2 1022   2.754   3.133   2.433 -1.4658  0.0804 -1.3833
   80SOL     OW 1023   2.980   2.244   0.271  1.0465  0.3179 -0.1729
   80SOL    HW1 1024   3.056   2.291   0.306  1.5334 -0.9602  0.5170
   80SOL    HW2 1025   3.002   2.228   0.179  0.7744  1.6060 -0.4883
   81SOL     OW 1026   1.189   0.241   2.215  0.0688  0.6653  0.1045
   81SOL    HW1 1027   1.188   0.150   2.186 -0.5100  0.3789  0.9763
   81SOL    HW2 1028   1.282   0.264   2.218  0.2716 -0.1681  0.6629
   82SOL     OW 1029   1.336   0.999   2.510 -0.0432  0.5071  0.0544
   82SOL    HW1 1030   1.419   1.007   2.557 -1.5317 -1.5940  3.3945
   82SOL    HW2 1031   1.301   1.088   2.507  1.4722  1.1376  0.2300
   83SOL     OW 1032   1.801   0.325   3.001 -0.2495 -0.0144 -0.2194
   83SOL    HW1 1033   1.749   0.284   2.932 -1.6679  0.4298  0.5654
   83SOL    HW2 1034   1.832   0.407   2.962 -0.5242 -0.0564 -0.5335
   84SOL     OW 1035   2.745   2.902   1.691  0.3596 -0.2299 -0.7356
   84SOL    HW1 1036   2.709   2.937   1.610  0.4871 -2.5540 -1.8764
   84SOL    HW2 1037   2.719   2.965   1.758 -0.5292  1.2898 -2.4217
   85SOL     OW 1038   1.532   0.790   1.206  0.2807  0.0027 -0.2231
   85SOL    HW1 1039   1.561   0.796   1.115 -0.2740 -1.3286 -0.5224
   85SOL    HW2 1040   1.456   0.849   1.210 -0.9991 -1.4754 -1.2273
   86SOL     OW 1041   2.302   0.619   1.311 -0.2517  0.1365  0.1226
   86SOL    HW1 1042   2.312   0.551   1.379 -0.4823  0.0624  0.0820
   86SOL    HW2 1043   2.313   0.701   1.358  0.8238  0.0518  0.0374
   87SOL     OW 1044   0.274   3.151   1.075  0.3488 -0.2056  0.3072
   87SOL    HW1 1045   0.197   3.165   1.019 -0.1390  0.3293  1.0956
   87SOL    HW2 1046   0.340   3.210   1.039  0.5302 -0.9511 -0.6161
   88SOL     OW 1047   1.105   0.482   2.080 -0.0518  0.5430  0.1891
   88SOL    HW1 1048   1.064   0.548   2.135 -2.4384 -0.5487 -0.1557
   88SOL    HW2 1049   1.105   0.403   2.134  0.5680  0.2426 -0.2416
   89SOL     OW 1050   2.353   2.235   1.851  0.5358 -0.1438  0.2166
   89SOL    HW1 1051   2.313   2.151   1.830 -0.4828  0.4287 -0.2152
   89SOL    HW2 1052   2.420   2.247   1.783  1.7947 -1.3058  1.1934
   90SOL     OW 1053   1.568   1.029   2.148 -0.1758 -0.3150 -0.1276
   90SOL    HW1 1054   1.650   1.057   2.108 -1.3679  2.0749 -1.0909
   90SOL    HW2 1055   1.595   0.970   2.218  2.4085  0.9148  0.0339
   91SOL     OW 1056   2.348   2.524   2.761  0.5096 -0.0135 -0.1370
   91SOL    HW1 1057   2.358   2.452   2.699  0.3808  0.0554 -0.2375
   91SOL    HW2 1058   2.380   2.488   2.844  1.0639  0.0289 -0.3312
   92SOL     OW 1059   2.195   2.915   0.834  0.3686  0.3314 -0.1327
   92SOL    HW1 1060   2.250   2.908   0.913  1.9297  0.6409 -1.1494
   92SOL    HW2 1061   2.134   2.986   0.854  0.4739  0.1444  0.9396
   93SOL     OW 1062   1.856   2.865   1.631  0.1295  0.3775  0.0411
   93SOL    HW1 1063   1.928   2.892   1.688 -0.3475  0.9173  0.3840
   93SOL    HW2 1064   1.778   2.869   1.686 -0.3414  0.9314 -0.6463
   94SOL     OW 1065   1.114   0.946   0.949 -0.3964  0.1716 -0.0109
   94SOL    HW1 1066   1.063   0.866   0.934 -0.7703  0.4077 -0.0197
   94SOL    HW2 1067   1.195   0.932   0.901 -1.1049  0.4472 -1.3172
   95SOL     OW 1068   1.109   3.212   0.338 -0.2610  0.3894  0.3665
   95SOL    HW1 1069   1.099   3.278   0.407 -1.1369 -0.7555  1.3740
   95SOL    HW2 1070   1.202   3.192   0.337  0.3601  2.8878 -1.1956
   96SOL     OW 1071   0.613   3.076   0.259 -0.1755 -0.2810 -0.3469
   96SOL    HW1 1072   0.659   3.159   0.272 -0.8560 -0.0128  0.4131
   96SOL    HW2 1073   0.680   3.009   0.276  0.1077  0.1077  0.1023
   97SOL     OW 1074   2.409   3.159   1.901  0.0597 -0.3180  0.0482
   97SOL    HW1 1075   2.434   3.231   1.842  0.4673  0.2086  0.8422
   97SOL    HW2 1076   2.342   3.198   1.958 -1.6426 -1.3194 -1.1542
   98SOL     OW 1077   2.216   3.254   2.051  0.2541 -0.1004  0.2199
   98SOL    HW1 1078   2.210   3.337   2.100 -0.0280 -0.0116  0.0373
   98SOL    HW2 1079   2.140   3.204   2.081  0.4165 -0.2874  0.3177
   99SOL     OW 1080   3.071   2.220   1.750 -0.0414  0.1781 -0.5902
   99SOL    HW1 1081   3.058   2.127   1.732 -0.5959  0.4558 -1.7063
   99SOL    HW2 1082   2.984   2.259   1.739  0.2513  0.8780 -0.4715
  100SOL     OW 1083   1.316   0.780   0.193  0.2398  0.7132  0.2557
  100SOL    HW1 1084   1.267   0.729   0.129  0.0020  1.3207 -0.0515
  100SOL    HW2 1085   1.267   0.862   0.201  0.3207  0.6923  1.1340
  101SOL     OW 1086   0.743   0.604   1.755 -0.2014  0.0379 -0.4781
  101SOL    HW1 1087   0.809   0.586   1.688 -1.4776 -1.5081 -1.3895
  101SOL    HW2 1088   0.671   0.645   1.707 -0.1563  1.1850  0.3988
  102SOL     OW 1089   2.122   1.734   1.254 -0.1641  0.1139 -0.1284
  102SOL    HW1 1090   2.157   1.823   1.245 -0.8980  0.3343 -0.9514
  102SOL    HW2 1091   2.077   1.735   1.338 -0.2932  0.5701 -0.1989
  103SOL     OW 1092   2.730   0.455   2.325 -0.0211 -0.1295  0.4061
  103SOL    HW1 1093   2.663   0.438   2.259  0.5852 -1.7511  0.1724
  103SOL    HW2 1094   2.729   0.550   2.335  0.6979  0.3383 -2.8205
  104SOL     OW 1095   0.362   0.698   3.278 -0.0434 -0.0842  0.0916
  104SOL    HW1 1096   0.315   0.778   3.255  1.5275  1.2282  1.2285
  104SOL    HW2 1097   0.354   0.692   3.373 -1.6572 -2.3148 -0.1051
  105SOL     OW 1098   0.637   0.198   1.399 -0.1587 -0.3725  0.0279
  105SOL    HW1 1099   0.544   0.178   1.385 -0.0440 -0.6009 -0.4252
  105SOL    HW2 1100   0.657   0.265   1.334 -0.2870  0.4944  0.8733
  106SOL     OW 1101   1.131   2.884   0.523 -0.0359  0.0767  0.2615
  106SOL    HW1 1102   1.149   2.955   0.462  0.8375 -0.6529 -0.3652
  106SOL    HW2 1103   1.205   2.884   0.583 -0.4032  0.1665  0.7222
  107SOL     OW 1104   3.186   1.875   0.518 -0.0067  0.4454  0.0538
  107SOL    HW1 1105   3.128   1.857   0.591  1.6097  1.6049  1.7027
  107SOL    HW2 1106   3.222   1.789   0.495  0.0397  0.1544  1.1472
  108SOL     OW 1107   1.885   2.097   1.006  0.3996  0.0846 -0.0189
  108SOL    HW1 1108   1.904   2.137   1.092 -1.5904  0.2841  0.3650
  108SOL    HW2 1109   1.793   2.117   0.990  0.8351  0.4527 -2.4436
  109SOL     OW 1110   1.232   3.123   2.879 -0.3065  0.1120  0.0209
  109SOL    HW1 1111   1.170   3.050   2.873  0.1037 -0.3795  1.4049
  109SOL    HW2 1112   1.289   3.112   2.802  0.4449 -1.7264  0.7810
  110SOL     OW 1113   1.636   2.051   1.266  0.0220  0.2047 -0.4784
  110SOL    HW1 1114   1.595   2.136   1.281  2.4706  1.3660  0.1652
  110SOL    HW2 1115   1.600   2.020   1.183 -0.7844  1.9591 -0.8115
  111SOL     OW 1116   3.330   2.011   1.549 -0.2947 -0.2917 -0.6551
  111SOL    HW1 1117   3.379   1.976   1.474  0.1939 -0.8242 -0.1021
  111SOL    HW2 1118   3.290   1.934   1.589 -0.2548 -0.0596 -0.1612
  112SOL     OW 1119   1.198   0.495   0.516 -0.5604 -0.2893  0.4209
  112SOL    HW1 1120   1.218   0.416   0.566 -1.3674  0.2170  1.5820
  112SOL    HW2 1121   1.152   0.552   0.578  0.0196  1.1095 -0.3799
  113SOL     OW 1122   1.735   2.483   0.969 -0.5093 -0.2022  0.6985
  113SOL    HW1 1123   1.761   2.447   0.884 -1.4161  1.5247 -0.3739
  113SOL    HW2 1124   1.811   2.532   0.999 -0.4450 -0.1946  0.5237
  114SOL     OW 1125   2.776   1.116   2.587 -0.1054 -0.2732  0.0461
  114SOL    HW1 1126   2.869   1.113   2.565 -0.6227 -3.0776 -2.4021
  114SOL    HW2 1127   2.757   1.209   2.595  1.9793  0.7870 -4.2319
  115SOL     OW 1128   1.514   1.171   3.290  0.1505  0.3713 -0.1743
  115SOL    HW1 1129   1.437   1.117   3.274 -1.0371  1.2776  1.9521
  115SOL    HW2 1130   1.512   1.238   3.221 -1.5966  0.9874  0.4327
  116SOL     OW 1131   0.897   2.947   3.100  0.3830 -0.4632 -0.2154
  116SOL    HW1 1132   0.863   2.858   3.110  0.9283 -0.6262  0.2093
  116SOL    HW2 1133   0.835   3.002   3.147 -0.6326 -0.4602 -1.4958
  117SOL     OW 1134   2.978   2.711   1.116 -0.2654  0.5855  0.1564
  117SOL    HW1 1135   3.030   2.640   1.078 -1.6048  0.7031 -2.0327
  117SOL    HW2 1136   3.043   2.770   1.155  1.1660  0.0857 -1.3615
  118SOL     OW 1137   0.803   0.610   3.090  0.6390 -0.0335 -0.2529
  118SOL    HW1 1138   0.767   0.692   3.055  2.2117 -0.1609 -2.3484
  118SOL    HW2 1139   0.794   0.547   3.019  3.6488 -0.4138 -0.4209
  119SOL     OW 1140   3.199   0.535   2.814 -0.0261 -0.8130 -0.9999
  119SOL    HW1 1141   3.172   0.483   2.890 -1.6464  0.3307 -0.7593
  119SOL    HW2 1142   3.295   0.530   2.815 -0.0717 -2.1438  0.1625
  120SOL     OW 1143   2.887   1.330   0.952 -0.5683 -0.1439 -0.3986
  120SOL    HW1 1144   2.924   1.246   0.980  0.1110 -0.3165 -1.7258
  120SOL    HW2 1145   2.825   1.353   1.021 -0.4840 -1.5475  0.1826
  121SOL     OW 1146   0.703   0.139   3.298  0.0960  0.6434  0.1836
  121SOL    HW1 1147   0.647   0.062   3.306  0.9537  0.0640  0.8936
  121SOL    HW2 1148   0.791   0.103   3.288  0.7264  1.5215  2.1162
  122SOL     OW 1149   1.823   2.544   2.524  0.1203  0.3011 -0.4757
  122SOL    HW1 1150   1.887   2.475   2.544 -1.5011 -1.3462 -0.6460
  122SOL    HW2 1151   1.875   2.617   2.492  1.9826 -0.5894  0.3654
  123SOL     OW 1152   1.198   1.242   2.411  0.7395 -0.2382 -0.0018
  123SOL    HW1 1153   1.126   1.209   2.357  0.1641  0.8154  0.0881
  123SOL    HW2 1154   1.229   1.320   2.365  1.1599 -0.1184  0.4757
  124SOL     OW 1155   2.810   0.489   2.696  0.0587 -0.4911  0.1160
  124SOL    HW1 1156   2.725   0.474   2.654  0.0196  0.2926 -0.0961
  124SOL    HW2 1157   2.828   0.582   2.682  1.0878 -0.7081 -0.1006
  125SOL     OW 1158   0.016   2.729   1.824 -0.3699 -0.0710 -0.5840
  125SOL    HW1 1159   0.103   2.691   1.831 -0.1236  0.7583  1.8408
  125SOL    HW2 1160  -0.043   2.656   1.842 -0.0790 -0.1896 -0.1020
  126SOL     OW 1161   2.566   1.923   0.226  0.1915  0.6016  0.1990
  126SOL    HW1 1162   2.630   1.994   0.239 -0.3551  1.2642 -0.6248
  126SOL    HW2 1163   2.481   1.966   0.236 -0.2554  0.7877 -3.2546
  127SOL     OW 1164   1.017   2.855   0.953  0.1798 -0.1459  0.0936
  127SOL    HW1 1165   0.958   2.829   1.023  0.4343  1.5826  1.0066
  127SOL    HW2 1166   0.993   2.946   0.934  0.2429 -0.5000 -1.9604
  128SOL     OW 1167   2.565   0.140   2.780 -0.0152 -0.1751 -0.0944
  128SOL    HW1 1168   2.634   0.196   2.743  1.6239 -0.9026  1.6459
  128SOL    HW2 1169   2.522   0.196   2.845  0.5233 -0.3950  0.4682
  129SOL     OW 1170   0.148   2.923   0.005 -0.2444  0.1319  0.0921
  129SOL    HW1 1171   0.221   2.913  -0.056 -0.4411 -0.0988 -0.1081
  129SOL    HW2 1172   0.159   2.852   0.067  0.3608  0.7878  0.7521
  130SOL     OW 1173   3.321   2.387   0.584  0.2936 -0.0062  0.0413
  130SOL    HW1 1174   3.288   2.299   0.605 -0.0928  0.4234  1.3737
  130SOL    HW2 1175   3.357   2.418   0.667  0.0461  1.2477 -0.3103
  131SOL     OW 1176   1.834   2.668   1.969 -0.1834 -0.7325 -0.0680
  131SOL    HW1 1177   1.881   2.604   1.917  0.3100 -0.4629  0.0401
  131SOL    HW2 1178   1.874   2.663   2.056  0.2741  0.1428 -0.2180
  132SOL     OW 1179   3.001   0.736   0.648  0.1893  0.1946  0.8851
  132SOL    HW1 1180   2.909   0.761   0.647  0.5594  1.6591  1.0970
  132SOL    HW2 1181   3.044   0.802   0.593  1.0520 -0.7064  0.4618
  133SOL     OW 1182   3.298   3.267   2.251 -0.5663  0.3916  0.0406
  133SOL    HW1 1183   3.315   3.270   2.157 -0.8101  1.0255  0.0138
  133SOL    HW2 1184   3.378   3.301   2.291 -0.4780  0.1608  0.0595
  134SOL     OW 1185   2.561   0.480   2.567 -0.2494  0.3896  0.0570
  134SOL    HW1 1186   2.477   0.471   2.612 -0.3889 -0.7272 -0.3816
  134SOL    HW2 1187   2.543   0.537   2.493 -0.3015  1.2345  0.7046
  135SOL     OW 1188   1.584   0.669   2.063  0.0535  0.5500 -0.7188
  135SOL    HW1 1189   1.627   0.733   2.006  0.1445  1.5319  0.4015
  135SOL    HW2 1190   1.599   0.702   2.152 -0.4887 -0.6779 -0.1443
  136SOL     OW 1191   1.698   2.393   1.307 -0.3870 -0.1291 -0.4710
  136SOL    HW1 1192   1.783   2.357   1.283 -0.1893 -1.5232  1.9571
  136SOL    HW2 1193   1.717   2.484   1.332  0.3567 -0.3495 -0.2081
  137SOL     OW 1194   1.184   3.197   2.394 -0.0668  0.3586 -0.1021
  137SOL    HW1 1195   1.184   3.231   2.304  0.1680 -0.6495 -0.4903
  137SOL    HW2 1196   1.094   3.170   2.409  0.5156 -2.5763 -1.2652
  138SOL     OW 1197   2.959   2.715   2.346 -0.2534 -0.5017  0.5565
  138SOL    HW1 1198   2.933   2.765   2.423 -0.8044  2.1703 -1.2198
  138SOL    HW2 1199   2.883   2.720   2.287  0.6042 -1.3945 -0.6850
  139SOL     OW 1200   2.485   1.794   1.280 -0.2536  0.0202  0.2059
  139SOL    HW1 1201   2.429   1.835   1.214  0.3300 -0.5351 -0.6712
  139SOL    HW2 1202   2.511   1.865   1.338 -1.1217  0.4446  0.0877
  140SOL     OW 1203   1.369   0.085   1.173  0.0606 -0.0210 -0.0754
  140SOL    HW1 1204   1.358   0.113   1.082 -0.6615  1.2348  0.3856
  140SOL    HW2 1205   1.461   0.103   1.193 -0.0866  0.8542 -0.1780
  141SOL     OW 1206   2.238   1.188   2.233 -0.0246  0.0674  0.3126
  141SOL    HW1 1207   2.158   1.139   2.217 -1.0433  1.4812  0.8866
  141SOL    HW2 1208   2.271   1.153   2.316  0.8746 -1.6300 -0.6977
  142SOL     OW 1209   1.911   2.949   1.386  0.2774 -0.1846  0.0966
  142SOL    HW1 1210   2.006   2.963   1.383  0.5338 -1.3783  1.2694
  142SOL    HW2 1211   1.897   2.903   1.469 -1.1200 -1.5662 -0.8569
  143SOL     OW 1212   0.084   2.959   2.263 -0.2223 -0.0383 -0.1258
  143SOL    HW1 1213   0.046   2.960   2.175 -0.8491  0.2137  0.1471
  143SOL    HW2 1214   0.131   2.876   2.268 -0.4140 -0.1769 -0.6007
  144SOL     OW 1215   0.428   0.354   2.380 -0.2525  0.6348 -0.3438
  144SOL    HW1 1216   0.514   0.396   2.374  1.4530 -2.3876  0.2487
  144SOL    HW2 1217   0.441   0.269   2.338 -3.5340  0.7220 -1.8066
  145SOL     OW 1218   0.437   3.335   2.893  0.0970  0.1715  0.6526
  145SOL    HW1 1219   0.497   3.272   2.933  1.4059  1.9798  1.7284
  145SOL    HW2 1220   0.483   3.419   2.900 -0.4123  0.9173 -3.0212
  146SOL     OW 1221   1.646   2.309   2.695 -0.3938 -0.0931 -0.4496
  146SOL    HW1 1222   1.587   2.384   2.686  0.8555  0.7632 -2.2923
  146SOL    HW2 1223   1.655   2.296   2.789 -1.5847  1.2988 -0.1082
  147SOL     OW 1224   2.722   3.007   1.447  0.6194  0.0111 -0.3510
  147SOL    HW1 1225   2.711   2.970   1.359 -0.0742 -0.1797 -0.1887
  147SOL    HW2 1226   2.691   3.097   1.439 -1.5092 -0.6280  0.1889
  148SOL     OW 1227   2.227   2.009   1.780 -0.9448 -0.0840 -0.9080
  148SOL    HW1 1228   2.221   1.916   1.801  1.1479 -0.1764 -0.5100
  148SOL    HW2 1229   2.139   2.033   1.751 -2.2982 -1.4940  1.7280
  149SOL     OW 1230   1.278   0.963   1.187  0.0954  0.0368 -0.6345
  149SOL    HW1 1231   1.236   0.923   1.264  2.0001 -0.4818  0.1843
  149SOL    HW2 1232   1.214   0.952   1.117 -1.5368  0.1619  0.7671
  150SOL     OW 1233   2.242   0.111   2.760 -0.3580 -0.1096  0.5628
  150SOL    HW1 1234   2.313   0.092   2.821  1.4877  0.8192 -1.1918
  150SOL    HW2 1235   2.215   0.025   2.727  0.7280 -0.4118  0.4217
  151SOL     OW 1236   1.873   0.805   2.331 -0.3137  0.4339 -0.3381
  151SOL    HW1 1237   1.778   0.809   2.342 -0.4496 -0.5931 -1.0000
  151SOL    HW2 1238   1.905   0.768   2.413 -0.7247 -1.2842 -0.8970
  152SOL     OW 1239   0.372   0.757   1.936 -0.2399  0.5798  0.2181
  152SOL    HW1 1240   0.450   0.812   1.939  1.0904 -1.2419  1.2075
  152SOL    HW2 1241   0.300   0.816   1.960  0.8414  2.2319 -0.4194
  153SOL     OW 1242   1.780   0.863   1.663 -0.7542 -0.5758  0.3184
  153SOL    HW1 1243   1.788   0.779   1.619 -0.0845 -0.1220 -0.4346
  153SOL    HW2 1244   1.712   0.910   1.615 -0.6928 -0.4449  0.3575
  154SOL     OW 1245   1.257   2.625   1.961 -0.0598  0.2617  0.5206
  154SOL    HW1 1246   1.262   2.721   1.962  1.4418  0.2149  1.6048
  154SOL    HW2 1247   1.344   2.597   1.991  0.5042 -1.5079 -2.4245
  155SOL     OW 1248   3.075   2.833   2.032 -0.3567  0.5149  0.4934
  155SOL    HW1 1249   3.083   2.904   2.095 -0.8170  0.3520  0.7375
  155SOL    HW2 1250   3.125   2.760   2.070 -2.4244 -0.3237  1.7593
  156SOL     OW 1251   1.807   0.148   1.081 -0.1067 -0.1286 -0.4017
  156SOL    HW1 1252   1.779   0.135   0.990 -0.5943 -0.8823 -0.1580
  156SOL    HW2 1253   1.886   0.094   1.090  0.2945  0.4318 -0.5443
  157SOL     OW 1254   0.054   2.496   1.498  0.0774 -0.5503  0.2416
  157SOL    HW1 1255   0.145   2.513   1.525  0.3100 -1.7993  0.2964
  157SOL    HW2 1256   0.024   2.428   1.558 -0.5683 -0.8646 -0.4318
  158SOL     OW 1257   0.370   2.866   2.814  0.6941  0.4910  0.4007
  158SOL    HW1 1258   0.455   2.905   2.791  1.4856 -0.8563  0.9225
  158SOL    HW2 1259   0.392   2.779   2.847 -0.9140  0.0840  0.4688
  159SOL     OW 1260   0.498   2.658   2.539 -0.1723  0.5504  0.4872
  159SOL    HW1 1261   0.460   2.610   2.612 -2.0549  0.0449 -0.7502
  159SOL    HW2 1262   0.435   2.727   2.519 -0.3468 -0.0763 -1.3942
  160SOL     OW 1263   0.431   2.789   2.051 -0.5827 -0.6914 -0.2986
  160SOL    HW1 1264   0.468   2.810   2.137 -0.6121 -1.5021 -0.0739
  160SOL    HW2 1265   0.455   2.863   1.995 -0.0966 -0.4080  0.2722
  161SOL     OW 1266   1.429   1.973   0.492 -0.0477 -0.2694 -0.1959
  161SOL    HW1 1267   1.521   1.992   0.473  0.0774  0.3274  0.9061
  161SOL    HW2 1268   1.381   1.999   0.413  1.0013 -3.5938 -2.1358
  162SOL     OW 1269   1.585   3.117   1.851 -0.0357  0.1298  0.1976
  162SOL    HW1 1270   1.563   3.102   1.759 -1.6859  1.9731  0.2210
  162SOL    HW2 1271   1.656   3.055   1.869 -0.4944 -1.1283 -1.9570
  163SOL     OW 1272   1.373   1.355   0.407 -0.3185  0.8973  0.2259
  163SOL    HW1 1273   1.336   1.390   0.326 -1.1766  0.2118  0.3125
  163SOL    HW2 1274   1.353   1.421   0.473 -1.1792  0.6541  0.2201
  164SOL     OW 1275   2.119   0.412   2.348  0.0999 -0.2478 -0.3376
  164SOL    HW1 1276   2.092   0.483   2.407 -0.7861 -0.6608 -0.2215
  164SOL    HW2 1277   2.145   0.341   2.406  0.5699 -0.1722 -0.4535
  165SOL     OW 1278   1.571   1.675   1.048 -0.0131 -0.1006  0.5302
  165SOL    HW1 1279   1.588   1.679   1.142 -0.5508 -2.3043  0.7697
  165SOL    HW2 1280   1.631   1.608   1.015  0.3611  0.8242 -0.7776
  166SOL     OW 1281   1.913   0.406   1.041  0.5494 -0.4188  0.2345
  166SOL    HW1 1282   1.964   0.430   1.118  0.2183 -1.3929  0.7765
  166SOL    HW2 1283   1.836   0.361   1.077  1.1320 -2.2486 -0.7077
  167SOL     OW 1284   2.276   2.562   2.249 -1.2302 -0.0997  0.2854
  167SOL    HW1 1285   2.230   2.527   2.325 -1.7028 -0.7303 -0.2697
  167SOL    HW2 1286   2.206   2.594   2.192 -0.8561  0.7861  0.3150
  168SOL     OW 1287   3.321   0.017   1.065 -0.3650  0.5089 -0.4363
  168SOL    HW1 1288   3.229   0.041   1.061 -1.1298 -1.6463  1.5394
  168SOL    HW2 1289   3.321  -0.079   1.055  1.6891  0.4918 -0.7133
  169SOL     OW 1290   3.207   0.530   2.553 -0.1583 -0.5293 -0.2009
  169SOL    HW1 1291   3.196   0.563   2.642 -0.9487  2.3052 -1.2251
  169SOL    HW2 1292   3.262   0.452   2.562  0.2997  0.0299  2.6703
  170SOL     OW 1293   1.994   2.822   2.991 -0.2913 -0.1416 -0.4633
  170SOL    HW1 1294   2.036   2.870   3.063 -1.2623 -1.2989  0.9304
  170SOL    HW2 1295   2.035   2.736   2.992  1.1228  0.4306 -2.6615
  171SOL     OW 1296   1.264   1.812   2.036 -0.0182 -0.0838 -0.3901
  171SOL    HW1 1297   1.323   1.887   2.036  0.2231 -0.1810  2.1937
  171SOL    HW2 1298   1.282   1.767   2.119 -2.3443 -1.2214 -0.4171
  172SOL     OW 1299   2.167   2.628   2.973  0.5542  0.3153  0.2296
  172SOL    HW1 1300   2.118   2.548   2.956  0.0686  0.7326 -0.3764
  172SOL    HW2 1301   2.222   2.639   2.896  0.5606  0.6036  0.2751
  173SOL     OW 1302   3.170   3.132   1.003  0.3893 -0.1194  0.5026
  173SOL    HW1 1303   3.190   3.047   1.043 -0.6871 -0.4738  0.3365
  173SOL    HW2 1304   3.157   3.191   1.076 -0.3259 -0.4654  0.6695
  174SOL     OW 1305   2.583   0.391   1.489  0.8278 -0.2911  0.0008
  174SOL    HW1 1306   2.580   0.365   1.396  0.4660  0.6180 -0.2526
  174SOL    HW2 1307   2.636   0.471   1.489 -1.2955  1.2005  0.1871
  175SOL     OW 1308   2.121   1.878   0.347  0.1957 -0.0736 -0.0778
  175SOL    HW1 1309   2.119   1.884   0.443 -0.1542 -1.0266 -0.0114
  175SOL    HW2 1310   2.029   1.875   0.322  0.2396 -2.1855 -0.2386
  176SOL     OW 1311   1.894   2.276   2.556  0.2276 -0.3000 -0.0380
  176SOL    HW1 1312   1.945   2.239   2.628  0.1202  2.1305  1.3695
  176SOL    HW2 1313   1.814   2.308   2.596 -0.5590 -0.3096 -1.5284
  177SOL     OW 1314   2.902   2.707   3.231  0.0057 -0.2189  0.7561
  177SOL    HW1 1315   2.974   2.726   3.291 -1.2146  0.5089  2.0550
  177SOL    HW2 1316   2.891   2.612   3.237  1.9641 -0.5967 -0.8198
  178SOL     OW 1317   2.641   2.321   3.337  0.0368  0.6698  0.2291
  178SOL    HW1 1318   2.629   2.384   3.266  0.7281 -1.2171 -1.6888
  178SOL    HW2 1319   2.570   2.340   3.398 -1.2605  1.7027 -1.4974
  179SOL     OW 1320   2.970   1.630   1.079 -0.7057 -0.3966  0.0074
  179SOL    HW1 1321   2.911   1.573   1.128 -0.0931 -0.0190  1.2110
  179SOL    HW2 1322   3.027   1.569   1.032  0.2117 -0.8384  1.6044
  180SOL     OW 1323   1.778   2.852   0.977 -0.3106 -0.2787  0.0851
  180SOL    HW1 1324   1.719   2.860   1.052 -0.1305 -0.5269  0.2524
  180SOL    HW2 1325   1.724   2.877   0.902 -0.2280  0.9161  0.4051
  181SOL     OW 1326   2.866   1.575   3.161  0.4657 -0.5364 -0.2776
  181SOL    HW1 1327   2.944   1.618   3.126 -0.5522  0.1786 -1.7698
  181SOL    HW2 1328   2.833   1.523   3.088 -2.2370  1.7018 -0.8238
  182SOL     OW 1329   1.612   2.091   0.270 -0.0471 -0.2867  0.1525
  182SOL    HW1 1330   1.554   2.163   0.246 -1.0893 -1.4393 -1.0270
  182SOL    HW2 1331   1.582   2.018   0.215  0.4311 -1.8378  1.8519
  183SOL     OW 1332   1.400   0.068   1.799 -0.0599 -0.3814  0.1676
  183SOL    HW1 1333   1.381   0.009   1.871 -1.2297 -0.1794  0.0466
  183SOL    HW2 1334   1.348   0.034   1.726 -1.3542  1.1963  0.2994
  184SOL     OW 1335   0.498   1.895   2.871 -0.3991  0.2222  0.2818
  184SOL    HW1 1336   0.433   1.827   2.854  1.0260 -1.3549  0.8518
  184SOL    HW2 1337   0.447   1.969   2.902 -1.8993 -1.1149  1.1878
  185SOL     OW 1338   2.739   2.650   2.158 -0.5994 -0.6099 -0.8113
  185SOL    HW1 1339   2.659   2.661   2.209 -0.3060  1.9602 -0.7680
  185SOL    HW2 1340   2.711   2.608   2.076 -1.7922 -0.7240 -0.3557
  186SOL     OW 1341   0.845   0.420   1.964 -0.3263 -0.0335 -0.5409
  186SOL    HW1 1342   0.806   0.495   1.918 -0.2114 -0.3755 -1.2038
  186SOL    HW2 1343   0.937   0.442   1.973 -0.4126  0.1845 -0.1618
  187SOL     OW 1344   3.268   2.636   2.125  0.2006 -0.1670  0.1746
  187SOL    HW1 1345   3.360   2.648   2.148  0.1559 -0.7049  0.6691
  187SOL    HW2 1346   3.264   2.547   2.089  0.0445  0.2118 -0.7828
  188SOL     OW 1347   1.694   3.153   3.066  0.0791  0.4219  0.0496
  188SOL    HW1 1348   1.638   3.186   3.136 -1.0727  1.2178 -1.1814
  188SOL    HW2 1349   1.705   3.060   3.086 -1.4658  0.3086  0.4981
  189SOL     OW 1350   0.969   3.032   0.197 -0.4904 -0.4444  0.2687
  189SOL    HW1 1351   1.041   3.054   0.138  0.1510 -0.9134  0.8611
  189SOL    HW2 1352   0.982   3.089   0.273 -0.3435 -1.0026  0.6677
  190SOL     OW 1353   2.139   0.790   2.144 -0.2556 -0.1585  0.0643
  190SOL    HW1 1354   2.091   0.870   2.163 -0.1285 -0.3169  1.0920
  190SOL    HW2 1355   2.080   0.738   2.089 -0.6499  0.2872  0.0654
  191SOL     OW 1356   2.058   1.557   2.622  0.8958 -0.0798 -0.1636
  191SOL    HW1 1357   2.054   1.643   2.579  2.4626  0.0255 -0.1589
  191SOL    HW2 1358   2.023   1.496   2.557 -1.1906  0.6448  0.1966
  192SOL     OW 1359   3.165   0.799   0.261  0.9323  0.3893  0.0963
  192SOL    HW1 1360   3.160   0.869   0.197  0.1729 -0.5914 -0.9664
  192SOL    HW2 1361   3.119   0.833   0.338 -0.1155  0.7952 -0.6807
  193SOL     OW 1362   3.067   2.642   0.357  0.2781  0.5259 -0.3223
  193SOL    HW1 1363   3.158   2.671   0.352  0.7970 -0.5087  1.8137
  193SOL    HW2 1364   3.070   2.549   0.337  0.0189  0.0849  1.4998
  194SOL     OW 1365   0.731   2.067   0.638 -0.1786  0.6317  0.3061
  194SOL    HW1 1366   0.744   1.997   0.702 -0.3520  1.0286  0.7839
  194SOL    HW2 1367   0.804   2.128   0.655 -0.2609  0.7693  0.1677
  195SOL     OW 1368   1.432   1.769   1.661  0.0921 -0.0348  0.1445
  195SOL    HW1 1369   1.406   1.845   1.609 -2.5501 -0.2573  1.0330
  195SOL    HW2 1370   1.425   1.695   1.601  3.9359  0.4009 -1.1182
  196SOL     OW 1371   2.789   2.450   1.688 -0.0681  0.0884  0.5228
  196SOL    HW1 1372   2.807   2.494   1.771  1.3956 -0.0423  0.3104
  196SOL    HW2 1373   2.828   2.508   1.622 -0.8925  0.0083 -0.0398
  197SOL     OW 1374   0.895   3.035   2.097  0.1298  0.3941  0.3244
  197SOL    HW1 1375   0.921   3.079   2.016  0.2264 -0.0385  0.1205
  197SOL    HW2 1376   0.845   2.959   2.068 -0.0225  0.3593  0.6766
  198SOL     OW 1377   1.191   3.221   0.777 -0.2643  0.2621 -0.1728
  198SOL    HW1 1378   1.242   3.191   0.852 -1.2561 -0.6401  0.1477
  198SOL    HW2 1379   1.236   3.182   0.701 -1.4713 -2.0511  0.2260
  199SOL     OW 1380   1.018   2.952   2.833 -0.3554  0.4621  0.2591
  199SOL    HW1 1381   1.077   2.876   2.838 -1.6458 -0.6416 -0.5952
  199SOL    HW2 1382   0.959   2.941   2.907 -0.2910  0.8765  0.3736
  200SOL     OW 1383   1.750   1.737   0.733  0.5314  0.1429  0.1666
  200SOL    HW1 1384   1.680   1.803   0.730  1.0828  0.8507  1.8053
  200SOL    HW2 1385   1.777   1.734   0.825 -0.0314 -2.9952  0.3566
  201SOL     OW 1386   1.742   0.672   1.059  0.4946 -0.3911 -0.0398
  201SOL    HW1 1387   1.711   0.582   1.066  1.9943 -0.8814  0.8258
  201SOL    HW2 1388   1.729   0.708   1.146  0.2766  0.1045 -0.2757
  202SOL     OW 1389   2.891   1.933   3.267 -0.6631  0.1431  0.0494
  202SOL    HW1 1390   2.974   1.915   3.311  0.6590  1.2061 -1.8610
  202SOL    HW2 1391   2.887   2.029   3.262 -2.9948  0.2194  1.8089
  203SOL     OW 1392   0.464   2.880   0.613 -0.4098  0.3653  0.3314
  203SOL    HW1 1393   0.465   2.796   0.568 -2.0230  0.0683  0.7584
  203SOL    HW2 1394   0.393   2.928   0.571 -2.8829 -0.4153  3.2603
  204SOL     OW 1395   1.630   0.921   1.430 -0.4894  1.1280 -0.7553
  204SOL    HW1 1396   1.716   0.960   1.414 -0.0605  0.5045 -0.0833
  204SOL    HW2 1397   1.606   0.881   1.346  0.0249  1.0421 -0.8660
  205SOL     OW 1398   1.151   2.199   3.207  0.0327 -0.8774 -0.2254
  205SOL    HW1 1399   1.149   2.149   3.126  0.3904 -0.2033 -0.6521
  205SOL    HW2 1400   1.234   2.177   3.248  1.2194  1.0050 -1.4781
  206SOL     OW 1401   0.056   2.419   1.116  0.0418 -0.3548 -0.2271
  206SOL    HW1 1402   0.021   2.373   1.193 -0.8136  0.0370 -0.3717
  206SOL    HW2 1403   0.111   2.489   1.153  1.5978 -1.6314 -0.0065
  207SOL     OW 1404   2.782   2.642   1.294 -0.4810  0.3666  0.0102
  207SOL    HW1 1405   2.815   2.640   1.384 -1.2937  0.3537  0.3170
  207SOL    HW2 1406   2.852   2.683   1.244 -0.5097  1.4917  0.8605
  208SOL     OW 1407   1.487   1.937   1.038  0.4213 -0.3523 -0.7071
  208SOL    HW1 1408   1.398   1.907   1.058  0.4690 -0.4296 -0.6115
  208SOL    HW2 1409   1.542   1.859   1.051  0.3492 -0.6492 -1.9642
  209SOL     OW 1410   1.362   0.278   0.190  0.2649 -0.3363 -0.1118
  209SOL    HW1 1411   1.276   0.312   0.214  0.4384 -0.1890  0.3181
  209SOL    HW2 1412   1.400   0.346   0.135 -0.2472 -0.7984 -1.0546
  210SOL     OW 1413   0.274   0.310   2.937  0.0757 -0.2790  0.3280
  210SOL    HW1 1414   0.341   0.299   2.869 -0.2616  0.6263 -0.1595
  210SOL    HW2 1415   0.317   0.280   3.018  1.5663  1.5903  0.2836
  211SOL     OW 1416   1.028   0.333   0.054 -0.0161  0.4116 -0.6085
  211SOL    HW1 1417   1.051   0.379   0.134 -1.0285 -0.4359  0.2079
  211SOL    HW2 1418   1.017   0.402  -0.011  0.0197  1.1890  0.1902
  212SOL     OW 1419   3.125   1.061   2.847 -0.5219 -0.1199  0.1796
  212SOL    HW1 1420   3.111   1.080   2.754 -4.0296 -0.0436  0.5909
  212SOL    HW2 1421   3.154   0.970   2.848  0.5258  0.1689 -0.9970
  213SOL     OW 1422   0.946   0.025   3.288 -0.3790 -0.3090 -0.2714
  213SOL    HW1 1423   1.017  -0.025   3.247 -0.7017 -0.0128 -1.2332
  213SOL    HW2 1424   0.986   0.067   3.364 -0.4883 -3.4586  1.7142
  214SOL     OW 1425   1.284   2.908   0.960 -0.0275  0.1275  0.2662
  214SOL    HW1 1426   1.189   2.892   0.959  0.3039 -2.1716  0.0806
  214SOL    HW2 1427   1.321   2.827   0.996  2.0081 -0.0010 -1.9020
  215SOL     OW 1428   2.530   2.534   3.173  0.2328  0.2514  0.2089
  215SOL    HW1 1429   2.572   2.597   3.114 -1.1760 -0.2317 -1.3822
  215SOL    HW2 1430   2.463   2.584   3.219  0.9595  0.5035  1.0147
  216SOL     OW 1431   1.182   0.352   1.856 -0.3590  0.1622  0.1186
  216SOL    HW1 1432   1.180   0.414   1.783  2.2708  1.5117  1.0749
  216SOL    HW2 1433   1.169   0.406   1.934 -1.3170 -0.9929  0.7904
  217SOL     OW 1434   2.582   2.348   2.137 -0.0435  0.0846  0.8628
  217SOL    HW1 1435   2.668   2.337   2.097  0.1363  1.6509  0.7378
  217SOL    HW2 1436   2.600   2.387   2.223 -0.4789 -2.3910  2.1743
  218SOL     OW 1437   1.605   1.532   0.555 -0.5450 -0.3769 -0.2639
  218SOL    HW1 1438   1.542   1.536   0.627 -0.0354 -0.8024  0.2162
  218SOL    HW2 1439   1.565   1.584   0.485 -1.3666 -0.5366  0.0752
  219SOL     OW 1440   2.498   2.290   1.166  0.0717  0.5014 -0.2974
  219SOL    HW1 1441   2.579   2.339   1.180 -0.4029  1.5349 -1.0539
  219SOL    HW2 1442   2.520   2.225   1.100  0.3090  0.7087 -0.4230
  220SOL     OW 1443   1.330   0.569   2.299  0.0372  0.4914  0.2200
  220SOL    HW1 1444   1.235   0.574   2.310 -0.1265 -0.4046 -0.6099
  220SOL    HW2 1445   1.359   0.660   2.289 -0.7382  0.7666  0.4691
  221SOL     OW 1446   1.319   0.878   2.251 -0.2551  0.3369  0.0840
  221SOL    HW1 1447   1.307   0.912   2.339 -0.8870  1.0816 -0.2812
  221SOL    HW2 1448   1.310   0.954   2.194 -0.8056 -0.2915 -0.6869
  222SOL     OW 1449   2.878   0.816   2.653 -0.2508  0.0814  0.1507
  222SOL    HW1 1450   2.869   0.911   2.643 -0.2617  0.0475 -0.1524
  222SOL    HW2 1451   2.938   0.806   2.728  0.0246  0.3290 -0.0328
  223SOL     OW 1452   1.360   1.364   3.074  0.2419 -0.6187  0.1469
  223SOL    HW1 1453   1.403   1.428   3.018  0.4732 -0.0885  0.9185
  223SOL    HW2 1454   1.343   1.289   3.016 -0.0192  0.1212 -0.7611
  224SOL     OW 1455   1.548   0.047   2.213  0.0184 -0.2497 -0.4521
  224SOL    HW1 1456   1.587   0.095   2.140  0.0689 -0.3437 -0.4876
  224SOL    HW2 1457   1.517   0.115   2.273  2.4828 -0.1101  0.7970
  225SOL     OW 1458   2.302   2.385   3.289  0.6579  0.2064  0.3860
  225SOL    HW1 1459   2.381   2.408   3.240  1.2645 -1.7971  0.3691
  225SOL    HW2 1460   2.270   2.305   3.248 -0.4892  0.1047  1.4101
  226SOL     OW 1461   1.163   2.445   0.552 -0.0208  0.1266  0.4731
  226SOL    HW1 1462   1.125   2.491   0.477  1.5205  1.0844  0.2182
  226SOL    HW2 1463   1.229   2.506   0.586  1.0554 -1.2937  1.0498
  227SOL     OW 1464   0.669   2.906   0.782  0.0949 -0.0593  1.2517
  227SOL    HW1 1465   0.676   2.826   0.834  0.4798 -2.0044 -1.5346
  227SOL    HW2 1466   0.582   2.900   0.742  0.7685  0.0076 -0.2797
  228SOL     OW 1467   1.359   0.408   1.469 -0.2277 -0.3092  0.5835
  228SOL    HW1 1468   1.412   0.437   1.543  1.0760 -1.4275  0.1316
  228SOL    HW2 1469   1.361   0.312   1.474  0.1434 -0.4097 -1.0525
  229SOL     OW 1470   2.425   2.496   0.910 -0.3435 -0.0946 -0.3124
  229SOL    HW1 1471   2.351   2.527   0.962 -0.3810 -0.2153 -0.2934
  229SOL    HW2 1472   2.409   2.402   0.900 -0.8664  0.0870 -1.3823
  230SOL     OW 1473   2.692   0.953   2.913 -0.3227  0.4148  0.0418
  230SOL    HW1 1474   2.690   0.887   2.844 -3.6375  0.5817 -0.1726
  230SOL    HW2 1475   2.643   0.914   2.985  1.0243  1.1801  1.4367
  231SOL     OW 1476   0.674   3.226   1.938  0.2675 -0.8417  0.3493
  231SOL    HW1 1477   0.767   3.236   1.960  0.3361  0.8722 -0.5476
  231SOL    HW2 1478   0.628   3.239   2.021  0.7445  0.8709  0.3977
  232SOL     OW 1479   3.230   2.771   2.368 -0.7189 -0.4184  0.1054
  232SOL    HW1 1480   3.269   2.733   2.289 -1.1209  1.4400 -1.0537
  232SOL    HW2 1481   3.135   2.765   2.353 -0.7902  0.5106  0.1502
  233SOL     OW 1482   2.698   1.127   1.573  0.6951 -0.0440  0.0088
  233SOL    HW1 1483   2.756   1.077   1.629 -2.2604 -1.5090  2.0246
  233SOL    HW2 1484   2.666   1.198   1.629 -0.6290 -0.2216 -0.4821
  234SOL     OW 1485   1.068   0.006   0.554  0.1730 -0.6413  0.0355
  234SOL    HW1 1486   1.088   0.095   0.584  1.5813 -0.0541 -2.4160
  234SOL    HW2 1487   1.106  -0.050   0.622  1.5573  0.6242  0.3783
  235SOL     OW 1488   0.349   3.111   0.221  0.0732 -0.2186  0.2952
  235SOL    HW1 1489   0.429   3.060   0.207 -0.1242 -0.7636  1.0950
  235SOL    HW2 1490   0.367   3.163   0.299  0.3252  1.0765 -0.5898
  236SOL     OW 1491   2.266   0.406   2.122 -0.2125  0.0539  0.0290
  236SOL    HW1 1492   2.228   0.471   2.063 -0.8626  0.6970  1.1280
  236SOL    HW2 1493   2.211   0.409   2.200  0.6266 -0.7803  0.6733
  237SOL     OW 1494   1.374   2.658   1.065  0.1191 -0.6218  0.3998
  237SOL    HW1 1495   1.396   2.569   1.091  0.0251 -0.9681 -0.6737
  237SOL    HW2 1496   1.448   2.687   1.010  0.6771  0.3707  1.6116
  238SOL     OW 1497   2.540   0.760   2.712 -0.0960 -0.8215  0.0260
  238SOL    HW1 1498   2.597   0.696   2.755  0.0135 -0.1325  0.9560
  238SOL    HW2 1499   2.471   0.777   2.776 -1.7353 -2.1065 -1.3217
  239SOL     OW 1500   3.031   1.641   0.108 -0.1687  0.6827  0.3258
  239SOL    HW1 1501   2.958   1.628   0.168  0.8467  0.2662  1.5020
  239SOL    HW2 1502   2.997   1.612   0.023 -1.0569 -0.4411  1.0315
  240SOL     OW 1503   0.057   0.256   3.251  0.3631 -0.2132 -0.2229
  240SOL    HW1 1504   0.011   0.311   3.314 -0.3323 -0.2241 -0.7089
  240SOL    HW2 1505   0.132   0.309   3.222  0.1235  0.1779 -0.1290
  241SOL     OW 1506   1.658   2.875   1.248  0.0445 -0.4997  0.4724
  241SOL    HW1 1507   1.725   2.935   1.283  0.2757 -0.2694 -0.3352
  241SOL    HW2 1508   1.679   2.790   1.287  1.5442 -0.6944 -0.6640
  242SOL     OW 1509   1.942   2.629   1.046  0.5871 -0.5901  0.6028
  242SOL    HW1 1510   1.906   2.716   1.028 -0.4536 -1.0214  0.5522
  242SOL    HW2 1511   2.037   2.643   1.053  0.4809  0.4553  0.0716
  243SOL     OW 1512   3.219   0.963   1.091  0.3651 -0.1589 -0.0061
  243SOL    HW1 1513   3.168   1.038   1.122 -0.1293  0.3552 -1.9419
  243SOL    HW2 1514   3.158   0.913   1.036  0.4879 -2.3859  1.7104
  244SOL     OW 1515   3.093   1.001   0.102  0.6005  0.6835  0.0805
  244SOL    HW1 1516   2.997   1.009   0.108  0.5574 -0.2580  0.7605
  244SOL    HW2 1517   3.118   1.066   0.036 -0.5819  0.4107 -0.6622
  245SOL     OW 1518   1.207   2.250   0.777  0.2224 -0.2989 -0.1397
  245SOL    HW1 1519   1.225   2.340   0.751  1.3391  0.0239  1.5901
  245SOL    HW2 1520   1.287   2.221   0.820 -0.5449 -1.7129  0.3873
  246SOL     OW 1521   1.591   2.761   1.717  0.0170  0.3457 -0.6606
  246SOL    HW1 1522   1.510   2.774   1.668  0.2930 -1.0163 -1.5238
  246SOL    HW2 1523   1.565   2.767   1.809 -1.2106 -0.7954 -0.9074
  247SOL     OW 1524   3.120   2.965   2.748  0.1283  0.2920 -0.4586
  247SOL    HW1 1525   3.095   2.915   2.826  2.6695 -1.4776 -0.6538
  247SOL    HW2 1526   3.135   3.054   2.780  1.0379 -0.3860  1.0922
  248SOL     OW 1527   0.531   2.317   2.839  0.4338  0.1654  0.2525
  248SOL    HW1 1528   0.612   2.361   2.864  0.8332 -1.1694  1.5261
  248SOL    HW2 1529   0.555   2.261   2.765  0.1422  1.3334 -0.7574
  249SOL     OW 1530   0.062   2.450   0.830  0.4693  0.2012 -0.5964
  249SOL    HW1 1531  -0.018   2.461   0.881 -1.7445 -2.1507 -3.2591
  249SOL    HW2 1532   0.117   2.394   0.885 -0.5658  0.1409  0.4261
  250SOL     OW 1533   1.928   1.808   0.949 -0.5388 -0.8291  0.3176
  250SOL    HW1 1534   2.024   1.804   0.949 -0.4048  0.5791 -1.6405
  250SOL    HW2 1535   1.908   1.902   0.941 -2.0933 -1.1004  0.5965
  251SOL     OW 1536   1.922   2.485   0.627 -0.2979 -0.7794  0.0647
  251SOL    HW1 1537   2.000   2.432   0.643 -0.1615 -1.1134 -1.5551
  251SOL    HW2 1538   1.948   2.573   0.654  1.3478 -0.4806 -2.1882
  252SOL     OW 1539   1.172   2.761   2.666 -0.0107 -0.3676 -0.2361
  252SOL    HW1 1540   1.261   2.773   2.700 -0.2356  0.3096  0.1344
  252SOL    HW2 1541   1.149   2.671   2.691  1.0899 -1.0594 -1.5866
  253SOL     OW 1542   2.121   3.212   2.689  0.6252 -0.0774  0.2018
  253SOL    HW1 1543   2.105   3.155   2.614 -0.5811  1.9968 -1.2203
  253SOL    HW2 1544   2.037   3.213   2.736  1.2428 -1.0155  1.3795
  254SOL     OW 1545   2.995   0.225   2.185  0.3141  0.5506  0.2221
  254SOL    HW1 1546   2.904   0.204   2.167 -0.0230 -1.1407  3.2874
  254SOL    HW2 1547   2.992   0.298   2.247  1.0850  0.9399 -0.1797
  255SOL     OW 1548   2.611   0.867   1.478 -0.3475  0.1275 -0.2970
  255SOL    HW1 1549   2.566   0.835   1.557  0.7923 -0.0979  0.2932
  255SOL    HW2 1550   2.687   0.810   1.470 -0.8057 -0.2928 -1.9832
  256SOL     OW 1551   0.480   3.293   2.509  0.5487  0.4261  0.2065
  256SOL    HW1 1552   0.402   3.303   2.563  0.7601 -1.0410  0.8342
  256SOL    HW2 1553   0.518   3.381   2.506 -1.3358  1.2737 -0.4947
  257SOL     OW 1554   1.401   1.558   1.483 -0.6433  0.1911 -0.3908
  257SOL    HW1 1555   1.310   1.532   1.478 -0.1931 -1.3391 -1.1154
  257SOL    HW2 1556   1.448   1.478   1.505  0.2162  1.5598  3.8949
  258SOL     OW 1557   3.169   0.380   0.773 -0.2444  0.3138 -0.2710
  258SOL    HW1 1558   3.223   0.407   0.848  0.4169 -3.4298  0.7715
  258SOL    HW2 1559   3.232   0.365   0.703 -0.3387 -0.4378 -0.2010
  259SOL     OW 1560   0.799   3.280   0.314 -0.5154  0.6520 -0.4669
  259SOL    HW1 1561   0.841   3.366   0.315  0.2660  0.2729  0.4310
  259SOL    HW2 1562   0.768   3.268   0.404  0.9046 -0.7278 -0.1285
  260SOL     OW 1563   3.112   0.061   1.799 -0.4133 -0.0460 -0.0128
  260SOL    HW1 1564   3.024   0.026   1.790 -0.2242 -0.5396  0.0146
  260SOL    HW2 1565   3.166   0.007   1.740 -0.7176  2.5844 -2.9769
  261SOL     OW 1566   2.056   2.628   3.321 -0.1009  0.0102  0.1933
  261SOL    HW1 1567   1.969   2.657   3.349  0.2200  0.2581  0.9599
  261SOL    HW2 1568   2.039   2.559   3.256 -0.9186  2.3977 -2.3585
  262SOL     OW 1569   0.077   2.562   2.689 -0.4978  0.0896 -0.5403
  262SOL    HW1 1570   0.065   2.523   2.602 -0.4854 -0.1475 -0.4380
  262SOL    HW2 1571   0.011   2.519   2.743 -0.9459  0.7113 -0.5799
  263SOL     OW 1572   0.066   2.790   2.581 -0.3159 -0.5331 -0.1266
  263SOL    HW1 1573  -0.001   2.771   2.515  1.0330 -1.1100 -1.4010
  263SOL    HW2 1574   0.060   2.719   2.644 -1.4103 -0.1468  0.2352
  264SOL     OW 1575   0.598   2.391   3.261 -0.5385 -0.6215 -0.1649
  264SOL    HW1 1576   0.576   2.298   3.259 -1.3619 -0.4232 -0.6569
  264SOL    HW2 1577   0.578   2.418   3.350  0.6408 -1.1249  0.2742
  265SOL     OW 1578   0.471   2.579   3.090 -0.1072  0.4453 -1.0124
  265SOL    HW1 1579   0.517   2.517   3.146 -1.3472 -0.5747 -1.0582
  265SOL    HW2 1580   0.540   2.630   3.048  1.0352 -1.5972 -1.7580
  266SOL     OW 1581   1.758   1.290   2.521 -0.1495 -0.2077  0.1180
  266SOL    HW1 1582   1.844   1.248   2.520 -0.6500 -1.2392 -0.3929
  266SOL    HW2 1583   1.735   1.299   2.429 -0.1154  1.1056  0.2085
  267SOL     OW 1584   0.183   2.682   2.206 -0.4209  0.1741  0.1008
  267SOL    HW1 1585   0.261   2.700   2.153 -0.7073 -1.4130 -0.9126
  267SOL    HW2 1586   0.214   2.628   2.278 -0.7407 -1.5417 -0.9990
  268SOL     OW 1587   2.556   0.934   2.124 -0.4272  0.4806  0.4166
  268SOL    HW1 1588   2.538   0.995   2.053 -1.0613  1.6519  1.5344
  268SOL    HW2 1589   2.650   0.943   2.140  0.4260 -2.0881 -2.2406
  269SOL     OW 1590   0.036   2.930   1.649  0.2238 -0.1222  0.4975
  269SOL    HW1 1591   0.015   2.859   1.711 -1.8679 -0.0441 -0.0452
  269SOL    HW2 1592   0.120   2.904   1.611  1.0380 -0.7194  2.5429
  270SOL     OW 1593   2.780   0.933   1.804 -0.5628  0.0450 -0.0576
  270SOL    HW1 1594   2.865   0.934   1.760 -1.4220 -0.7376 -1.8543
  270SOL    HW2 1595   2.795   0.888   1.887  0.4200 -1.8750 -1.2190
  271SOL     OW 1596   2.344   2.950   2.047  0.0769 -0.1677 -0.2376
  271SOL    HW1 1597   2.359   3.027   1.993 -2.7924  1.5876  1.2879
  271SOL    HW2 1598   2.371   2.976   2.135 -1.6849 -0.5617  0.4543
  272SOL     OW 1599   1.218   2.283   1.829  0.1084  0.3683 -0.4469
  272SOL    HW1 1600   1.129   2.259   1.804  0.1872 -1.0555  0.5160
  272SOL    HW2 1601   1.210   2.317   1.918  0.5279  0.2728 -0.3694
  273SOL     OW 1602   0.553   3.123   3.035 -0.3102  0.3012 -0.2107
  273SOL    HW1 1603   0.516   3.103   3.121  0.8496 -1.9956 -0.1770
  273SOL    HW2 1604   0.639   3.160   3.054 -0.4488  0.7162 -0.3828
  274SOL     OW 1605   0.290   2.528   2.388  0.0778 -0.5524  0.4689
  274SOL    HW1 1606   0.300   2.438   2.416  0.0279 -0.4057  0.9630
  274SOL    HW2 1607   0.355   2.577   2.438  0.6991 -0.4307 -0.4211
  275SOL     OW 1608   1.573   0.827   2.347 -0.4522  0.2536  0.2391
  275SOL    HW1 1609   1.483   0.841   2.317 -0.4410  0.1151  0.1403
  275SOL    HW2 1610   1.564   0.797   2.437 -0.5527 -0.7519 -0.0944
  276SOL     OW 1611   2.721   0.395   0.875  0.2138  0.5859 -0.1260
  276SOL    HW1 1612   2.685   0.401   0.964  1.1789 -0.0573  0.3293
  276SOL    HW2 1613   2.802   0.446   0.879  0.7429 -0.2164 -0.3637
  277SOL     OW 1614   2.879   0.714   1.061  0.1059  0.6222 -0.2838
  277SOL    HW1 1615   2.899   0.640   1.003  0.0051 -0.9324  1.5606
  277SOL    HW2 1616   2.784   0.724   1.056 -0.0690 -0.3899  0.5556
  278SOL     OW 1617   1.400   1.954   1.455  0.3580  0.2153 -0.1714
  278SOL    HW1 1618   1.343   2.020   1.414  1.3559  1.1526 -0.1173
  278SOL    HW2 1619   1.459   1.927   1.385 -0.8975 -1.6705 -0.5626
  279SOL     OW 1620   2.532   0.001   2.426 -0.0649  0.6478 -0.3768
  279SOL    HW1 1621   2.496   0.063   2.362 -0.0766  0.8009 -0.2226
  279SOL    HW2 1622   2.611   0.044   2.459  0.3254  0.2542 -0.8074
  280SOL     OW 1623   3.234   1.511   0.202 -0.3980  0.3683  0.0803
  280SOL    HW1 1624   3.149   1.536   0.166 -0.2853  0.7546  0.0760
  280SOL    HW2 1625   3.286   1.487   0.124  0.4104  2.8918 -0.2389
  281SOL     OW 1626   0.624   2.960   2.804 -0.0886  0.3342  0.2813
  281SOL    HW1 1627   0.605   3.025   2.871 -1.5969  0.2467 -0.0374
  281SOL    HW2 1628   0.638   3.011   2.724 -4.9667  0.3080 -0.8870
  282SOL     OW 1629   2.242   1.901   2.823 -0.2846  0.0498  0.0112
  282SOL    HW1 1630   2.266   1.886   2.915 -2.5284  1.5652  0.9183
  282SOL    HW2 1631   2.164   1.848   2.810  0.1229 -0.2937 -1.1062
  283SOL     OW 1632   2.811   2.540   0.172  0.2473  0.4715 -0.7128
  283SOL    HW1 1633   2.723   2.564   0.141 -0.0173 -0.9019 -1.0974
  283SOL    HW2 1634   2.843   2.478   0.106  1.4289  0.8054 -0.4656
  284SOL     OW 1635   1.746   0.848   1.927  0.2947 -0.1937 -0.1855
  284SOL    HW1 1636   1.741   0.940   1.950  0.4974 -0.1320 -0.3779
  284SOL    HW2 1637   1.768   0.848   1.834  1.6995 -0.4249  0.1241
  285SOL     OW 1638   1.148   3.280   3.123 -0.1912 -0.4693 -1.0332
  285SOL    HW1 1639   1.170   3.373   3.118 -1.0347 -0.1451  0.5249
  285SOL    HW2 1640   1.180   3.243   3.041 -0.8778  1.4038 -2.2062
  286SOL     OW 1641   1.014   0.108   1.095  0.1816 -0.1234  0.2597
  286SOL    HW1 1642   1.082   0.113   1.029  0.0368 -1.1044  0.0208
  286SOL    HW2 1643   0.969   0.026   1.077  0.3466 -0.5788  1.7760
  287SOL     OW 1644   2.953   0.679   0.119  0.3279  0.5335  0.1176
  287SOL    HW1 1645   2.901   0.643   0.191  1.6969 -1.0567  0.3758
  287SOL    HW2 1646   3.036   0.703   0.161  1.9014 -2.2228 -1.1712
  288SOL     OW 1647   2.953   0.910   1.251 -0.4634  0.4539 -0.0199
  288SOL    HW1 1648   2.938   0.830   1.200 -0.6636 -0.0762  0.8404
  288SOL    HW2 1649   2.869   0.957   1.247 -1.7490 -1.3212  2.7346
  289SOL     OW 1650   3.232   2.482   1.844  0.1637 -0.3256  0.0030
  289SOL    HW1 1651   3.312   2.433   1.827  0.5351 -0.8376  2.7091
  289SOL    HW2 1652   3.161   2.422   1.820  0.5877 -0.6021 -0.5825
  290SOL     OW 1653   1.141   1.674   1.845  0.5125 -0.2093  0.0546
  290SOL    HW1 1654   1.074   1.724   1.798 -1.5275 -2.3347  0.5068
  290SOL    HW2 1655   1.170   1.732   1.915 -0.1480  1.1125 -0.7353
  291SOL     OW 1656   2.195   0.274   2.568  0.3946  0.3394  0.0069
  291SOL    HW1 1657   2.231   0.350   2.613 -1.4223  0.9893  0.4538
  291SOL    HW2 1658   2.213   0.201   2.627 -1.6024  1.1203  1.6790
  292SOL     OW 1659   1.719   0.394   1.236 -0.1785 -0.5397 -0.0447
  292SOL    HW1 1660   1.689   0.303   1.233 -0.5616 -0.5202  1.7904
  292SOL    HW2 1661   1.641   0.444   1.262  0.3966  0.0864  0.5214
  293SOL     OW 1662   2.115   0.204   1.269  0.1816  0.3274 -0.1377
  293SOL    HW1 1663   2.139   0.187   1.360 -2.1637 -1.0777  0.3014
  293SOL    HW2 1664   2.122   0.299   1.259  0.9632  0.4430  1.3404
  294SOL     OW 1665   1.597   2.532   0.499 -0.3947  0.1225  0.6429
  294SOL    HW1 1666   1.533   2.461   0.491 -1.7794  1.5695 -3.0547
  294SOL    HW2 1667   1.544   2.612   0.496  1.2638  1.4347  2.9642
  295SOL     OW 1668   1.903   0.399   2.160  0.1719 -0.2952  0.6059
  295SOL    HW1 1669   1.979   0.397   2.218  0.0011  0.5610  0.8716
  295SOL    HW2 1670   1.912   0.481   2.111 -0.7073 -0.0584  0.8269
  296SOL     OW 1671   1.448   2.443   2.225  0.3629 -0.0735  0.2127
  296SOL    HW1 1672   1.491   2.491   2.155  2.1796 -1.9591 -0.0405
  296SOL    HW2 1673   1.488   2.476   2.305 -0.2754  0.6516  0.2460
  297SOL     OW 1674   1.789   2.207   1.540 -0.3704  0.1597 -0.0414
  297SOL    HW1 1675   1.698   2.225   1.565 -0.0333 -0.3455  1.6524
  297SOL    HW2 1676   1.831   2.293   1.539 -0.7248  0.3339 -0.2416
  298SOL     OW 1677   1.205   2.097   2.621 -0.1448 -0.1973 -0.3859
  298SOL    HW1 1678   1.223   2.160   2.552 -3.1885 -0.7337 -1.8289
  298SOL    HW2 1679   1.110   2.100   2.633 -0.3574 -3.8788  0.0530
  299SOL     OW 1680   2.025   1.218   2.573 -0.4071 -1.0802 -0.4921
  299SOL    HW1 1681   2.033   1.196   2.665 -0.3576  1.3830  0.1570
  299SOL    HW2 1682   2.105   1.184   2.533  1.6974  1.4479  1.2162
  300SOL     OW 1683   1.748   1.846   0.460 -0.4826  0.1104  0.4099
  300SOL    HW1 1684   1.729   1.809   0.546 -2.4831  1.4504  0.6110
  300SOL    HW2 1685   1.793   1.929   0.479 -1.1763  0.5439  0.1965
  301SOL     OW 1686   1.105   2.656   0.355 -0.0308  0.7459 -0.2371
  301SOL    HW1 1687   1.054   2.691   0.282 -1.0284 -0.9262 -0.4096
  301SOL    HW2 1688   1.115   2.730   0.415 -0.7544  1.6913 -1.2456
  302SOL     OW 1689   0.467   2.828   0.043  0.1207  0.1527  0.4081
  302SOL    HW1 1690   0.452   2.847  -0.050 -0.9315  1.1842  0.7578
  302SOL    HW2 1691   0.404   2.759   0.064  0.4411 -0.1647  0.3293
  303SOL     OW 1692   2.840   2.277   2.056  0.4546 -0.1577  0.1768
  303SOL    HW1 1693   2.900   2.352   2.052  0.3300 -0.1139 -1.7259
  303SOL    HW2 1694   2.897   2.200   2.051  0.4522 -0.1335 -0.3184
  304SOL     OW 1695   1.207   0.610   1.773 -0.2088  0.2405  0.4247
  304SOL    HW1 1696   1.253   0.606   1.857 -0.5176 -1.3090  0.5527
  304SOL    HW2 1697   1.251   0.680   1.726  0.8211  0.2917  1.3942
  305SOL     OW 1698   3.267   0.226   2.290  0.0013  0.2766 -0.6660
  305SOL    HW1 1699   3.222   0.156   2.243 -0.1968  0.8330 -1.3300
  305SOL    HW2 1700   3.201   0.295   2.299  0.7079  1.1049 -1.6521
  306SOL     OW 1701   1.094   0.074   1.872  0.4244  0.1212  0.3294
  306SOL    HW1 1702   1.161   0.136   1.842 -0.1962  1.2434  1.1849
  306SOL    HW2 1703   1.012   0.110   1.838  0.0258 -0.0457  1.1032
  307SOL     OW 1704   0.019   0.132   0.823 -0.6844  0.2283 -0.1971
  307SOL    HW1 1705   0.018   0.099   0.913 -0.1851 -3.6095 -1.4126
  307SOL    HW2 1706   0.112   0.129   0.798 -1.1058 -2.1275 -1.8093
  308SOL     OW 1707   1.806   0.663   1.337  0.3251  0.2327 -0.3429
  308SOL    HW1 1708   1.794   0.587   1.280 -1.0399 -0.0597  0.2606
  308SOL    HW2 1709   1.804   0.626   1.426 -2.8138  1.1068  0.1087
  309SOL     OW 1710   0.532   3.108   3.308 -0.0183  0.3722  0.3442
  309SOL    HW1 1711   0.512   3.024   3.349  1.0606 -0.2021 -0.2889
  309SOL    HW2 1712   0.627   3.116   3.313  0.0025  0.9800 -0.7107
  310SOL     OW 1713   1.124   1.789   0.291  0.0934 -0.1516  0.1095
  310SOL    HW1 1714   1.170   1.865   0.256  0.3470  0.5784  1.9083
  310SOL    HW2 1715   1.049   1.776   0.232  1.0098  0.3965 -1.2153
  311SOL     OW 1716   0.576   2.167   2.607  0.4781  0.1601 -0.3235
  311SOL    HW1 1717   0.605   2.077   2.623 -1.0040  0.0330  2.3221
  311SOL    HW2 1718   0.654   2.213   2.577  1.3405 -1.9104 -1.4989
  312SOL     OW 1719   1.874   3.316   2.802 -0.0220  0.6160  0.5433
  312SOL    HW1 1720   1.819   3.305   2.724 -0.5547 -1.4890  1.1527
  312SOL    HW2 1721   1.816   3.297   2.876  1.2880 -0.9762  1.2359
  313SOL     OW 1722   2.686   2.736   2.739  0.3029  0.0031  0.1623
  313SOL    HW1 1723   2.698   2.738   2.644  1.0311 -2.2780  0.1303
  313SOL    HW2 1724   2.733   2.813   2.770  3.4744 -1.1893 -1.1188
  314SOL     OW 1725   1.932   1.944   3.025  0.2561 -0.3786  0.5316
  314SOL    HW1 1726   1.891   2.029   3.011  2.0412  0.6984  1.4463
  314SOL    HW2 1727   1.950   1.911   2.937 -0.5287  0.1338  0.1679
  315SOL     OW 1728   0.352   2.547   2.762 -0.0888  0.3657 -0.1752
  315SOL    HW1 1729   0.376   2.462   2.800  1.1497  1.1668  0.9379
  315SOL    HW2 1730   0.266   2.532   2.722 -0.6789 -0.9954  1.4569
  316SOL     OW 1731   2.615   1.804   0.656  0.4396  0.0246  0.2520
  316SOL    HW1 1732   2.642   1.826   0.745  0.4216  0.2484  0.2034
  316SOL    HW2 1733   2.532   1.849   0.644  0.0581 -0.6277  0.3853
  317SOL     OW 1734   1.187   1.282   0.885  0.3274 -0.0182  0.0919
  317SOL    HW1 1735   1.260   1.301   0.944 -0.5936  0.9570  0.9611
  317SOL    HW2 1736   1.182   1.187   0.881  0.5024 -0.0929  1.4807
  318SOL     OW 1737   1.927   0.073   2.406 -0.1786 -0.2292  0.1260
  318SOL    HW1 1738   1.979   0.090   2.484 -0.5881  1.1271  0.1241
  318SOL    HW2 1739   1.982   0.102   2.333 -1.1024  1.7801  0.1614
  319SOL     OW 1740   1.354   0.032   0.064  0.0631 -0.2029 -0.4835
  319SOL    HW1 1741   1.352   0.091   0.140  0.7478 -1.4601  0.5532
  319SOL    HW2 1742   1.386   0.086  -0.008 -2.1891  1.4646 -0.3271
  320SOL     OW 1743   2.763   1.946   0.476 -0.1330  0.3825 -0.0781
  320SOL    HW1 1744   2.790   1.882   0.410 -0.6796  0.4353 -0.3565
  320SOL    HW2 1745   2.681   1.912   0.510 -0.6111  1.1176 -0.4822
  321SOL     OW 1746   1.505   1.665   1.890 -0.1027 -0.6209  0.1705
  321SOL    HW1 1747   1.472   1.714   1.815  0.6028  0.6459  0.6595
  321SOL    HW2 1748   1.463   1.706   1.966  2.1849  0.7730  0.7779
  322SOL     OW 1749   0.359   0.345   0.368 -0.9554 -0.0149  0.1924
  322SOL    HW1 1750   0.390   0.425   0.411 -1.9179  0.9458 -0.8600
  322SOL    HW2 1751   0.440   0.301   0.339 -0.4564  1.4226 -0.6991
  323SOL     OW 1752   1.538   2.662   0.841 -0.3047 -0.3539 -0.0254
  323SOL    HW1 1753   1.608   2.605   0.875 -0.6563 -0.6729  0.1851
  323SOL    HW2 1754   1.584   2.734   0.798  0.1903  0.4682  1.7643
  324SOL     OW 1755   1.293   2.168   1.270  0.1278  0.0443  0.1848
  324SOL    HW1 1756   1.228   2.189   1.202 -0.0449 -0.9956  0.0050
  324SOL    HW2 1757   1.297   2.246   1.325  0.4749  1.0237 -1.1851
  325SOL     OW 1758   1.319   2.948   0.696  0.3436 -0.2446 -0.9481
  325SOL    HW1 1759   1.296   2.937   0.788 -0.4116  0.2808 -1.0639
  325SOL    HW2 1760   1.413   2.966   0.696  0.0356  1.5673 -0.1153
  326SOL     OW 1761   1.219   0.630   0.010  0.0236 -0.2402  0.1266
  326SOL    HW1 1762   1.307   0.594  -0.006  0.6167  1.5757 -0.9839
  326SOL    HW2 1763   1.166   0.593  -0.060  0.1300 -0.5791  0.2227
  327SOL     OW 1764   3.183   2.925   1.156  0.3359  0.2342  0.3697
  327SOL    HW1 1765   3.206   2.964   1.241 -0.7166  2.5469 -0.3129
  327SOL    HW2 1766   3.257   2.868   1.135  2.1549  2.0588  1.3918
  328SOL     OW 1767   0.940   2.238   0.682  0.0961  0.3780  0.1437
  328SOL    HW1 1768   0.910   2.329   0.681 -0.6346  0.1398 -0.7543
  328SOL    HW2 1769   1.034   2.244   0.698 -0.1021  1.2335  1.1336
  329SOL     OW 1770   1.189   0.919   2.962 -0.2582  0.0733  0.5946
  329SOL    HW1 1771   1.151   0.839   2.926 -0.7093  0.3604  0.4305
  329SOL    HW2 1772   1.268   0.889   3.008  1.4413 -0.1184 -2.2170
  330SOL     OW 1773   1.710   2.855   3.087 -0.0420  0.3728  0.0648
  330SOL    HW1 1774   1.651   2.864   3.012 -1.6944  0.7402  1.3350
  330SOL    HW2 1775   1.778   2.795   3.058 -0.3256  0.9616 -1.8998
  331SOL     OW 1776   2.926   2.043   0.919 -0.0649 -0.4111 -0.0262
  331SOL    HW1 1777   2.875   2.119   0.890  0.5930 -0.2158 -0.7063
  331SOL    HW2 1778   2.887   2.019   1.003 -1.2481 -0.2392 -0.4916
  332SOL     OW 1779   2.924   1.346   3.351  0.4837 -0.1783 -0.0929
  332SOL    HW1 1780   2.904   1.258   3.319 -0.9692  0.5762 -1.4166
  332SOL    HW2 1781   2.874   1.404   3.294  0.1462  1.4441  1.7372
  333SOL     OW 1782   1.219   0.749   1.370  0.4565 -0.5767  0.4560
  333SOL    HW1 1783   1.266   0.747   1.453 -0.2221 -0.4853  0.8559
  333SOL    HW2 1784   1.195   0.658   1.354 -0.0971 -0.4951  0.7749
  334SOL     OW 1785   2.378   0.533   1.839 -0.3566  0.0379  0.1346
  334SOL    HW1 1786   2.284   0.554   1.846 -0.2624  0.0838  1.3543
  334SOL    HW2 1787   2.420   0.587   1.905  0.4517 -0.5521  0.1179
  335SOL     OW 1788   2.033   2.661   1.356  0.2605 -0.7245 -0.6896
  335SOL    HW1 1789   2.019   2.567   1.367  0.7655 -0.8771 -1.2654
  335SOL    HW2 1790   1.945   2.699   1.354  0.0109 -1.3092 -1.4573
  336SOL     OW 1791   2.345   1.977   0.530 -0.0531 -0.6739 -0.1679
  336SOL    HW1 1792   2.332   2.057   0.479 -1.7133  0.1200  1.3651
  336SOL    HW2 1793   2.350   1.908   0.465 -1.1510  0.3986 -1.4682
  337SOL     OW 1794   2.346   2.073   0.108 -0.0922 -0.2955  0.0054
  337SOL    HW1 1795   2.326   1.980   0.096  1.2500 -0.7234  0.8629
  337SOL    HW2 1796   2.418   2.090   0.047  1.8212 -0.6651  2.0320
  338SOL     OW 1797   0.777   2.427   2.900  0.0628  0.0565 -0.1979
  338SOL    HW1 1798   0.799   2.449   2.990 -3.4272 -0.5414  0.9438
  338SOL    HW2 1799   0.784   2.510   2.853 -0.2267  0.8771  1.1481
  339SOL     OW 1800   3.308   0.258   2.548 -0.3253  0.2853  0.2123
  339SOL    HW1 1801   3.399   0.259   2.578 -0.1811  0.4677 -0.2296
  339SOL    HW2 1802   3.313   0.244   2.453 -0.7853 -0.4037  0.2756
  340SOL     OW 1803   1.638   0.981   2.966 -0.1061 -0.1130 -0.0170
  340SOL    HW1 1804   1.600   1.069   2.971 -0.4156 -0.2534  0.1486
  340SOL    HW2 1805   1.574   0.925   3.010  0.9631 -0.1484  1.5501
  341SOL     OW 1806   3.120   0.202   1.500 -0.3594  0.1857  0.3889
  341SOL    HW1 1807   3.199   0.242   1.537  0.3039 -0.3886 -0.3875
  341SOL    HW2 1808   3.112   0.118   1.546 -1.8172  1.1733  2.1035
  342SOL     OW 1809   0.989   3.107   1.156 -0.1798  0.5875  0.5155
  342SOL    HW1 1810   1.080   3.079   1.165 -0.1520  0.1961 -0.7948
  342SOL    HW2 1811   0.961   3.125   1.245  1.0291  0.2361  0.9916
  343SOL     OW 1812   1.263   0.985   3.283  0.0998  0.3036 -0.2029
  343SOL    HW1 1813   1.259   1.025   3.370  2.9514 -0.4205  0.3422
  343SOL    HW2 1814   1.176   0.946   3.271 -1.3104  2.8070  1.0648
  344SOL     OW 1815   2.252   1.081   2.504 -0.3077  0.3196 -0.2323
  344SOL    HW1 1816   2.229   0.990   2.483 -0.0306  0.3264 -0.5761
  344SOL    HW2 1817   2.332   1.073   2.557 -1.7724  0.2189  2.1204
  345SOL     OW 1818   0.829   2.348   1.537  0.0395  0.2882 -0.4621
  345SOL    HW1 1819   0.816   2.263   1.579 -0.5763  0.3624 -0.4845
  345SOL    HW2 1820   0.749   2.361   1.486  0.4524  0.5463 -1.0459
  346SOL     OW 1821   2.521   2.890   1.257 -0.3422 -0.6178  0.0874
  346SOL    HW1 1822   2.472   2.943   1.194 -0.3254 -0.6511  0.0468
  346SOL    HW2 1823   2.529   2.804   1.216 -0.8289 -0.8095  0.3790
  347SOL     OW 1824   1.235   1.069   0.198  0.3755  0.0788 -0.0809
  347SOL    HW1 1825   1.184   1.108   0.268  0.2037  2.6031 -1.5028
  347SOL    HW2 1826   1.326   1.093   0.218  0.1800  2.1046 -1.4296
  348SOL     OW 1827   1.136   0.040   2.617  0.0541 -0.3087 -0.1730
  348SOL    HW1 1828   1.101   0.110   2.562  1.4565 -0.5844 -1.4537
  348SOL    HW2 1829   1.162  -0.028   2.556 -1.1683 -1.9544  1.0391
  349SOL     OW 1830   2.219   2.694   1.981 -0.3297 -0.2486 -0.2115
  349SOL    HW1 1831   2.291   2.631   1.972 -0.1502  0.0038 -0.5848
  349SOL    HW2 1832   2.262   2.777   2.003 -0.5438 -0.1976  0.0232
  350SOL     OW 1833   1.927   3.207   2.116  0.3327  0.1285 -0.2044
  350SOL    HW1 1834   1.931   3.301   2.138  0.3724  0.2350 -0.6557
  350SOL    HW2 1835   1.903   3.206   2.024 -1.9039 -0.3416  0.3257
  351SOL     OW 1836   2.279   2.932   1.089 -0.2430 -0.1209  0.7899
  351SOL    HW1 1837   2.324   3.016   1.094 -1.8814  0.9087 -0.6101
  351SOL    HW2 1838   2.215   2.935   1.160 -1.0565  0.3058  0.0477
  352SOL     OW 1839   2.789   0.606   1.479  0.0397 -0.2591  0.9750
  352SOL    HW1 1840   2.835   0.689   1.479 -0.2521 -0.0879  0.1422
  352SOL    HW2 1841   2.854   0.542   1.509  0.5844  0.0990  0.5716
  353SOL     OW 1842   0.099   0.434   2.272 -0.3084 -0.1927 -0.5746
  353SOL    HW1 1843   0.167   0.411   2.209  1.6833 -0.7112  1.6003
  353SOL    HW2 1844   0.060   0.350   2.297 -0.6299 -0.0637 -0.6411
  354SOL     OW 1845   1.307   1.154   2.880 -0.2408 -0.2274  0.0842
  354SOL    HW1 1846   1.232   1.100   2.902 -0.5268  0.4802  0.8836
  354SOL    HW2 1847   1.364   1.096   2.830 -0.5347 -1.2765  0.9259
  355SOL     OW 1848   2.955   0.819   1.533  0.2544 -0.3225  0.0258
  355SOL    HW1 1849   2.956   0.855   1.445 -2.9059  1.7254  0.6739
  355SOL    HW2 1850   2.990   0.889   1.588  0.3751 -0.8390  0.6184
  356SOL     OW 1851   0.552   0.178   2.194 -0.5756 -0.4480  0.6151
  356SOL    HW1 1852   0.556   0.082   2.196 -1.4176 -0.5762 -1.4448
  356SOL    HW2 1853   0.623   0.204   2.136 -0.6583  0.1433  0.7708
  357SOL     OW 1854   0.207   3.344   2.280 -0.0771  0.1303 -0.2013
  357SOL    HW1 1855   0.254   3.390   2.350  2.3754  0.5451 -1.9861
  357SOL    HW2 1856   0.244   3.256   2.280  2.0159  0.9083 -2.6396
  358SOL     OW 1857   2.997   0.882   2.363 -0.3717 -0.3041  0.0567
  358SOL    HW1 1858   3.083   0.847   2.385 -0.0351  1.4909  1.8847
  358SOL    HW2 1859   2.936   0.813   2.391  0.3417 -0.2472  1.8542
  359SOL     OW 1860   2.355   1.933   3.105  0.2616 -0.1271  0.1441
  359SOL    HW1 1861   2.357   1.858   3.164  0.7737 -0.5189 -0.3658
  359SOL    HW2 1862   2.418   1.995   3.141 -0.3250  0.1615  0.6906
  360SOL     OW 1863   2.822   1.438   1.203  0.1208  0.3495  0.0521
  360SOL    HW1 1864   2.736   1.470   1.228  0.2574  1.4262 -0.7949
  360SOL    HW2 1865   2.818   1.343   1.218 -2.0547 -0.0290 -2.2427
  361SOL     OW 1866   2.765   0.173   2.442  0.4018  0.0251 -0.3541
  361SOL    HW1 1867   2.855   0.184   2.473  0.1624 -2.3966  1.5061
  361SOL    HW2 1868   2.726   0.260   2.448  1.8814  0.6267  1.3401
  362SOL     OW 1869   0.863   0.129   2.780  0.0556  0.0111 -0.6315
  362SOL    HW1 1870   0.943   0.170   2.813 -1.4262  0.9549  2.0923
  362SOL    HW2 1871   0.888   0.039   2.759  1.7716  0.2366  0.3597
  363SOL     OW 1872   0.254   2.668   2.999  0.1756  0.2374 -0.1954
  363SOL    HW1 1873   0.337   2.642   3.039 -0.3551 -0.3865  0.5218
  363SOL    HW2 1874   0.253   2.623   2.914  0.5148  0.1588 -0.1607
  364SOL     OW 1875   2.415   0.248   2.357 -0.0909  0.0969 -0.0176
  364SOL    HW1 1876   2.365   0.308   2.302 -0.1759  0.9493  0.9682
  364SOL    HW2 1877   2.416   0.288   2.444 -1.6017 -2.1236  1.1300
  365SOL     OW 1878   2.084   0.687   1.686  0.1744 -0.5642 -0.1672
  365SOL    HW1 1879   2.047   0.771   1.714  0.5175 -0.5766  0.3399
  365SOL    HW2 1880   2.120   0.704   1.599 -0.7327 -0.4699 -0.5256
  366SOL     OW 1881   2.294   1.717   1.518 -0.0616 -0.3867 -0.1730
  366SOL    HW1 1882   2.350   1.795   1.523  0.4279 -0.7446  0.0102
  366SOL    HW2 1883   2.207   1.748   1.542  0.4113 -0.1746  1.3600
  367SOL     OW 1884   1.781   1.951   1.868  0.1481  0.0624 -0.3278
  367SOL    HW1 1885   1.781   2.009   1.944  0.3977 -2.5587  1.8445
  367SOL    HW2 1886   1.692   1.958   1.833 -1.5542 -1.8928  3.0460
  368SOL     OW 1887   1.477   3.259   1.435 -0.4015  0.6488 -0.0041
  368SOL    HW1 1888   1.402   3.294   1.484 -0.1438  0.6659  0.3850
  368SOL    HW2 1889   1.495   3.324   1.367 -0.0347  1.1945  0.6034
  369SOL     OW 1890   1.245   0.538   2.987  0.2706 -0.6537  0.0904
  369SOL    HW1 1891   1.285   0.472   2.931 -1.2938 -1.8589  0.3253
  369SOL    HW2 1892   1.198   0.595   2.927 -1.6149 -2.0922  0.1188
  370SOL     OW 1893   1.161   1.278   3.256  0.4963 -0.3260  0.5576
  370SOL    HW1 1894   1.189   1.198   3.301  0.4244 -1.1887 -0.8759
  370SOL    HW2 1895   1.230   1.295   3.192  0.1466  0.3413  0.3461
  371SOL     OW 1896   1.458   1.591   2.964  0.2394 -0.3557 -0.3982
  371SOL    HW1 1897   1.391   1.659   2.971  0.4739 -0.1346 -0.3142
  371SOL    HW2 1898   1.525   1.628   2.908  0.4956 -0.4149 -0.1346
  372SOL     OW 1899   3.132   2.535   0.966  0.3809 -0.1390 -0.2421
  372SOL    HW1 1900   3.051   2.534   0.915 -1.8107  0.3855  2.9339
  372SOL    HW2 1901   3.138   2.447   1.004 -1.2164  0.9280  2.8896
  373SOL     OW 1902   1.194   1.500   0.265 -0.0866  0.2066 -0.0869
  373SOL    HW1 1903   1.187   1.595   0.270 -1.7507  0.2167 -1.5797
  373SOL    HW2 1904   1.179   1.479   0.173  0.3100 -1.5063  0.1914
  374SOL     OW 1905   2.104   2.074   3.319  0.2141 -0.0962  0.2915
  374SOL    HW1 1906   2.042   2.138   3.356 -0.2370  1.6010 -3.0740
  374SOL    HW2 1907   2.185   2.090   3.366 -0.4783  1.4607  1.0423
  375SOL     OW 1908   0.729   1.966   2.977  0.5230  0.5291 -0.0358
  375SOL    HW1 1909   0.746   1.883   3.021  1.4304  1.7910  2.1120
  375SOL    HW2 1910   0.644   1.953   2.934 -0.5968 -0.7018  2.3600
  376SOL     OW 1911   1.991   2.397   2.860 -0.5078  0.2100 -0.3546
  376SOL    HW1 1912   2.038   2.313   2.853 -1.1629 -0.3369  1.3122
  376SOL    HW2 1913   1.913   2.376   2.911 -0.5276  1.8960  0.3554
  377SOL     OW 1914   1.488   1.667   0.341 -0.1854  0.7520 -0.0347
  377SOL    HW1 1915   1.488   1.757   0.311  0.2559  0.8837  0.3546
  377SOL    HW2 1916   1.424   1.623   0.285 -0.5994  1.3614 -0.0470
  378SOL     OW 1917   1.618   0.120   1.278  0.0841  0.3278 -0.0948
  378SOL    HW1 1918   1.684   0.118   1.210  0.8232  1.8216  0.5335
  378SOL    HW2 1919   1.667   0.124   1.360 -0.7869 -0.6518  0.5090
  379SOL     OW 1920   1.352   1.604   0.915 -0.4842 -0.0864  0.2610
  379SOL    HW1 1921   1.310   1.680   0.956  0.3574  0.6715 -0.2398
  379SOL    HW2 1922   1.436   1.595   0.961 -0.7471 -0.9788  0.5902
  380SOL     OW 1923   1.711   1.399   2.778  0.2524 -0.1087 -0.0508
  380SOL    HW1 1924   1.696   1.490   2.755 -0.1520  0.1274  1.0399
  380SOL    HW2 1925   1.722   1.353   2.695 -0.4736  0.7782 -0.6474
  381SOL     OW 1926   0.104   3.291   0.620 -0.1044  0.1319 -0.2969
  381SOL    HW1 1927   0.025   3.271   0.669 -2.3862  2.7071 -2.5574
  381SOL    HW2 1928   0.158   3.342   0.681 -0.6465 -0.7608  0.9611
  382SOL     OW 1929   1.944   3.279   3.248 -0.0746  0.1712 -0.1875
  382SOL    HW1 1930   1.906   3.221   3.182  0.4279 -0.3609 -0.0074
  382SOL    HW2 1931   1.869   3.327   3.283 -0.1536  1.9714 -2.5673
  383SOL     OW 1932   1.525   2.039   1.757  0.3454 -0.1919 -0.7084
  383SOL    HW1 1933   1.500   2.096   1.684  0.3180 -0.4952 -0.9369
  383SOL    HW2 1934   1.499   1.951   1.729  0.3580 -0.3132 -0.3430
  384SOL     OW 1935   3.211   1.439   3.296 -0.2007  0.0309  0.5461
  384SOL    HW1 1936   3.192   1.499   3.224 -0.2921 -0.4352  0.1808
  384SOL    HW2 1937   3.139   1.376   3.295  1.2944 -1.7639 -0.8683
  385SOL     OW 1938   1.226   0.166   1.370  0.1257  0.5807 -0.3056
  385SOL    HW1 1939   1.136   0.187   1.342  0.1210  1.1404  0.1170
  385SOL    HW2 1940   1.270   0.138   1.290  0.0352  1.8945 -0.8470
  386SOL     OW 1941   1.152   1.447   1.433  0.3221 -0.4730 -0.3852
  386SOL    HW1 1942   1.061   1.427   1.413  0.9727 -1.0165 -3.1565
  386SOL    HW2 1943   1.203   1.381   1.386  2.1732 -1.5674  2.8544
  387SOL     OW 1944   1.401   3.235   2.007  0.2589 -0.6589  0.4919
  387SOL    HW1 1945   1.444   3.274   2.084  1.7597 -0.8772 -0.1988
  387SOL    HW2 1946   1.471   3.191   1.960 -0.5918 -0.4017 -1.1070
  388SOL     OW 1947   2.820   0.977   0.433  0.0580  0.1193  0.2717
  388SOL    HW1 1948   2.903   0.932   0.449 -0.2341  0.3410  2.8873
  388SOL    HW2 1949   2.837   1.068   0.456 -0.6939  0.3348  0.0129
  389SOL     OW 1950   0.879   2.523   0.790 -0.2555  0.3370 -0.0269
  389SOL    HW1 1951   0.807   2.550   0.847 -0.2941 -0.6011  0.3949
  389SOL    HW2 1952   0.955   2.522   0.848 -0.4246 -1.3296  0.2276
  390SOL     OW 1953   1.349   0.334   2.843 -0.3341 -0.7128  0.1860
  390SOL    HW1 1954   1.316   0.249   2.870 -1.0971 -0.7470 -0.7740
  390SOL    HW2 1955   1.432   0.316   2.800 -0.6771 -1.0294 -0.3584
  391SOL     OW 1956   0.337   2.300   2.529 -0.0042  0.0775  0.2558
  391SOL    HW1 1957   0.385   2.265   2.604 -1.4982  0.6751  1.5277
  391SOL    HW2 1958   0.339   2.228   2.465  0.3590 -0.8565  1.2713
  392SOL     OW 1959   3.106   2.258   1.018 -0.1505 -0.0153 -0.2553
  392SOL    HW1 1960   3.081   2.199   0.948 -2.5978 -1.3652  1.6024
  392SOL    HW2 1961   3.160   2.205   1.077 -2.0413 -0.4112  1.2292
  393SOL     OW 1962   0.839   2.600   1.734 -0.2702 -0.2755  0.4190
  393SOL    HW1 1963   0.840   2.532   1.667 -0.7081 -0.5265  0.6590
  393SOL    HW2 1964   0.907   2.575   1.796  0.4341  0.1880 -0.1469
  394SOL     OW 1965   2.949   2.024   2.052 -0.2953 -0.2452  0.3845
  394SOL    HW1 1966   3.036   1.989   2.072  0.2369 -0.0250 -1.3960
  394SOL    HW2 1967   2.889   1.955   2.080  0.4273 -0.4009  1.6411
  395SOL     OW 1968   0.628   0.200   2.534  0.6729  0.3593 -0.1639
  395SOL    HW1 1969   0.690   0.223   2.465  1.2060 -0.5392  0.0014
  395SOL    HW2 1970   0.682   0.187   2.612  0.1771  0.4315  0.1969
  396SOL     OW 1971   3.334   0.526   3.138  0.0835  0.0496 -0.2951
  396SOL    HW1 1972   3.244   0.498   3.121 -0.1855  0.4329  0.4487
  396SOL    HW2 1973   3.388   0.450   3.116 -0.5292 -0.6070  0.4414
  397SOL     OW 1974   1.521   0.535   3.065  0.0383 -0.0734 -0.3199
  397SOL    HW1 1975   1.457   0.602   3.092  1.4518  1.2292 -0.0817
  397SOL    HW2 1976   1.505   0.524   2.971 -1.6080 -0.9976  0.0192
  398SOL     OW 1977   2.246   2.904   2.864 -0.1986 -0.2535 -0.2374
  398SOL    HW1 1978   2.191   2.846   2.917 -1.1381 -0.0901 -1.0061
  398SOL    HW2 1979   2.222   2.883   2.773 -0.6232  1.3829 -0.5303
  399SOL     OW 1980   2.067   2.287   1.897 -0.1982 -0.2545  0.2123
  399SOL    HW1 1981   2.160   2.273   1.882 -0.2079 -0.8996  0.6934
  399SOL    HW2 1982   2.024   2.237   1.828 -0.1851  2.3839 -1.8228
  400SOL     OW 1983   0.986   0.524   1.612 -0.0317 -1.0092 -0.1306
  400SOL    HW1 1984   1.065   0.551   1.657 -1.5439  3.0161  0.6166
  400SOL    HW2 1985   1.016   0.490   1.528  2.4858  0.5816  0.0321
  401SOL     OW 1986   1.620   1.775   2.146 -0.3144 -0.3173 -0.3699
  401SOL    HW1 1987   1.583   1.829   2.077 -1.5533 -0.3601  0.2355
  401SOL    HW2 1988   1.694   1.730   2.104 -1.5465 -1.0051 -1.9346
  402SOL     OW 1989   1.037   1.997   3.001  0.0250  0.1534 -0.1170
  402SOL    HW1 1990   0.962   2.016   2.945 -0.9488 -1.6724  0.4789
  402SOL    HW2 1991   0.999   1.980   3.087  1.5196  3.5453  1.3941
  403SOL     OW 1992   1.466   2.316   0.201  0.6094  0.0534  0.0591
  403SOL    HW1 1993   1.411   2.240   0.218  0.1377  0.3416 -0.1468
  403SOL    HW2 1994   1.408   2.391   0.216  1.8367  0.5105  3.2131
  404SOL     OW 1995   0.234   3.202   3.022 -0.8147  0.2261  0.1274
  404SOL    HW1 1996   0.212   3.233   3.109 -0.4638  0.1705  0.2395
  404SOL    HW2 1997   0.301   3.264   2.991 -1.1201  0.3947 -0.2027
  405SOL     OW 1998   2.985   1.266   0.341  0.5036  0.4466  0.1192
  405SOL    HW1 1999   3.057   1.317   0.377  0.1578 -0.0471  1.5870
  405SOL    HW2 2000   3.027   1.196   0.291  1.0215  0.7002  0.1954
  406SOL     OW 2001   2.276   3.008   1.709  0.3585 -0.0641 -0.9980
  406SOL    HW1 2002   2.309   3.078   1.765  0.0028 -1.2717  0.8026
  406SOL    HW2 2003   2.355   2.963   1.678  0.5542 -0.6247  0.2320
  407SOL     OW 2004   1.794   1.201   1.668 -0.7273  0.0145 -0.3002
  407SOL    HW1 2005   1.708   1.238   1.648 -0.3027  0.2583 -1.8022
  407SOL    HW2 2006   1.786   1.169   1.758 -2.0936  0.8627 -0.0906
  408SOL     OW 2007   2.155   0.364   3.027  0.1844  0.5750 -0.3340
  408SOL    HW1 2008   2.191   0.392   2.943  2.5491 -1.7478 -0.2082
  408SOL    HW2 2009   2.130   0.273   3.013 -0.1314  0.3862  1.2634
  409SOL     OW 2010   1.405   2.304   0.516 -0.1563 -0.3395  0.6637
  409SOL    HW1 2011   1.345   2.375   0.493  1.1300  1.1737  1.7235
  409SOL    HW2 2012   1.349   2.234   0.548 -1.3895  1.5799  3.0600
  410SOL     OW 2013   1.018   2.550   2.754  0.0686 -0.2160  0.2681
  410SOL    HW1 2014   1.016   2.504   2.838 -1.1434 -1.0957 -0.1970
  410SOL    HW2 2015   0.938   2.603   2.754 -0.2445 -0.6650 -0.5431
  411SOL     OW 2016   0.491   0.595   2.151  0.3950  0.5515 -0.4257
  411SOL    HW1 2017   0.452   0.621   2.068  0.2349  1.7646  0.0062
  411SOL    HW2 2018   0.417   0.561   2.202  0.3542  0.5171 -0.5083
  412SOL     OW 2019   0.718   2.826   0.416  0.5668 -0.3190 -0.1376
  412SOL    HW1 2020   0.789   2.795   0.472  2.3464  2.0336 -0.9389
  412SOL    HW2 2021   0.672   2.891   0.470  0.4702 -0.1560 -0.4179
  413SOL     OW 2022   2.856   3.237   2.795 -0.0762  0.7903  0.6006
  413SOL    HW1 2023   2.878   3.238   2.701  1.2360  1.0429  0.8897
  413SOL    HW2 2024   2.829   3.147   2.812  0.7451  0.4553  0.1919
  414SOL     OW 2025   1.034   3.028   1.664 -0.2028 -0.1788 -0.0896
  414SOL    HW1 2026   0.963   2.966   1.646 -0.7286  0.5861 -0.6867
  414SOL    HW2 2027   1.094   3.018   1.591  0.7079 -1.3526  0.7777
  415SOL     OW 2028   1.418   3.292   0.559  0.0351  0.2527 -0.0062
  415SOL    HW1 2029   1.411   3.242   0.477 -0.6878 -0.1736  0.3124
  415SOL    HW2 2030   1.400   3.383   0.533  0.7593  0.2777 -0.4796
  416SOL     OW 2031   2.683   3.260   1.391 -0.0317  0.6924  0.3901
  416SOL    HW1 2032   2.751   3.311   1.435 -0.1224 -0.2156  1.6303
  416SOL    HW2 2033   2.602   3.306   1.411  0.1532  1.6068 -0.8389
  417SOL     OW 2034   1.981   1.881   2.249 -0.2385  0.1502 -0.1829
  417SOL    HW1 2035   1.886   1.868   2.250 -0.0922 -1.0627 -0.5343
  417SOL    HW2 2036   1.993   1.969   2.283 -1.5736  0.8797 -1.4743
  418SOL     OW 2037   1.576   3.055   1.592 -0.0008  0.3831 -0.0715
  418SOL    HW1 2038   1.591   2.970   1.548  0.3048 -0.1127  0.9594
  418SOL    HW2 2039   1.554   3.115   1.521 -0.9925 -0.7364 -0.7446
  419SOL     OW 2040   1.868   1.621   1.135 -0.3759  0.2442 -0.0263
  419SOL    HW1 2041   1.866   1.686   1.065 -0.0837  0.2220 -0.0549
  419SOL    HW2 2042   1.953   1.633   1.176 -0.3903 -0.0079  0.0752
  420SOL     OW 2043   0.008   3.202   2.809  0.9357 -0.0384 -0.0559
  420SOL    HW1 2044   0.001   3.282   2.861 -1.6781  0.2807 -0.7438
  420SOL    HW2 2045   0.029   3.134   2.872  2.6105  1.0628  0.6406
  421SOL     OW 2046   0.799   2.850   2.549 -0.1897  0.8975  0.1303
  421SOL    HW1 2047   0.743   2.926   2.532  1.8498  2.3511 -0.5268
  421SOL    HW2 2048   0.883   2.888   2.576  0.7696 -1.1549  0.2396
  422SOL     OW 2049   1.969   2.932   0.054 -0.5889  0.1865 -0.0934
  422SOL    HW1 2050   2.038   2.910   0.117 -0.6054  1.7005  0.5103
  422SOL    HW2 2051   2.017   2.949  -0.028 -0.2588  0.7969  0.2104
  423SOL     OW 2052   0.642   0.172   1.697  0.1659 -0.2463 -0.5308
  423SOL    HW1 2053   0.657   0.192   1.605 -1.1861 -0.9864 -0.9339
  423SOL    HW2 2054   0.572   0.106   1.697 -0.0214 -0.0980  1.0276
  424SOL     OW 2055   0.598   2.640   0.957  0.6540 -0.4173 -0.0497
  424SOL    HW1 2056   0.559   2.640   1.045  2.4583 -2.2133  0.8356
  424SOL    HW2 2057   0.522   2.637   0.898 -0.6349  1.8157  1.3346
  425SOL     OW 2058   1.466   0.842   3.110  0.0464  0.6193 -0.3526
  425SOL    HW1 2059   1.535   0.843   3.176 -0.5469  0.1478  0.2977
  425SOL    HW2 2060   1.386   0.865   3.159 -0.1446  2.0357 -1.2398
  426SOL     OW 2061   1.639   3.000   2.813  0.1237 -0.0251  0.5766
  426SOL    HW1 2062   1.730   2.980   2.792  0.3849  0.5913  1.0751
  426SOL    HW2 2063   1.644   3.058   2.889 -0.5552  2.1090 -0.9016
  427SOL     OW 2064   1.917   3.243   1.763  0.0713 -0.2127 -0.5681
  427SOL    HW1 2065   1.861   3.211   1.692  0.3113 -1.2171 -0.3236
  427SOL    HW2 2066   1.907   3.338   1.761 -0.9696 -0.3245 -1.0710
  428SOL     OW 2067   1.660   2.201   0.908  0.4767  0.4378  0.0393
  428SOL    HW1 2068   1.568   2.192   0.933  0.5852 -0.6190  0.1004
  428SOL    HW2 2069   1.660   2.272   0.843 -0.5614 -0.3371 -0.8449
  429SOL     OW 2070   0.741   3.231   0.768 -0.0795  0.7812 -0.0819
  429SOL    HW1 2071   0.796   3.255   0.842  2.2386  0.5716 -1.6499
  429SOL    HW2 2072   0.730   3.136   0.776 -0.4718  0.8632  0.3872
  430SOL     OW 2073   2.051   2.695   0.737 -1.2257  0.2431 -0.4949
  430SOL    HW1 2074   2.137   2.653   0.741 -0.2563  2.0692  3.0034
  430SOL    HW2 2075   2.071   2.789   0.745 -3.5104  0.7930 -0.6345
  431SOL     OW 2076   2.897   2.398   0.548  0.0068 -0.3215 -0.1951
  431SOL    HW1 2077   2.931   2.312   0.524  0.3850 -0.9362  2.2932
  431SOL    HW2 2078   2.850   2.384   0.630 -1.4057  1.5625 -0.5986
  432SOL     OW 2079   0.469   2.652   0.461  0.4955  0.0074 -0.0533
  432SOL    HW1 2080   0.420   2.671   0.381  0.3963 -0.0626 -0.0096
  432SOL    HW2 2081   0.502   2.563   0.449  0.3239 -0.0718  0.0626
  433SOL     OW 2082   2.180   2.779   2.611 -0.3851  0.8832 -0.5600
  433SOL    HW1 2083   2.139   2.695   2.592 -0.1003  0.8243 -0.9284
  433SOL    HW2 2084   2.237   2.796   2.536 -0.0372  1.1518 -0.2404
  434SOL     OW 2085   2.893   1.205   0.595 -0.2710  0.1316  0.1271
  434SOL    HW1 2086   2.949   1.236   0.524 -0.0197 -1.1795 -0.2660
  434SOL    HW2 2087   2.806   1.242   0.575 -0.4966 -1.2185 -1.5639
  435SOL     OW 2088   0.251   0.409   0.118  0.7516 -0.1398  0.5924
  435SOL    HW1 2089   0.251   0.461   0.038 -1.8687 -0.7783  0.0817
  435SOL    HW2 2090   0.330   0.356   0.112  1.6293  1.2442 -0.5838
  436SOL     OW 2091   0.734   2.646   2.389  0.8255 -0.7261  0.3071
  436SOL    HW1 2092   0.777   2.720   2.433  1.2469 -0.1811 -0.9824
  436SOL    HW2 2093   0.650   2.637   2.434  0.2581  1.2928 -0.2364
  437SOL     OW 2094   1.475   1.039   0.981 -0.0458 -0.4659  0.2662
  437SOL    HW1 2095   1.409   1.038   1.050 -1.4338  1.4968 -0.9197
  437SOL    HW2 2096   1.429   1.007   0.904  0.1122  1.5636 -0.7380
  438SOL     OW 2097   1.686   0.228   2.783 -0.4415  0.2222 -0.2553
  438SOL    HW1 2098   1.682   0.138   2.753  0.3915  0.5365 -1.3998
  438SOL    HW2 2099   1.749   0.270   2.724 -2.0176  1.9519 -0.8202
  439SOL     OW 2100   2.288   0.983   1.691  0.3384 -0.5094  0.0464
  439SOL    HW1 2101   2.227   1.049   1.724  2.2548  1.5623 -0.2795
  439SOL    HW2 2102   2.241   0.940   1.620 -1.8973 -1.3378  1.8903
  440SOL     OW 2103   1.758   1.665   1.501  0.5685  0.1564  0.7454
  440SOL    HW1 2104   1.854   1.657   1.508  0.3844 -1.6882  1.6708
  440SOL    HW2 2105   1.725   1.620   1.579 -1.0755  0.5033  0.2716
  441SOL     OW 2106   1.724   1.921   2.357 -0.0836  0.0642  0.2462
  441SOL    HW1 2107   1.662   1.975   2.405 -0.7450 -1.2032  0.8817
  441SOL    HW2 2108   1.670   1.875   2.292  0.8230  1.9155 -1.9645
  442SOL     OW 2109   1.019   3.166   1.885 -0.2433 -0.3152 -0.5272
  442SOL    HW1 2110   1.040   3.258   1.873  1.5657 -0.5146  0.5638
  442SOL    HW2 2111   1.030   3.127   1.798  0.7468  0.2182 -0.6639
  443SOL     OW 2112   1.054   0.636   2.318  0.1238 -0.5445  0.5715
  443SOL    HW1 2113   1.041   0.727   2.293  1.3648 -0.8509 -1.5325
  443SOL    HW2 2114   1.084   0.639   2.408 -1.2860  0.9826  1.0365
  444SOL     OW 2115   1.369   1.366   1.080  0.1495 -0.2061  0.0844
  444SOL    HW1 2116   1.335   1.453   1.059 -1.6532 -1.0097 -0.4870
  444SOL    HW2 2117   1.460   1.368   1.051  0.4002  1.7558  0.8744
  445SOL     OW 2118   2.718   1.713   3.341 -0.4639  0.5948  0.1181
  445SOL    HW1 2119   2.743   1.643   3.281 -0.0012 -0.0869  1.0797
  445SOL    HW2 2120   2.748   1.793   3.299 -0.2397  0.1397 -0.6028
  446SOL     OW 2121   2.479   2.694   2.551 -0.5906 -0.1308  0.1199
  446SOL    HW1 2122   2.486   2.787   2.573 -0.8898  0.0039 -0.3588
  446SOL    HW2 2123   2.435   2.655   2.627 -0.6601  0.1504  0.2243
  447SOL     OW 2124   0.555   2.475   0.159  0.2293 -0.4798 -0.2276
  447SOL    HW1 2125   0.566   2.426   0.240 -0.7369 -0.3720 -0.0125
  447SOL    HW2 2126   0.610   2.552   0.170 -1.3159  0.5087  1.1774
  448SOL     OW 2127   1.457   0.331   2.252 -0.1879  0.5960 -0.2597
  448SOL    HW1 2128   1.552   0.334   2.263 -0.2185  0.1358  0.1578
  448SOL    HW2 2129   1.428   0.421   2.268  0.1428  0.6613 -0.0202
  449SOL     OW 2130   2.134   2.114   1.402 -0.1685 -0.1158 -0.3010
  449SOL    HW1 2131   2.145   2.140   1.493 -1.0250 -1.0427  0.0853
  449SOL    HW2 2132   2.039   2.111   1.389 -0.1056 -1.9424 -0.6169
  450SOL     OW 2133   0.330   2.593   0.014 -0.1446 -0.0763 -0.3206
  450SOL    HW1 2134   0.339   2.570  -0.078 -0.4625  1.1400 -0.6801
  450SOL    HW2 2135   0.380   2.526   0.061 -1.0196 -1.4426 -1.2694
  451SOL     OW 2136   2.067   2.924   1.848 -0.6067 -0.4214 -0.3333
  451SOL    HW1 2137   2.088   2.832   1.833  0.7879 -0.3347  0.8050
  451SOL    HW2 2138   2.148   2.971   1.826 -1.3095  0.5427 -0.9376
  452SOL     OW 2139   0.741   2.759   3.226  0.2838  0.3333  0.1368
  452SOL    HW1 2140   0.747   2.739   3.319  0.6371 -1.8535 -0.2933
  452SOL    HW2 2141   0.764   2.676   3.182  0.8227  1.4820 -1.8917
  453SOL     OW 2142   0.905   2.677   1.195  0.5177 -0.0978 -0.2691
  453SOL    HW1 2143   0.941   2.615   1.259 -0.4577 -1.8758 -1.3645
  453SOL    HW2 2144   0.815   2.692   1.224  0.4483  0.0383 -0.5496
  454SOL     OW 2145   1.564   1.928   0.759 -0.0790  0.3478 -0.0810
  454SOL    HW1 2146   1.513   1.982   0.698  0.2862  1.9345  0.9685
  454SOL    HW2 2147   1.522   1.942   0.844  1.0444  0.2839  0.4939
  455SOL     OW 2148   1.121   0.788   0.522 -0.5065  1.3653 -0.0757
  455SOL    HW1 2149   1.208   0.823   0.503 -0.2604  1.5589  1.2819
  455SOL    HW2 2150   1.136   0.725   0.592 -1.4027  1.0205 -0.1865
  456SOL     OW 2151   0.910   3.204   1.399  0.1083  0.4034  0.3724
  456SOL    HW1 2152   0.834   3.169   1.445  0.0643 -2.3291 -1.5728
  456SOL    HW2 2153   0.956   3.257   1.464 -1.7934 -0.4056  2.4635
  457SOL     OW 2154   2.000   1.797   2.534  0.0216 -0.0790  0.0589
  457SOL    HW1 2155   1.938   1.854   2.581  0.3296 -0.6731  1.2303
  457SOL    HW2 2156   1.988   1.820   2.442 -0.5409  1.2041  0.4208
  458SOL     OW 2157   2.027   3.226   1.346 -0.6529  1.2896  0.0115
  458SOL    HW1 2158   2.042   3.135   1.370 -0.9445  1.0645 -0.6201
  458SOL    HW2 2159   2.075   3.277   1.411  0.2785  0.6632 -0.1680
  459SOL     OW 2160   1.305   1.135   2.134  0.1017  0.5785  0.1076
  459SOL    HW1 2161   1.395   1.118   2.108  0.2557  0.7782  0.5010
  459SOL    HW2 2162   1.305   1.226   2.164 -0.0519  0.3519  0.8398
  460SOL     OW 2163   2.155   1.657   2.138  0.8691  0.0557  0.0901
  460SOL    HW1 2164   2.103   1.592   2.186  0.2390  0.9259  0.6266
  460SOL    HW2 2165   2.166   1.729   2.200 -0.6014  1.5333 -1.2711
  461SOL     OW 2166   2.743   0.114   1.545 -0.4247  0.0333  0.3295
  461SOL    HW1 2167   2.676   0.177   1.519 -0.8789 -0.4825  0.2176
  461SOL    HW2 2168   2.742   0.116   1.641 -0.8395 -0.2102  0.3341
  462SOL     OW 2169   2.229   0.041   1.079  0.3123 -0.2807 -0.2843
  462SOL    HW1 2170   2.153  -0.008   1.047  0.8300  0.1258 -2.2703
  462SOL    HW2 2171   2.192   0.113   1.130 -0.6975  0.2985 -1.7712
  463SOL     OW 2172   2.539   0.763   2.374  0.1854 -0.6236  0.5495
  463SOL    HW1 2173   2.445   0.779   2.375  0.2350 -0.3230  1.1051
  463SOL    HW2 2174   2.566   0.784   2.285  0.0878  1.5194  0.9529
  464SOL     OW 2175   3.032   0.171   2.502 -0.2644 -0.0915  0.3557
  464SOL    HW1 2176   3.066   0.087   2.472  1.4359  0.0702  1.6436
  464SOL    HW2 2177   3.107   0.212   2.545 -1.1252  1.9837 -0.0167
  465SOL     OW 2178   1.908   1.722   1.788 -0.2995  0.2650 -0.6718
  465SOL    HW1 2179   1.863   1.790   1.839 -0.1652 -1.0515  1.3317
  465SOL    HW2 2180   1.852   1.645   1.796  0.5111 -0.4033 -1.2300
  466SOL     OW 2181   2.100   2.510   2.626  0.2222  0.1264 -0.1085
  466SOL    HW1 2182   2.195   2.522   2.630  0.1309  0.5554  1.0598
  466SOL    HW2 2183   2.077   2.466   2.707 -0.9355  2.8732  1.1930
  467SOL     OW 2184   0.401   2.725   1.306 -0.1764 -0.9237  0.4342
  467SOL    HW1 2185   0.387   2.784   1.380 -1.4496 -1.4771  0.6591
  467SOL    HW2 2186   0.377   2.777   1.229 -0.1135 -0.7566  0.5283
  468SOL     OW 2187   1.999   1.438   2.218 -0.1472 -0.2675 -1.1300
  468SOL    HW1 2188   2.053   1.361   2.202  0.5114  0.4933 -2.7859
  468SOL    HW2 2189   1.911   1.412   2.190  0.0193 -0.4912 -1.4475
  469SOL     OW 2190   0.792   2.469   0.419 -0.1951 -0.6694  0.0274
  469SOL    HW1 2191   0.831   2.533   0.478  0.9131 -1.0273 -0.2701
  469SOL    HW2 2192   0.860   2.455   0.352 -0.0073 -2.8401  0.6008
  470SOL     OW 2193   3.173   0.200   2.827  0.8173  0.0535  0.6063
  470SOL    HW1 2194   3.249   0.174   2.880 -0.0201 -0.3220  1.6654
  470SOL    HW2 2195   3.210   0.230   2.745  2.0626 -1.1037  0.7055
  471SOL     OW 2196   2.974   0.862   3.183  0.4499 -0.3514  0.1724
  471SOL    HW1 2197   3.039   0.797   3.210  0.2988  0.0651  1.6468
  471SOL    HW2 2198   3.014   0.946   3.203  1.6539  0.2680 -3.9236
  472SOL     OW 2199   1.879   2.894   2.764 -0.0076  0.2285  0.2569
  472SOL    HW1 2200   1.953   2.882   2.705  0.4956  0.2025  0.8879
  472SOL    HW2 2201   1.916   2.885   2.851 -0.4981  1.6226  0.6274
  473SOL     OW 2202   1.279   1.788   2.967 -0.5530 -0.2173 -0.3065
  473SOL    HW1 2203   1.228   1.861   3.003 -1.2813 -0.4508 -0.8353
  473SOL    HW2 2204   1.225   1.755   2.896 -1.3101 -2.7153  1.3092
  474SOL     OW 2205   2.473   3.210   2.765  0.7654 -0.3495 -0.2352
  474SOL    HW1 2206   2.558   3.221   2.808  1.1718 -0.0265 -1.0905
  474SOL    HW2 2207   2.466   3.286   2.707 -0.0261 -0.4723 -0.3091
  475SOL     OW 2208   2.620   1.201   2.992 -0.1672  0.4944 -0.3310
  475SOL    HW1 2209   2.532   1.199   2.954 -0.7375 -0.0970  0.9637
  475SOL    HW2 2210   2.660   1.119   2.964  0.1859  0.9965 -1.3557
  476SOL     OW 2211   2.834   0.405   1.808 -0.1917 -0.2652 -0.0983
  476SOL    HW1 2212   2.904   0.421   1.871  0.0244  0.9200 -0.6251
  476SOL    HW2 2213   2.788   0.489   1.800 -0.0047 -0.2870 -1.7629
  477SOL     OW 2214   1.929   2.754   2.359  0.2607  0.0985  0.1146
  477SOL    HW1 2215   1.964   2.798   2.281  1.6695  0.4892  0.9352
  477SOL    HW2 2216   1.979   2.791   2.432 -1.2565 -0.0154  1.2646
  478SOL     OW 2217   2.894   2.876   2.579 -0.4559 -0.6002  0.2657
  478SOL    HW1 2218   2.851   2.960   2.598 -1.5971 -1.2934  0.8536
  478SOL    HW2 2219   2.975   2.879   2.629 -0.5773  0.0729  0.4365
  479SOL     OW 2220   0.133   3.188   2.548  0.1947  0.6867  0.2711
  479SOL    HW1 2221   0.117   3.140   2.467  1.9607 -0.5399  0.6041
  479SOL    HW2 2222   0.080   3.142   2.613  0.1781  0.5610  0.1702
  480SOL     OW 2223   1.283   2.699   3.067  0.1066 -0.3147  0.8644
  480SOL    HW1 2224   1.371   2.712   3.104 -0.1216  0.2794  1.2129
  480SOL    HW2 2225   1.232   2.771   3.103  0.1459  0.9867 -1.4981
  481SOL     OW 2226   1.909   1.022   1.430  0.4202  0.2800  0.3111
  481SOL    HW1 2227   1.926   0.962   1.503  3.1188  0.4807 -0.0429
  481SOL    HW2 2228   1.924   0.968   1.352 -0.1230  0.6609 -0.0532
  482SOL     OW 2229   0.940   1.898   3.244 -0.2556  0.4181 -0.9895
  482SOL    HW1 2230   0.975   1.810   3.262  0.3022  1.0497  1.2146
  482SOL    HW2 2231   0.845   1.886   3.244 -0.1956 -0.1086 -0.2380
  483SOL     OW 2232   1.189   2.770   2.260 -0.0269 -0.0231 -0.2266
  483SOL    HW1 2233   1.194   2.805   2.171  0.5466  1.1445  0.2377
  483SOL    HW2 2234   1.279   2.770   2.291 -0.0343 -1.7281 -0.0966
  484SOL     OW 2235   1.728   1.667   2.776  0.3025 -0.0151  0.1712
  484SOL    HW1 2236   1.820   1.682   2.796  0.0416  1.0541  0.6830
  484SOL    HW2 2237   1.698   1.751   2.740 -0.2144 -0.6844 -1.0041
  485SOL     OW 2238   3.307   1.606   0.438  0.8558  0.2130 -0.0220
  485SOL    HW1 2239   3.392   1.565   0.456 -0.4483 -1.9668  1.7338
  485SOL    HW2 2240   3.288   1.582   0.347  2.6554  1.9441 -0.9520
  486SOL     OW 2241   2.208   1.385   2.833 -0.0003 -0.3258  0.3224
  486SOL    HW1 2242   2.287   1.437   2.847  0.1164  0.3221 -2.1987
  486SOL    HW2 2243   2.154   1.439   2.776  0.1207 -2.8358 -2.4527
  487SOL     OW 2244   1.255   2.761   0.050  0.1997 -0.0172  0.2781
  487SOL    HW1 2245   1.286   2.824   0.116  2.1977  0.4599 -1.0172
  487SOL    HW2 2246   1.161   2.753   0.067  0.5901  0.2652  2.9955
  488SOL     OW 2247   2.534   2.581   2.315 -0.3303  0.2791 -0.4673
  488SOL    HW1 2248   2.521   2.621   2.401 -0.1998 -0.4574 -0.0892
  488SOL    HW2 2249   2.445   2.566   2.282 -0.5496 -2.7824  1.1719
  489SOL     OW 2250   1.646   0.188   1.991  0.0633 -0.3556 -0.3221
  489SOL    HW1 2251   1.646   0.128   1.916 -0.8407 -2.5384  1.3130
  489SOL    HW2 2252   1.593   0.262   1.961  1.6752 -0.0044 -2.6052
  490SOL     OW 2253   2.588   2.683   1.741  0.0374 -0.0449 -0.2221
  490SOL    HW1 2254   2.554   2.618   1.803 -1.3561  0.4809 -0.4055
  490SOL    HW2 2255   2.681   2.691   1.764  0.4686 -2.6843 -0.7250
  491SOL     OW 2256   2.954   1.115   3.018 -0.0160 -0.1307 -0.2502
  491SOL    HW1 2257   2.877   1.062   3.001  0.4238 -0.7276 -0.4144
  491SOL    HW2 2258   3.021   1.080   2.958  0.7092 -0.3730  0.6817
  492SOL     OW 2259   1.650   1.562   3.227  0.5461  0.4245 -0.2524
  492SOL    HW1 2260   1.659   1.657   3.213  0.6946  0.1856 -2.0693
  492SOL    HW2 2261   1.591   1.534   3.157 -1.6066 -0.4774  1.8012
  493SOL     OW 2262   1.477   0.339   1.729  0.7206  0.1814  0.2971
  493SOL    HW1 2263   1.456   0.247   1.746  1.2368 -0.4478 -2.0852
  493SOL    HW2 2264   1.448   0.385   1.808 -1.7826 -1.6963  0.5941
  494SOL     OW 2265   1.765   1.361   1.302 -0.4862  0.0870  0.0475
  494SOL    HW1 2266   1.707   1.437   1.302 -0.0124  0.4728  1.3528
  494SOL    HW2 2267   1.708   1.287   1.279 -1.0013  0.7718 -0.9592
  495SOL     OW 2268   2.803   2.931   2.107  0.4530 -0.3902  0.2175
  495SOL    HW1 2269   2.763   2.851   2.140  0.9508 -0.6355  0.2455
  495SOL    HW2 2270   2.896   2.909   2.097  0.6131  0.2161  0.3241
  496SOL     OW 2271   2.492   2.366   1.656  0.3491 -0.1422  0.5349
  496SOL    HW1 2272   2.575   2.397   1.694  0.5148  0.1968 -0.0926
  496SOL    HW2 2273   2.487   2.409   1.571 -0.0747 -0.8140  0.2145
  497SOL     OW 2274   2.508   1.027   2.614  0.2621 -0.9536  0.2027
  497SOL    HW1 2275   2.600   1.051   2.602  0.8605 -1.9960  2.2831
  497SOL    HW2 2276   2.510   0.932   2.628 -1.1367 -0.9820  0.3349
  498SOL     OW 2277   2.845   2.621   1.879 -0.0380  0.1097  0.1567
  498SOL    HW1 2278   2.899   2.685   1.832  0.3460 -0.1038  0.2989
  498SOL    HW2 2279   2.907   2.577   1.938  0.2977 -2.2931 -1.8491
  499SOL     OW 2280   1.292   1.213   1.627  0.1558 -0.1446 -0.2237
  499SOL    HW1 2281   1.270   1.252   1.542  0.2871  1.8939  0.6349
  499SOL    HW2 2282   1.301   1.287   1.686 -0.0835 -1.5309  1.6379
  500SOL     OW 2283   0.229   3.267   1.708  0.0047  0.4389  0.3279
  500SOL    HW1 2284   0.156   3.236   1.655 -1.3255  3.0614  0.4722
  500SOL    HW2 2285   0.217   3.225   1.793 -0.5820 -0.1201 -0.0223
  501SOL     OW 2286   2.870   2.663   1.541  0.0693 -0.3144  0.0166
  501SOL    HW1 2287   2.816   2.742   1.550 -0.6444 -0.6456 -1.0971
  501SOL    HW2 2288   2.960   2.695   1.551 -0.3044  0.1846  2.3121
  502SOL     OW 2289   2.307   2.711   3.220 -0.5886  0.8533 -0.3680
  502SOL    HW1 2290   2.223   2.716   3.267 -0.5226 -0.7574 -0.0103
  502SOL    HW2 2291   2.284   2.725   3.128 -1.3893 -0.2121 -0.3622
  503SOL     OW 2292   1.334   2.787   1.601 -0.1983 -0.1881  0.0233
  503SOL    HW1 2293   1.368   2.746   1.522  0.2268  1.9607 -0.9654
  503SOL    HW2 2294   1.316   2.877   1.576 -1.3367  0.2027  2.0394
  504SOL     OW 2295   0.020   2.427   2.439 -0.0571 -0.4736 -0.5443
  504SOL    HW1 2296   0.071   2.489   2.387 -0.6672  0.1744 -0.3730
  504SOL    HW2 2297  -0.063   2.418   2.391 -0.7832  0.4284  0.4974
  505SOL     OW 2298   2.440   0.281   1.723 -0.4974 -0.3822  0.0538
  505SOL    HW1 2299   2.468   0.319   1.639 -0.8621  0.2117  0.1970
  505SOL    HW2 2300   2.430   0.356   1.781 -0.8509 -0.7357  0.4547
  506SOL     OW 2301   1.227   2.893   2.016 -0.7048 -0.1727 -0.4237
  506SOL    HW1 2302   1.233   2.970   2.072 -1.1246 -0.3862 -0.0795
  506SOL    HW2 2303   1.198   2.928   1.931  1.0522  0.3061 -0.8817
  507SOL     OW 2304   1.919   0.313   2.678 -0.9355 -0.3141  0.0839
  507SOL    HW1 2305   1.999   0.261   2.677 -1.7922 -1.7164 -1.9343
  507SOL    HW2 2306   1.944   0.397   2.640 -0.1521 -0.2500  0.7171
  508SOL     OW 2307   2.193   0.055   2.272  0.1889  0.2026  0.1815
  508SOL    HW1 2308   2.260   0.121   2.291  0.0752  0.6800 -0.9816
  508SOL    HW2 2309   2.219  -0.022   2.322  0.1230  1.2297  1.8926
  509SOL     OW 2310   2.204   2.267   0.915 -0.1609 -0.2991 -0.2273
  509SOL    HW1 2311   2.192   2.280   1.009 -0.4546 -0.1401 -0.2872
  509SOL    HW2 2312   2.280   2.208   0.909 -0.8239 -1.2055  0.1368
  510SOL     OW 2313   2.602   0.582   1.225 -0.1983 -0.7432  0.1483
  510SOL    HW1 2314   2.653   0.624   1.294  0.3199 -0.6632 -0.2809
  510SOL    HW2 2315   2.657   0.510   1.195 -0.5964 -1.0307  0.0889
  511SOL     OW 2316   2.759   2.243   0.868 -0.1075 -0.1700 -0.0933
  511SOL    HW1 2317   2.768   2.338   0.881 -3.0669 -0.0200  2.1247
  511SOL    HW2 2318   2.692   2.235   0.800  0.5040 -0.7173 -0.6469
  512SOL     OW 2319   1.807   2.459   2.215 -0.3814 -0.4390 -0.1230
  512SOL    HW1 2320   1.896   2.423   2.220 -0.4181 -0.4089  1.0291
  512SOL    HW2 2321   1.781   2.470   2.306 -0.9356  1.1421 -0.4497
  513SOL     OW 2322   3.103   3.061   2.173 -0.0019  0.3874  0.0736
  513SOL    HW1 2323   3.096   3.149   2.138  0.8585  0.7887  0.8530
  513SOL    HW2 2324   3.160   3.070   2.250  1.3186 -1.0636 -0.6634
  514SOL     OW 2325   2.894   0.318   2.885 -0.2966  0.4380 -0.4483
  514SOL    HW1 2326   2.864   0.396   2.838 -0.9570  0.1052 -0.5983
  514SOL    HW2 2327   2.936   0.265   2.818  0.4357  0.8018 -0.2834
  515SOL     OW 2328   2.714   2.181   0.317  0.6044 -0.4428 -0.6008
  515SOL    HW1 2329   2.807   2.194   0.300  1.1527 -3.9011 -0.9322
  515SOL    HW2 2330   2.711   2.124   0.394 -1.0022 -3.0526 -2.4447
  516SOL     OW 2331   1.625   2.341   1.998 -0.6822  0.3026 -0.2416
  516SOL    HW1 2332   1.676   2.396   2.058 -0.8719 -0.5834  0.7416
  516SOL    HW2 2333   1.651   2.252   2.019 -0.3516 -0.0223 -1.8558
  517SOL     OW 2334   2.231   1.910   0.784  0.5646 -0.0022 -0.6461
  517SOL    HW1 2335   2.275   1.924   0.700  1.3882 -0.2447 -0.2658
  517SOL    HW2 2336   2.267   1.828   0.816  0.7376  0.4135  0.2458
  518SOL     OW 2337   1.478   1.992   2.035  0.2189  0.3644 -0.1927
  518SOL    HW1 2338   1.461   2.033   2.120 -0.1851  0.5028 -0.3392
  518SOL    HW2 2339   1.490   2.066   1.975 -2.7910  0.3809 -0.9438
  519SOL     OW 2340   1.235   1.776   0.532 -0.0911  0.0807 -0.2176
  519SOL    HW1 2341   1.312   1.833   0.532  0.1772 -0.2725 -0.5122
  519SOL    HW2 2342   1.203   1.778   0.442 -0.4197  0.2202 -0.0964
  520SOL     OW 2343   1.390   3.199   0.296 -0.2443  0.2678  0.7461
  520SOL    HW1 2344   1.481   3.170   0.284 -0.2918 -0.4103  1.8447
  520SOL    HW2 2345   1.382   3.276   0.240  0.2062 -1.1870 -1.4589
  521SOL     OW 2346   2.399   2.161   2.918  0.1909 -0.1095  0.1452
  521SOL    HW1 2347   2.343   2.160   2.996  0.3154 -0.1182  0.2352
  521SOL    HW2 2348   2.424   2.069   2.905 -1.7807 -0.5055 -1.3251
  522SOL     OW 2349   0.576   2.674   1.672  0.0670  0.0655 -0.2950
  522SOL    HW1 2350   0.551   2.767   1.673  0.7576  0.2501  0.2829
  522SOL    HW2 2351   0.668   2.674   1.697 -0.1285 -0.8430  0.4690
  523SOL     OW 2352   2.628   2.736   3.011 -0.6627  0.1310 -0.3758
  523SOL    HW1 2353   2.597   2.826   3.019  0.4319  0.4346  0.7157
  523SOL    HW2 2354   2.653   2.727   2.919 -1.7171  0.6062 -0.7221
  524SOL     OW 2355   2.199   1.723   1.879  0.0298  0.1480 -0.4982
  524SOL    HW1 2356   2.198   1.705   1.973 -1.0159 -1.2432 -0.7405
  524SOL    HW2 2357   2.111   1.699   1.849  0.5343 -0.0105 -1.9319
  525SOL     OW 2358   0.268   2.710   0.268  0.5698  0.3275 -0.7890
  525SOL    HW1 2359   0.176   2.735   0.281  0.9354  2.7789 -2.1692
  525SOL    HW2 2360   0.269   2.664   0.185  0.4156 -1.1056 -0.0233
  526SOL     OW 2361   2.538   3.122   2.203 -0.2090  0.0885  0.0484
  526SOL    HW1 2362   2.533   3.125   2.298  0.9591 -2.2163  0.2555
  526SOL    HW2 2363   2.568   3.210   2.178 -1.7134  1.1262  1.6565
  527SOL     OW 2364   1.001   2.559   1.412 -0.0232 -0.4464  0.1573
  527SOL    HW1 2365   1.057   2.571   1.488 -1.0128 -1.4597  1.0942
  527SOL    HW2 2366   0.939   2.490   1.439 -0.1487 -1.1141 -1.7018
  528SOL     OW 2367   1.640   1.251   3.000  0.1133 -0.5259 -0.4500
  528SOL    HW1 2368   1.717   1.250   3.057 -0.8425  1.1565  0.9452
  528SOL    HW2 2369   1.662   1.316   2.933  0.1333 -0.4866 -0.4052
  529SOL     OW 2370   1.465   2.420   2.996  0.4497  0.7326  0.2682
  529SOL    HW1 2371   1.549   2.375   3.009  1.2009  2.1618  0.5961
  529SOL    HW2 2372   1.420   2.412   3.080 -0.0853 -0.6319 -0.1093
  530SOL     OW 2373   1.443   0.187   0.435  0.3285 -0.6108  0.4347
  530SOL    HW1 2374   1.428   0.209   0.344  0.6370 -0.3640  0.4438
  530SOL    HW2 2375   1.534   0.213   0.452  0.3690 -0.9307  0.7264
  531SOL     OW 2376   1.439   2.966   3.049 -0.1430  0.2544  0.2095
  531SOL    HW1 2377   1.427   3.029   2.977  0.1124  1.0128  0.8120
  531SOL    HW2 2378   1.353   2.960   3.090 -0.2231  0.0303  0.0110
  532SOL     OW 2379   0.792   2.667   2.762  0.0357  0.3727  0.1517
  532SOL    HW1 2380   0.778   2.723   2.686 -0.6076 -0.4428 -0.3541
  532SOL    HW2 2381   0.730   2.699   2.827  1.0908  1.5422  0.6245
  533SOL     OW 2382   2.015   1.773   1.525  0.3205  0.0999 -0.0505
  533SOL    HW1 2383   1.982   1.751   1.612  1.1903  0.9403  0.5168
  533SOL    HW2 2384   1.975   1.858   1.505  1.6640  0.8788  0.4199
  534SOL     OW 2385   1.799   2.951   1.940  0.5774 -0.0556  0.7420
  534SOL    HW1 2386   1.801   2.858   1.963 -1.4049  0.2833  2.6745
  534SOL    HW2 2387   1.885   2.968   1.903  1.6057 -2.3107  1.8549
  535SOL     OW 2388   0.639   3.325   0.546 -0.7648  0.0004  0.1397
  535SOL    HW1 2389   0.548   3.297   0.551 -0.5841 -0.3930  3.8511
  535SOL    HW2 2390   0.682   3.282   0.620  2.4641  0.2537 -1.3828
  536SOL     OW 2391   0.502   2.943   1.663 -0.0086 -0.6334 -0.2854
  536SOL    HW1 2392   0.476   2.983   1.747 -0.2990  0.2868 -0.7975
  536SOL    HW2 2393   0.579   2.993   1.636 -0.6178 -0.1402 -1.1374
  537SOL     OW 2394   3.217   0.751   2.415 -0.5925 -0.0521  0.3293
  537SOL    HW1 2395   3.197   0.691   2.487  0.1497  0.1316  0.7125
  537SOL    HW2 2396   3.313   0.757   2.416 -0.6176  0.5248 -0.2027
  538SOL     OW 2397   1.259   3.025   1.505 -0.1749 -0.1390 -0.5062
  538SOL    HW1 2398   1.252   3.021   1.409  0.8706  0.4481 -0.6199
  538SOL    HW2 2399   1.284   3.116   1.523 -1.9401  0.2188  0.4480
  539SOL     OW 2400   2.643   0.573   0.494 -0.3871  0.4333 -0.4816
  539SOL    HW1 2401   2.690   0.607   0.418  0.2416 -1.1783 -0.8447
  539SOL    HW2 2402   2.668   0.631   0.566  0.2168  1.0536 -1.1785
  540SOL     OW 2403   1.548   1.329   1.580 -0.1992  0.4147  0.3842
  540SOL    HW1 2404   1.525   1.261   1.644  1.3373  0.6700  1.2592
  540SOL    HW2 2405   1.606   1.388   1.628  0.8249  0.7453 -1.1765
  541SOL     OW 2406   1.165   2.350   2.146 -0.0393  0.1201  0.3600
  541SOL    HW1 2407   1.112   2.421   2.181 -1.3682  0.0869 -1.4788
  541SOL    HW2 2408   1.255   2.384   2.147 -0.6772  1.9283 -0.6786
  542SOL     OW 2409   0.658   3.086   2.545  0.0466 -0.2547 -0.3862
  542SOL    HW1 2410   0.602   3.163   2.552  0.2487 -0.1368 -0.0639
  542SOL    HW2 2411   0.730   3.113   2.488 -0.1094 -0.3409 -0.6273
  543SOL     OW 2412   3.242   3.004   2.492 -0.4950 -0.1167  0.3581
  543SOL    HW1 2413   3.218   2.963   2.575 -3.3682 -0.2596 -0.4502
  543SOL    HW2 2414   3.248   2.931   2.430 -0.7646  0.2090 -0.0568
  544SOL     OW 2415   0.816   2.120   0.185  0.2289  0.0890 -0.2047
  544SOL    HW1 2416   0.848   2.082   0.267  0.5283  0.1052 -0.3105
  544SOL    HW2 2417   0.721   2.119   0.193  0.2536 -0.0332  0.0871
  545SOL     OW 2418   2.693   0.636   2.925  0.5442  0.1686  0.1816
  545SOL    HW1 2419   2.761   0.631   2.991 -0.6787 -0.8847  1.4393
  545SOL    HW2 2420   2.675   0.544   2.902 -1.8453  0.2544  1.4380
  546SOL     OW 2421   2.501   0.261   1.238  0.5361  0.2196 -0.5698
  546SOL    HW1 2422   2.537   0.201   1.174 -0.8529 -1.4221  0.1094
  546SOL    HW2 2423   2.429   0.305   1.192  0.8571  0.5855 -0.7333
  547SOL     OW 2424   0.323   2.565   1.602 -0.0216  0.6169  0.1991
  547SOL    HW1 2425   0.314   2.607   1.687 -0.2050  0.9659  0.0076
  547SOL    HW2 2426   0.416   2.573   1.581  0.7573 -2.3237  1.8352
  548SOL     OW 2427   1.112   0.471   1.358 -0.1695 -0.3229  0.5060
  548SOL    HW1 2428   1.190   0.449   1.408  1.4283  3.4710 -0.0547
  548SOL    HW2 2429   1.067   0.387   1.346  3.9282 -2.7531  0.5700
  549SOL     OW 2430   1.692   1.509   1.719 -0.4123 -0.2340 -0.9447
  549SOL    HW1 2431   1.637   1.554   1.783  1.9704  0.4865  0.7079
  549SOL    HW2 2432   1.724   1.431   1.766  0.5715 -0.2340 -1.5826
  550SOL     OW 2433   0.073   3.100   0.848  0.2329 -0.3455  0.1274
  550SOL    HW1 2434  -0.023   3.096   0.850  0.0658  0.8084 -1.9077
  550SOL    HW2 2435   0.095   3.085   0.756  1.7635  2.2663 -0.0357
  551SOL     OW 2436   1.142   0.616   0.753  0.3401 -0.4756  0.4875
  551SOL    HW1 2437   1.093   0.674   0.811  2.0747  0.9778  0.5944
  551SOL    HW2 2438   1.220   0.591   0.804  0.8983 -0.7938 -0.4930
  552SOL     OW 2439   3.174   1.811   1.116  0.6173 -0.1634  0.6644
  552SOL    HW1 2440   3.105   1.746   1.102  1.0942 -0.6302  0.4448
  552SOL    HW2 2441   3.227   1.807   1.037  1.8120 -0.9373  1.4703
  553SOL     OW 2442   1.796   2.668   0.014  0.2202  0.5446  0.3513
  553SOL    HW1 2443   1.712   2.663  -0.032  0.6337 -0.8782 -0.3252
  553SOL    HW2 2444   1.796   2.593   0.073  1.0762  0.4247  0.2173
  554SOL     OW 2445   2.186   2.939   1.390 -0.4413 -0.3377  0.5614
  554SOL    HW1 2446   2.258   2.955   1.450  0.9450 -0.0850 -1.0814
  554SOL    HW2 2447   2.162   2.847   1.405 -0.0603 -0.3074  1.3980
  555SOL     OW 2448   0.902   0.481   2.865  0.0878  0.1652  0.1903
  555SOL    HW1 2449   0.886   0.402   2.917  0.5339 -0.3362 -0.4229
  555SOL    HW2 2450   0.943   0.449   2.785  1.8762  1.1569  0.6461
  556SOL     OW 2451   0.517   0.030   0.942  0.4372 -0.2986  0.4135
  556SOL    HW1 2452   0.544   0.121   0.957 -0.5995  0.0295  0.3860
  556SOL    HW2 2453   0.598  -0.016   0.922  1.3239  0.1360  2.6352
  557SOL     OW 2454   3.064   1.735   0.757 -0.0474  0.2971 -0.4277
  557SOL    HW1 2455   2.979   1.738   0.801  0.1423 -0.1288 -0.0224
  557SOL    HW2 2456   3.056   1.661   0.696 -1.1178  2.2286 -2.8499
  558SOL     OW 2457   1.073   0.690   2.854  0.6935  0.1498 -0.3304
  558SOL    HW1 2458   1.032   0.603   2.858 -1.8067  1.2591  0.1206
  558SOL    HW2 2459   1.058   0.720   2.765  0.9554  0.3725 -0.3007
  559SOL     OW 2460   1.229   1.399   2.709  1.1241  0.0804  0.3996
  559SOL    HW1 2461   1.312   1.428   2.671  0.5111  1.3112 -0.0365
  559SOL    HW2 2462   1.249   1.314   2.748  1.8143 -1.2524 -2.5947
  560SOL     OW 2463   2.043   0.486   1.284  0.0925 -0.0928 -0.0520
  560SOL    HW1 2464   2.123   0.537   1.270  0.0991 -0.0658  0.0904
  560SOL    HW2 2465   2.032   0.483   1.379  0.5810 -1.0933 -0.0085
  561SOL     OW 2466   1.493   0.372   1.051 -0.2436 -0.0854 -0.0124
  561SOL    HW1 2467   1.532   0.315   0.985 -1.4148 -0.6428 -0.2474
  561SOL    HW2 2468   1.568   0.407   1.100  0.6242  0.0068 -1.3436
  562SOL     OW 2469   2.381   2.474   1.375 -0.3379  0.7293 -0.0602
  562SOL    HW1 2470   2.351   2.557   1.413  0.5044  1.3625 -0.7399
  562SOL    HW2 2471   2.424   2.499   1.293  1.6493 -0.1564  0.6560
  563SOL     OW 2472   0.795   3.129   3.330 -0.0870 -0.4186 -0.1980
  563SOL    HW1 2473   0.839   3.212   3.313  0.6124 -0.7421  0.0250
  563SOL    HW2 2474   0.842   3.092   3.404 -1.8924  0.0934  1.2891
  564SOL     OW 2475   1.710   2.420   0.150 -0.6062  0.0612  0.5112
  564SOL    HW1 2476   1.771   2.351   0.123 -0.1130  0.3568  0.8576
  564SOL    HW2 2477   1.633   2.373   0.181  0.1497 -0.3841  1.7773
  565SOL     OW 2478   0.943   3.216   2.792 -0.2772 -0.9418 -0.6101
  565SOL    HW1 2479   1.012   3.237   2.730 -0.3739  1.9410  0.1045
  565SOL    HW2 2480   0.946   3.121   2.801  2.6053 -1.0346 -1.6992
  566SOL     OW 2481   0.228   2.939   0.466 -0.5335 -0.4665 -0.3083
  566SOL    HW1 2482   0.261   2.885   0.394 -1.4305  0.0277 -1.1156
  566SOL    HW2 2483   0.153   2.986   0.429 -1.8026 -1.1321  1.3004
  567SOL     OW 2484   1.962   2.294   0.077  0.3196  0.6702  0.1248
  567SOL    HW1 2485   1.918   2.217   0.113  2.1133 -0.1822  0.6387
  567SOL    HW2 2486   1.982   2.348   0.154 -0.8594  1.6463 -0.2261
  568SOL     OW 2487   2.867   3.277   1.820 -0.0715  0.6715 -0.1199
  568SOL    HW1 2488   2.797   3.215   1.838 -0.7521  1.6472  0.7149
  568SOL    HW2 2489   2.824   3.362   1.812  0.5901  0.8257 -3.2540
  569SOL     OW 2490   0.632   0.170   2.961 -0.6121  0.1014 -0.2578
  569SOL    HW1 2491   0.616   0.236   2.893 -0.9034  0.1382 -0.1586
  569SOL    HW2 2492   0.721   0.139   2.944  0.0089  1.4249  0.4655
  570SOL     OW 2493   0.294   0.119   0.770 -0.2956 -0.0696  0.1810
  570SOL    HW1 2494   0.338   0.173   0.705 -0.0808 -1.4435 -0.8624
  570SOL    HW2 2495   0.365   0.078   0.819 -0.4381 -0.5261  0.0057
  571SOL     OW 2496   3.092   1.918   0.129 -0.1987  0.0660 -0.0746
  571SOL    HW1 2497   3.073   1.941   0.220 -0.9947  0.1639 -0.2539
  571SOL    HW2 2498   3.072   1.824   0.124 -0.1852  0.0670 -0.1508
  572SOL     OW 2499   3.109   0.395   3.035  0.1201  0.3337 -0.2312
  572SOL    HW1 2500   3.076   0.327   3.093 -0.7122  1.8277  1.1335
  572SOL    HW2 2501   3.060   0.383   2.953 -0.0366 -0.6661  0.0046
  573SOL     OW 2502   1.959   2.397   1.196 -0.2424 -0.4630 -0.3552
  573SOL    HW1 2503   2.050   2.370   1.187 -1.2223 -3.4068 -2.7730
  573SOL    HW2 2504   1.953   2.477   1.142  1.0413  0.3314  0.6088
  574SOL     OW 2505   3.303   2.288   1.619  0.9071 -0.0241 -0.5914
  574SOL    HW1 2506   3.324   2.200   1.587 -1.7153 -0.8570 -0.2688
  574SOL    HW2 2507   3.211   2.283   1.644  1.1948  2.3088  1.2843
  575SOL     OW 2508   2.420   2.498   1.954  0.2430 -0.3980  0.5692
  575SOL    HW1 2509   2.368   2.428   1.914 -0.2546  0.2569  0.0483
  575SOL    HW2 2510   2.480   2.452   2.013  1.2417 -1.4170 -1.1737
  576SOL     OW 2511   2.199   2.198   3.101  0.0831 -0.3601 -0.1340
  576SOL    HW1 2512   2.138   2.271   3.090  0.0301 -0.6801 -2.3837
  576SOL    HW2 2513   2.153   2.137   3.159 -0.2363  0.9466  1.0455
  577SOL     OW 2514   1.327   1.472   1.797  0.0926 -0.3481  0.3164
  577SOL    HW1 2515   1.265   1.545   1.803 -0.4766 -0.7830 -0.1147
  577SOL    HW2 2516   1.413   1.513   1.807 -0.3008  0.1154  2.0720
  578SOL     OW 2517   1.661   2.713   2.286  0.5402  0.1862 -0.6417
  578SOL    HW1 2518   1.652   2.686   2.378 -0.5329 -0.1043 -0.8095
  578SOL    HW2 2519   1.755   2.716   2.271  0.8165 -3.2046 -0.5049
  579SOL     OW 2520   1.964   0.194   1.829 -0.0023  0.0063 -0.7081
  579SOL    HW1 2521   2.059   0.193   1.824  0.1331  1.3560  0.9049
  579SOL    HW2 2522   1.942   0.138   1.903 -0.3131  1.2201  0.1515
  580SOL     OW 2523   1.886   1.984   1.396 -0.2498  0.0672  0.5144
  580SOL    HW1 2524   1.819   1.945   1.340 -2.7491  0.9604  2.6814
  580SOL    HW2 2525   1.845   2.062   1.434  1.2030 -0.4781  3.5962
  581SOL     OW 2526   1.171   0.457   0.262 -0.1421  0.0258  0.0626
  581SOL    HW1 2527   1.170   0.542   0.219 -1.2990 -0.1434 -0.2693
  581SOL    HW2 2528   1.175   0.477   0.356 -0.8866  0.4576  0.0065
  582SOL     OW 2529   1.102   2.550   0.971 -0.0912 -0.2780  0.0094
  582SOL    HW1 2530   1.080   2.640   0.949  0.0639 -0.6516 -1.8737
  582SOL    HW2 2531   1.196   2.551   0.988  0.6179 -0.5445 -3.2233
  583SOL     OW 2532   1.404   0.757   1.594  0.1788  0.4139  0.5238
  583SOL    HW1 2533   1.384   0.843   1.632  0.7481  0.2769  1.1623
  583SOL    HW2 2534   1.472   0.776   1.529 -0.6013  0.6107 -0.2595
  584SOL     OW 2535   0.808   3.238   3.026  0.5197 -0.0715 -0.6073
  584SOL    HW1 2536   0.852   3.237   2.941  2.8569  1.9708  0.4838
  584SOL    HW2 2537   0.845   3.313   3.072 -1.6656 -0.3007  1.7456
  585SOL     OW 2538   0.407   0.160   0.064 -0.4045  0.0018  0.5693
  585SOL    HW1 2539   0.329   0.136   0.113 -1.6455  0.8396 -0.8817
  585SOL    HW2 2540   0.481   0.135   0.120 -1.7128  0.5126  2.6181
  586SOL     OW 2541   1.673   0.052   1.750 -0.0286 -0.7538 -0.4065
  586SOL    HW1 2542   1.579   0.061   1.733  0.0135 -0.9356 -0.7464
  586SOL    HW2 2543   1.682  -0.035   1.789  0.0722 -0.9788 -0.9298
  587SOL     OW 2544   1.838   0.599   1.599 -0.4228  0.2915 -0.3812
  587SOL    HW1 2545   1.796   0.522   1.637 -2.1468  0.8304 -1.0983
  587SOL    HW2 2546   1.931   0.589   1.621 -0.7109 -1.6105  0.1519
  588SOL     OW 2547   1.521   2.680   3.304  0.2473 -0.0009 -0.2475
  588SOL    HW1 2548   1.436   2.696   3.345  0.0301  0.5541 -0.8980
  588SOL    HW2 2549   1.541   2.762   3.258  0.2380 -0.7901 -1.6848
  589SOL     OW 2550   1.191   3.345   2.123  0.4285  0.7434  0.1334
  589SOL    HW1 2551   1.125   3.364   2.056  0.3466 -0.2591 -0.0802
  589SOL    HW2 2552   1.269   3.320   2.074  1.1101  2.2934  0.3771
  590SOL     OW 2553   1.103   1.778   2.759 -0.3897 -0.2036  0.3369
  590SOL    HW1 2554   1.051   1.703   2.732 -1.9591  0.5541  1.1195
  590SOL    HW2 2555   1.046   1.854   2.745  1.2803  0.9155 -0.7897
  591SOL     OW 2556   1.018   2.400   2.538  0.6146  0.3271  0.1283
  591SOL    HW1 2557   1.111   2.395   2.517  0.9458 -1.6941  1.7378
  591SOL    HW2 2558   1.010   2.475   2.597  1.3006  0.2708  0.2985
  592SOL     OW 2559   0.699   0.438   2.203  0.2801  0.4108  0.0533
  592SOL    HW1 2560   0.622   0.494   2.194 -1.0702 -1.4363 -0.3861
  592SOL    HW2 2561   0.752   0.457   2.126  0.3205  1.7130  0.3699
  593SOL     OW 2562   0.893   2.718   0.593 -0.5468  0.2944  0.4656
  593SOL    HW1 2563   0.931   2.665   0.662 -0.2921  1.0371  0.9079
  593SOL    HW2 2564   0.944   2.798   0.593 -0.6982  0.4036 -0.4287
  594SOL     OW 2565   1.441   2.095   2.992 -0.8781 -0.4018  0.3305
  594SOL    HW1 2566   1.408   2.109   2.903  2.1435  1.5233 -0.6339
  594SOL    HW2 2567   1.532   2.124   2.989 -0.4119 -1.0070  3.9045
  595SOL     OW 2568   2.886   2.426   3.278 -0.3398  0.1387 -0.0611
  595SOL    HW1 2569   2.807   2.371   3.283 -0.5220  0.4921  1.4446
  595SOL    HW2 2570   2.954   2.368   3.245 -0.6341 -0.8968  1.0926
  596SOL     OW 2571   1.990   2.355   3.165  0.1724  0.0829  0.1808
  596SOL    HW1 2572   1.899   2.356   3.134  0.2955  0.4106 -0.1789
  596SOL    HW2 2573   1.983   2.332   3.257 -0.4731  2.2908  0.7420
  597SOL     OW 2574   2.355   1.703   0.875 -0.1993 -0.8208  0.3894
  597SOL    HW1 2575   2.330   1.679   0.964  1.5946 -2.0246  0.6157
  597SOL    HW2 2576   2.385   1.622   0.835 -4.1771 -1.1603 -2.5900
  598SOL     OW 2577   2.202   2.279   1.206  0.2595  0.0079  0.2409
  598SOL    HW1 2578   2.297   2.289   1.218  0.3373 -1.3925  0.9380
  598SOL    HW2 2579   2.173   2.235   1.286 -1.0681  0.8324  0.2381
  599SOL     OW 2580   1.421   2.827   2.379 -0.4268  0.1866 -0.4409
  599SOL    HW1 2581   1.454   2.897   2.435 -0.2135 -2.5314  3.2962
  599SOL    HW2 2582   1.499   2.780   2.350 -0.5590 -1.4440  1.5547
  600SOL     OW 2583   2.335   2.241   2.120  0.3061 -0.2277  0.0265
  600SOL    HW1 2584   2.335   2.216   2.028  1.2941 -1.3304  0.3022
  600SOL    HW2 2585   2.425   2.266   2.138  0.4553 -1.3941  1.0248
  601SOL     OW 2586   1.969   2.086   1.713 -0.1012  0.2462  0.4018
  601SOL    HW1 2587   1.912   2.116   1.643  1.3218 -0.1126 -0.9660
  601SOL    HW2 2588   1.916   2.023   1.762 -0.6452 -0.6826 -1.3082
  602SOL     OW 2589   2.107   2.167   2.787  0.3360 -0.2110 -0.0474
  602SOL    HW1 2590   2.101   2.074   2.765 -1.0774  0.0349 -0.8152
  602SOL    HW2 2591   2.200   2.181   2.808  0.6505 -1.6858 -0.3486
  603SOL     OW 2592   1.266   0.053   2.852 -0.2328 -0.5973  0.9864
  603SOL    HW1 2593   1.285  -0.039   2.870 -0.5295 -0.4205  2.2274
  603SOL    HW2 2594   1.211   0.051   2.774 -3.4471 -1.7572  3.1230
  604SOL     OW 2595   2.030   2.888   2.151  0.5092  0.2451 -0.3787
  604SOL    HW1 2596   1.994   2.968   2.113 -3.0673 -1.4141 -0.8600
  604SOL    HW2 2597   2.056   2.835   2.076  0.1880 -0.1724 -0.1990
  605SOL     OW 2598   0.908   0.275   3.027  0.3504 -0.2539 -0.4324
  605SOL    HW1 2599   0.845   0.261   3.098  0.0375  2.0883 -0.1627
  605SOL    HW2 2600   0.993   0.277   3.071  0.2369  0.3699 -0.2375
  606SOL     OW 2601   2.902   2.139   0.587  0.0086  0.2301 -0.7211
  606SOL    HW1 2602   2.839   2.076   0.551 -0.3103  0.7785 -1.1302
  606SOL    HW2 2603   2.894   2.129   0.682 -1.8255  1.3819 -0.7083
  607SOL     OW 2604   1.142   2.499   3.219  0.5582  0.0565  0.3073
  607SOL    HW1 2605   1.170   2.408   3.213 -0.5367 -0.3283  0.7896
  607SOL    HW2 2606   1.198   2.546   3.157  0.6372 -1.0632 -0.4970
  608SOL     OW 2607   0.912   2.020   0.410  0.0429 -0.1469  0.0846
  608SOL    HW1 2608   0.889   2.045   0.500 -0.5565  0.6234 -0.2754
  608SOL    HW2 2609   0.930   1.926   0.416  2.9887  0.3793  1.6073
  609SOL     OW 2610   3.164   3.262   1.551  0.3736  0.2641 -0.1844
  609SOL    HW1 2611   3.101   3.254   1.479 -1.1605  1.5400  0.9362
  609SOL    HW2 2612   3.249   3.266   1.508 -0.4558  0.4839 -1.8996
  610SOL     OW 2613   1.453   0.212   3.234 -0.3012  0.0563 -0.2999
  610SOL    HW1 2614   1.473   0.306   3.237 -1.1444  0.2328  1.6281
  610SOL    HW2 2615   1.536   0.170   3.215  0.3086  1.1370 -0.0950
  611SOL     OW 2616   1.319   0.952   1.743  0.1502  0.2663  0.3350
  611SOL    HW1 2617   1.325   1.040   1.706  2.6245  0.5939  1.3634
  611SOL    HW2 2618   1.293   0.966   1.834  0.0593 -0.1180  0.3708
  612SOL     OW 2619   1.448   0.029   2.517 -0.0044 -0.6114  0.3780
  612SOL    HW1 2620   1.359   0.063   2.501 -0.5895 -2.3353 -0.2110
  612SOL    HW2 2621   1.436  -0.040   2.582  0.9921 -0.5016  0.6863
  613SOL     OW 2622   1.406   2.191   0.962  0.4455 -0.3414 -0.1678
  613SOL    HW1 2623   1.394   2.108   1.008 -2.4294  0.2425  0.3250
  613SOL    HW2 2624   1.421   2.255   1.032 -0.5374  0.0203 -0.2746
  614SOL     OW 2625   0.926   1.968   2.668  0.2036  0.4962 -0.2988
  614SOL    HW1 2626   0.899   2.058   2.687  0.9260  0.9363 -1.2994
  614SOL    HW2 2627   0.848   1.927   2.631  0.0564  0.9043 -0.4524
  615SOL     OW 2628   1.351   1.507   0.650  0.3961  0.5199  0.3639
  615SOL    HW1 2629   1.337   1.493   0.744 -1.1339  1.8640  0.3894
  615SOL    HW2 2630   1.314   1.594   0.634  0.0872  0.0569 -1.5976
  616SOL     OW 2631   1.614   2.966   3.317  0.2160  0.1912  0.3083
  616SOL    HW1 2632   1.580   3.054   3.299 -1.5737 -0.3488  0.8863
  616SOL    HW2 2633   1.648   2.936   3.233 -0.4808  0.8852 -0.2347
  617SOL     OW 2634   0.123   0.469   2.798  0.3823 -0.6297 -0.5265
  617SOL    HW1 2635   0.172   0.407   2.853  1.3511 -0.1407 -0.8164
  617SOL    HW2 2636   0.158   0.455   2.710 -0.3975 -0.6492 -0.8394
  618SOL     OW 2637   0.262   0.456   3.207 -0.4415 -0.6130  0.2624
  618SOL    HW1 2638   0.302   0.542   3.224 -1.7620  0.1823 -0.4582
  618SOL    HW2 2639   0.335   0.400   3.182  0.2090  0.8776 -1.3731
  619SOL     OW 2640   2.018   2.541   1.789 -0.1011 -0.1780 -0.6658
  619SOL    HW1 2641   2.110   2.567   1.780  0.1293 -1.5275 -3.2806
  619SOL    HW2 2642   2.022   2.453   1.827 -0.3076 -0.1244 -0.5239
  620SOL     OW 2643   0.899   2.213   3.295 -0.0641 -0.0026 -0.1611
  620SOL    HW1 2644   0.886   2.187   3.386 -0.7420 -0.5592 -0.4109
  620SOL    HW2 2645   0.991   2.192   3.277 -0.1233 -0.5500  0.1757
  621SOL     OW 2646   0.346   3.283   0.463 -0.7460  0.5577  0.3404
  621SOL    HW1 2647   0.332   3.359   0.406 -1.7151  1.5274  1.8157
  621SOL    HW2 2648   0.268   3.278   0.517 -0.8797 -1.7621  0.0381
  622SOL     OW 2649   2.013   0.099   3.018  0.5400  0.7321  0.3142
  622SOL    HW1 2650   2.088   0.040   3.016  0.4309  0.6094 -0.3505
  622SOL    HW2 2651   1.974   0.092   2.931 -1.4309 -0.7161  1.2329
  623SOL     OW 2652   1.168   0.603   1.139 -0.6765 -0.5290 -0.2747
  623SOL    HW1 2653   1.131   0.545   1.205  0.2628 -0.6808  0.1389
  623SOL    HW2 2654   1.167   0.690   1.179 -1.5434 -0.3503 -0.6690
  624SOL     OW 2655   0.629   2.761   2.964 -0.2753  0.1309  0.1365
  624SOL    HW1 2656   0.619   2.837   2.906  0.6290  0.4513  0.3675
  624SOL    HW2 2657   0.647   2.800   3.050 -1.7939 -0.3330  0.6848
  625SOL     OW 2658   1.087   2.911   2.473  0.1483  0.6604 -0.3258
  625SOL    HW1 2659   1.134   2.873   2.399  1.6047 -0.6116  1.1472
  625SOL    HW2 2660   1.129   2.871   2.550 -2.0693  1.0236  1.1510
  626SOL     OW 2661   3.065   2.146   3.106  0.0516  0.0765  0.1712
  626SOL    HW1 2662   2.975   2.177   3.105  0.3233  0.9110 -0.9732
  626SOL    HW2 2663   3.067   2.076   3.041  0.2745  0.2570 -0.0221
  627SOL     OW 2664   1.481   2.400   3.267 -0.0131 -0.0680  0.0816
  627SOL    HW1 2665   1.481   2.351   3.349  1.5032 -1.7383 -0.8661
  627SOL    HW2 2666   1.496   2.491   3.294 -0.2002 -0.4894  1.6899
  628SOL     OW 2667   1.006   2.542   1.954 -0.2333  0.3848  0.2577
  628SOL    HW1 2668   0.991   2.545   2.048 -0.2598  1.1384  0.2339
  628SOL    HW2 2669   1.099   2.563   1.944 -0.3291  0.7457  0.0940
  629SOL     OW 2670   0.265   0.057   2.656  0.0044  0.2861 -0.1218
  629SOL    HW1 2671   0.205  -0.013   2.630 -2.8381  1.7603  1.9292
  629SOL    HW2 2672   0.306   0.025   2.736  1.3488 -0.3691 -1.0510
  630SOL     OW 2673   2.769   2.984   2.840  0.2346 -0.1192  0.1701
  630SOL    HW1 2674   2.855   2.970   2.880 -0.0108  2.0098  1.5978
  630SOL    HW2 2675   2.707   2.966   2.910 -0.4043 -0.1231 -0.3943
  631SOL     OW 2676   2.559   2.056   3.283 -0.1797 -0.2200 -0.1745
  631SOL    HW1 2677   2.611   2.005   3.345 -1.4956  0.6276  1.7090
  631SOL    HW2 2678   2.615   2.129   3.258  0.2584 -0.4042  0.2706
  632SOL     OW 2679   2.514   1.327   1.105  0.2716  0.5026  0.2141
  632SOL    HW1 2680   2.580   1.283   1.159 -0.0981  0.1206  0.3598
  632SOL    HW2 2681   2.528   1.420   1.121 -0.1105  0.3907  1.3099
  633SOL     OW 2682   0.659   1.880   2.654 -0.0989  0.4522  0.0345
  633SOL    HW1 2683   0.621   1.902   2.739 -1.3483  0.9570 -0.6186
  633SOL    HW2 2684   0.617   1.798   2.630  0.7311 -0.0240  0.1761
  634SOL     OW 2685   2.700   0.038   3.010  0.2971 -0.0708 -0.2813
  634SOL    HW1 2686   2.633   0.070   2.950  0.8748  1.3101 -0.2351
  634SOL    HW2 2687   2.767  -0.001   2.954 -0.3482 -1.1267 -0.3475
  635SOL     OW 2688   2.053   0.387   1.617  0.3383 -0.1388  0.1762
  635SOL    HW1 2689   2.041   0.314   1.556  0.2795 -0.1981  0.2583
  635SOL    HW2 2690   1.979   0.380   1.677 -0.0464  0.3983 -0.2305
  636SOL     OW 2691   2.597   0.195   2.057 -0.7343 -0.0507  0.1401
  636SOL    HW1 2692   2.588   0.285   2.088  1.6310  0.2462  0.1342
  636SOL    HW2 2693   2.648   0.151   2.125  0.2631 -0.6938 -0.9857
  637SOL     OW 2694   0.960   1.055   2.826  0.0187 -0.0518 -0.2628
  637SOL    HW1 2695   0.953   1.104   2.908  1.0709 -2.6725  1.5020
  637SOL    HW2 2696   1.033   0.996   2.839  0.6230 -0.1631 -3.3839
  638SOL     OW 2697   1.102   2.221   0.383 -0.0807  0.0329 -0.3546
  638SOL    HW1 2698   1.070   2.132   0.400 -0.0850 -0.0073 -0.5654
  638SOL    HW2 2699   1.097   2.265   0.468  2.8688 -1.0498  0.4898
  639SOL     OW 2700   0.313   2.854   2.496 -0.6102  0.1891  0.3956
  639SOL    HW1 2701   0.220   2.858   2.520 -0.7737  2.0991 -0.3471
  639SOL    HW2 2702   0.354   2.925   2.547 -0.0833  1.1082 -1.2280
  640SOL     OW 2703   2.050   2.342   2.177  0.6259  0.4577  0.1409
  640SOL    HW1 2704   2.054   2.359   2.083  1.8614  1.2351  0.3125
  640SOL    HW2 2705   2.142   2.335   2.204  0.2696 -0.7745  1.1141
  641SOL     OW 2706   1.817   2.024   2.688  0.1420  0.4597  0.0059
  641SOL    HW1 2707   1.758   2.028   2.763 -0.9732 -2.0020 -0.6441
  641SOL    HW2 2708   1.777   2.080   2.622 -0.8995 -0.2746 -0.0161
  642SOL     OW 2709   2.427   3.148   1.125 -0.5987  0.6946 -0.6589
  642SOL    HW1 2710   2.494   3.163   1.192 -0.0849  1.8936 -1.4076
  642SOL    HW2 2711   2.381   3.232   1.119  0.8018  1.3716 -3.3345
  643SOL     OW 2712   0.045   0.160   2.962  0.4498 -0.0336  0.1096
  643SOL    HW1 2713   0.119   0.218   2.947  0.4762 -0.0146  0.3247
  643SOL    HW2 2714   0.032   0.159   3.056  0.2917 -0.1810  0.0886
  644SOL     OW 2715   2.119   0.546   1.929 -0.3110 -0.4025  0.6535
  644SOL    HW1 2716   2.039   0.550   1.980  0.6348  0.0862  2.1729
  644SOL    HW2 2717   2.102   0.601   1.852 -0.9526  0.8570  1.6633
  645SOL     OW 2718   1.104   2.251   1.061 -0.0495  0.2387 -0.2184
  645SOL    HW1 2719   1.118   2.341   1.030  3.2070 -0.1004 -0.1018
  645SOL    HW2 2720   1.087   2.201   0.981 -0.0331  0.6930 -0.5110
  646SOL     OW 2721   0.021   2.805   3.102  0.1201 -0.3228  0.4583
  646SOL    HW1 2722   0.066   2.874   3.054 -0.6898 -0.3796 -0.4063
  646SOL    HW2 2723   0.080   2.730   3.097  0.4574 -0.0548  0.3584
  647SOL     OW 2724   1.753   0.359   1.698  0.1712 -0.4776  0.4465
  647SOL    HW1 2725   1.808   0.285   1.725 -0.3321 -2.1106 -2.5396
  647SOL    HW2 2726   1.668   0.343   1.739  0.8834  0.1873  2.2862
  648SOL     OW 2727   0.978   1.559   2.676  0.6464 -0.1492  0.0718
  648SOL    HW1 2728   1.065   1.520   2.678  0.2099 -1.2949 -1.5385
  648SOL    HW2 2729   0.918   1.484   2.677 -0.3364  0.6129  1.0371
  649SOL     OW 2730   1.342   0.813   0.844  0.0380 -1.0150  0.3695
  649SOL    HW1 2731   1.364   0.729   0.884  2.2320 -1.3364 -1.3285
  649SOL    HW2 2732   1.418   0.835   0.791 -0.9015  1.5745 -0.0397
  650SOL     OW 2733   0.006   1.941   1.270 -0.3918 -0.1246  0.3634
  650SOL    HW1 2734   0.075   1.880   1.244  0.3644  0.4778  0.9150
  650SOL    HW2 2735  -0.071   1.912   1.221 -0.2470 -1.9379  1.1326
  651SOL     OW 2736   2.678   3.120   1.922  0.0644  0.0372 -0.6423
  651SOL    HW1 2737   2.582   3.126   1.924 -0.1812 -2.5157 -1.1317
  651SOL    HW2 2738   2.701   3.073   2.001  0.8695  0.0678 -0.8506
  652SOL     OW 2739   3.098   3.274   2.421 -0.4828 -0.0091 -0.0740
  652SOL    HW1 2740   3.132   3.203   2.475 -0.3574 -1.4055 -1.8863
  652SOL    HW2 2741   3.166   3.290   2.356 -0.6891  1.5134  0.0505
  653SOL     OW 2742   1.110   1.172   0.408 -0.3560 -0.2503  0.2436
  653SOL    HW1 2743   1.043   1.138   0.467  0.3372 -0.3587  0.9750
  653SOL    HW2 2744   1.111   1.266   0.425  1.1967 -0.5020  1.8688
  654SOL     OW 2745   1.869   0.212   1.389 -0.4077  0.3738 -0.0634
  654SOL    HW1 2746   1.837   0.282   1.333 -1.1381  0.2285  0.1655
  654SOL    HW2 2747   1.957   0.192   1.356 -0.1231  1.5084 -0.0303
  655SOL     OW 2748   2.295   1.977   1.221  0.3465  0.0017 -0.0563
  655SOL    HW1 2749   2.324   2.043   1.158 -0.3440  0.1104 -0.2699
  655SOL    HW2 2750   2.244   2.026   1.285 -1.0195 -0.4433 -0.7606
  656SOL     OW 2751   2.096   3.171   0.130 -0.2137 -0.0785  0.1161
  656SOL    HW1 2752   2.052   3.091   0.099 -1.0758 -0.0096  1.1239
  656SOL    HW2 2753   2.024   3.230   0.154  0.4258  0.7537  0.0141
  657SOL     OW 2754   1.710   3.326   2.579  0.0075 -0.1174 -0.1605
  657SOL    HW1 2755   1.630   3.365   2.544  1.7682  2.6790 -1.4662
  657SOL    HW2 2756   1.765   3.313   2.501  1.6950  0.2969  0.9196
  658SOL     OW 2757   3.215   0.582   2.165  0.7634  0.3462 -0.3310
  658SOL    HW1 2758   3.291   0.541   2.206  0.0879  0.6569  1.3147
  658SOL    HW2 2759   3.169   0.624   2.238 -0.6855  0.6391 -1.3820
  659SOL     OW 2760   1.363   0.892   0.502 -0.6881  0.1242 -0.4479
  659SOL    HW1 2761   1.444   0.855   0.539 -0.2086 -1.6318 -2.9864
  659SOL    HW2 2762   1.394   0.960   0.442 -1.0759 -0.3234 -1.1695
  660SOL     OW 2763   1.903   0.655   2.065  0.0962 -0.5393 -0.6925
  660SOL    HW1 2764   1.836   0.679   2.001  1.8544  0.8855 -2.1195
  660SOL    HW2 2765   1.899   0.724   2.131 -0.7398 -1.2191 -0.0086
  661SOL     OW 2766   0.958   1.016   0.607 -0.3280 -0.4108 -0.2465
  661SOL    HW1 2767   0.884   1.010   0.548 -1.4671 -0.8548  1.1602
  661SOL    HW2 2768   1.012   0.940   0.586 -0.2990 -0.1352 -1.2167
  662SOL     OW 2769   1.440   1.229   0.725  0.0996  0.3084  0.0315
  662SOL    HW1 2770   1.364   1.171   0.724  1.5999 -1.7755 -0.3101
  662SOL    HW2 2771   1.403   1.317   0.731 -2.3184 -0.6098 -0.2364
  663SOL     OW 2772   3.047   0.491   0.517 -0.2664 -0.0502  0.0373
  663SOL    HW1 2773   3.058   0.569   0.571  1.0998 -0.8200  0.9652
  663SOL    HW2 2774   3.006   0.427   0.576  1.3471 -0.9395  0.2633
  664SOL     OW 2775   0.658   2.134   3.178  0.0995  0.4857 -0.0909
  664SOL    HW1 2776   0.689   2.069   3.115 -0.4419  0.9154 -0.8093
  664SOL    HW2 2777   0.736   2.160   3.227  0.1216 -1.7364  1.1962
  665SOL     OW 2778   2.027   1.733   2.844 -0.4571  0.1621 -0.3196
  665SOL    HW1 2779   2.033   1.679   2.922 -2.8851  1.5940  0.9545
  665SOL    HW2 2780   2.029   1.670   2.771  0.8942 -1.2580  0.8739
  666SOL     OW 2781   2.055   0.314   0.365 -0.5577 -0.4146  0.3851
  666SOL    HW1 2782   1.976   0.307   0.419 -0.9314 -1.6377 -0.2986
  666SOL    HW2 2783   2.049   0.241   0.303 -0.1611  0.9786 -1.3689
  667SOL     OW 2784   1.472   0.414   1.986  0.7107  0.2074 -0.0417
  667SOL    HW1 2785   1.488   0.504   2.015 -0.2750  0.2830  0.3130
  667SOL    HW2 2786   1.452   0.366   2.067  1.8540 -0.4787 -0.1483
  668SOL     OW 2787   1.432   3.162   0.939 -0.1091 -1.0799 -0.6964
  668SOL    HW1 2788   1.521   3.153   0.974 -0.0347 -1.3440 -0.9459
  668SOL    HW2 2789   1.391   3.077   0.953 -0.3161 -0.9665 -0.6060
  669SOL     OW 2790   2.846   1.367   2.990  0.5249  0.2397 -0.4331
  669SOL    HW1 2791   2.901   1.291   3.009  0.2978 -0.0485 -0.9199
  669SOL    HW2 2792   2.759   1.331   2.975 -0.5388  0.8859  3.1643
  670SOL     OW 2793   2.165   0.838   1.465 -0.6798  0.4901  0.0169
  670SOL    HW1 2794   2.111   0.826   1.386  0.2308  1.9452 -0.8767
  670SOL    HW2 2795   2.242   0.884   1.433 -0.3110  1.1530  1.7980
  671SOL     OW 2796   2.001   0.060   0.246  0.0605 -0.9946 -0.3563
  671SOL    HW1 2797   2.046   0.094   0.168  0.3472 -0.9442 -0.1720
  671SOL    HW2 2798   2.072   0.043   0.308 -0.3568  2.0533  1.1372
  672SOL     OW 2799   2.465   2.963   2.593 -0.2487 -0.1503 -0.1556
  672SOL    HW1 2800   2.548   3.009   2.583 -0.7179  0.6904 -0.2980
  672SOL    HW2 2801   2.424   3.003   2.669 -0.9408  0.1095 -0.6530
  673SOL     OW 2802   1.992   2.126   2.345  0.0061  0.5844  0.3396
  673SOL    HW1 2803   2.029   2.205   2.306  0.7204  1.1236  2.0432
  673SOL    HW2 2804   1.948   2.156   2.424 -4.7357  0.1218 -1.7345
  674SOL     OW 2805   2.279   2.553   1.715  0.1280  0.1629 -0.0976
  674SOL    HW1 2806   2.324   2.635   1.735  0.8200 -0.0305 -0.7799
  674SOL    HW2 2807   2.350   2.489   1.707 -0.3622 -0.3857 -0.0951
  675SOL     OW 2808   1.726   2.273   0.426  0.2984  0.2498  0.1954
  675SOL    HW1 2809   1.697   2.200   0.371 -0.5369  1.1526 -0.6105
  675SOL    HW2 2810   1.650   2.295   0.479 -0.3607  2.1966 -1.4411
  676SOL     OW 2811   1.525   2.641   2.041  0.2988 -0.0149  0.1234
  676SOL    HW1 2812   1.540   2.702   2.113  0.7412 -1.0274  0.9174
  676SOL    HW2 2813   1.612   2.629   2.001  0.5473 -1.3191  0.9836
  677SOL     OW 2814   1.436   2.722   1.358 -0.5297  0.1006  0.4180
  677SOL    HW1 2815   1.532   2.713   1.361 -0.4926  0.5392  0.6403
  677SOL    HW2 2816   1.414   2.706   1.266 -0.4772 -2.1509  0.7235
  678SOL     OW 2817   0.887   2.818   1.558  0.0673 -0.3313  0.0505
  678SOL    HW1 2818   0.914   2.779   1.476 -3.3533  0.9321 -1.8570
  678SOL    HW2 2819   0.870   2.744   1.616  2.8650 -1.2300 -0.1556
  679SOL     OW 2820   1.870   1.638   2.077 -0.0383 -0.9147 -0.4012
  679SOL    HW1 2821   1.913   1.592   2.149 -1.0357  0.0295  0.8601
  679SOL    HW2 2822   1.937   1.698   2.043 -0.1656  0.2673  1.2846
  680SOL     OW 2823   1.003   2.563   2.222  0.1957  0.3009 -0.2023
  680SOL    HW1 2824   0.925   2.594   2.269  0.0349  0.2083 -0.4059
  680SOL    HW2 2825   1.076   2.605   2.267  0.0802 -0.1701  0.4389
  681SOL     OW 2826   2.741   0.794   0.618 -0.2055  0.1129 -0.3906
  681SOL    HW1 2827   2.727   0.863   0.554  0.6867  0.0648 -0.6503
  681SOL    HW2 2828   2.695   0.824   0.697  0.6750  1.3046 -0.2959
  682SOL     OW 2829   3.348   2.866   0.626 -0.3123  0.1044  0.0376
  682SOL    HW1 2830   3.430   2.873   0.577 -0.9806  0.5810 -1.0790
  682SOL    HW2 2831   3.373   2.834   0.712  1.2478  1.7786  0.2642
  683SOL     OW 2832   0.859   2.238   2.672 -0.5569  0.0857  0.3674
  683SOL    HW1 2833   0.915   2.283   2.608  0.0319 -3.1037 -1.5887
  683SOL    HW2 2834   0.854   2.299   2.746  3.0061  1.8397 -0.5784
  684SOL     OW 2835   2.411   1.490   1.565 -0.5557  0.0613  0.2484
  684SOL    HW1 2836   2.368   1.574   1.552 -1.0154  0.1636  2.1494
  684SOL    HW2 2837   2.416   1.480   1.660 -1.4875 -2.5426  0.0996
  685SOL     OW 2838   2.960   1.032   0.958 -0.7216 -0.1272 -0.2852
  685SOL    HW1 2839   2.942   1.074   1.042  0.9252 -0.6634  0.3820
  685SOL    HW2 2840   2.939   0.940   0.971 -0.4054 -0.2240 -0.4378
  686SOL     OW 2841   3.086   1.079   0.717 -0.2346  0.1403  0.1841
  686SOL    HW1 2842   3.061   1.059   0.807  1.9593  0.3991  0.9138
  686SOL    HW2 2843   3.033   1.156   0.694 -0.6900  0.1823  1.3137
  687SOL     OW 2844   2.223   0.124   1.852 -0.0879 -0.3630  0.4529
  687SOL    HW1 2845   2.256   0.136   1.941  0.7117 -0.3232  0.1629
  687SOL    HW2 2846   2.298   0.089   1.803 -1.3365 -3.2098  0.4392
  688SOL     OW 2847   3.215   2.125   0.572  0.3146 -0.3052  0.0833
  688SOL    HW1 2848   3.221   2.030   0.563 -0.2705 -0.2644 -0.9726
  688SOL    HW2 2849   3.125   2.146   0.545  0.3130  0.5060  0.6872
  689SOL     OW 2850   0.099   2.731   0.822  0.4131 -0.0109  0.6010
  689SOL    HW1 2851   0.115   2.637   0.815  1.4709  0.1998  0.1276
  689SOL    HW2 2852   0.061   2.742   0.910  0.0085 -0.9013  0.5501
  690SOL     OW 2853   2.462   2.123   0.910  0.3850  0.0397  0.1852
  690SOL    HW1 2854   2.487   2.135   0.818 -1.5254  0.8596 -0.2808
  690SOL    HW2 2855   2.516   2.050   0.940  3.4870  1.8726 -0.5599
  691SOL     OW 2856   2.649   1.143   0.851  0.4115  0.0921 -0.0041
  691SOL    HW1 2857   2.731   1.121   0.809 -0.7286 -0.8633 -1.8635
  691SOL    HW2 2858   2.669   1.219   0.906  2.3874  0.2221 -0.8476
  692SOL     OW 2859   1.069   1.666   3.351  0.3578  0.2827 -0.4012
  692SOL    HW1 2860   1.159   1.673   3.318 -0.0312  2.6872 -1.1531
  692SOL    HW2 2861   1.023   1.618   3.282  0.8903 -0.2950 -0.3697
  693SOL     OW 2862   1.948   2.464   1.545  0.0546  0.1315 -0.5495
  693SOL    HW1 2863   2.011   2.466   1.617 -0.4246 -0.8696 -0.0890
  693SOL    HW2 2864   1.866   2.496   1.583 -0.5888 -1.7562 -0.2118
  694SOL     OW 2865   3.319   2.717   1.056  0.4669  0.4750 -0.0657
  694SOL    HW1 2866   3.358   2.676   1.134  1.5133 -1.9788 -1.7254
  694SOL    HW2 2867   3.263   2.649   1.020 -0.2444  1.6747 -1.2906
  695SOL     OW 2868   0.009   2.781   0.229  0.3032 -0.0144 -0.6442
  695SOL    HW1 2869  -0.009   2.871   0.255 -1.0031 -0.2404 -0.6774
  695SOL    HW2 2870  -0.065   2.757   0.172 -0.3482 -1.6881  0.8100
  696SOL     OW 2871   1.366   3.137   2.646 -0.0462  0.1741 -0.4556
  696SOL    HW1 2872   1.303   3.124   2.575  1.8047  0.5636 -2.2628
  696SOL    HW2 2873   1.443   3.087   2.619  0.3032 -0.6981  1.9270
  697SOL     OW 2874   1.518   0.538   1.294  0.4410  0.2388  0.7139
  697SOL    HW1 2875   1.438   0.503   1.334 -0.5888  0.1584 -1.2370
  697SOL    HW2 2876   1.497   0.629   1.274  0.7783  0.1908  0.1003
  698SOL     OW 2877   2.856   3.120   2.296 -0.0741 -0.0481 -0.5477
  698SOL    HW1 2878   2.823   3.070   2.222 -0.8120 -1.5424  0.7390
  698SOL    HW2 2879   2.950   3.100   2.298 -0.1147 -0.2773 -0.8763
  699SOL     OW 2880   2.242   2.635   1.113 -0.2516 -0.0668  0.2641
  699SOL    HW1 2881   2.235   2.730   1.115 -1.0040 -0.1394  1.2585
  699SOL    HW2 2882   2.326   2.616   1.154  0.0582  0.1704 -0.2436
  700SOL     OW 2883   1.973   3.265   1.078  0.4232  0.3992  0.3943
  700SOL    HW1 2884   1.980   3.256   1.174 -1.2025  0.9884  0.5966
  700SOL    HW2 2885   1.971   3.175   1.046  3.4777  0.1348  0.6349
  701SOL     OW 2886   1.315   2.098   0.281 -0.1268 -0.4064  0.1917
  701SOL    HW1 2887   1.276   2.059   0.203  1.0502  1.6793 -1.5603
  701SOL    HW2 2888   1.249   2.160   0.312 -1.6641 -2.9957  2.4994
  702SOL     OW 2889   0.300   2.861   1.084  0.2153 -0.6395  0.2906
  702SOL    HW1 2890   0.298   2.837   0.991 -1.5825 -1.5562  0.5169
  702SOL    HW2 2891   0.292   2.956   1.085  0.9036 -0.5699 -0.5062
  703SOL     OW 2892   0.199   0.076   2.002 -0.0759  0.2251 -0.2926
  703SOL    HW1 2893   0.222   0.049   2.091  0.9905 -1.4140 -1.0140
  703SOL    HW2 2894   0.108   0.048   1.991 -0.0473 -0.0400  0.1185
  704SOL     OW 2895   1.219   3.322   1.579  0.2717  0.3229  0.4182
  704SOL    HW1 2896   1.131   3.318   1.616 -0.4117  0.8028 -1.0730
  704SOL    HW2 2897   1.213   3.388   1.511  1.5226 -0.3648 -0.3956
  705SOL     OW 2898   1.140   0.127   0.851  0.5066  0.2588 -0.0580
  705SOL    HW1 2899   1.202   0.188   0.813 -1.9775  2.3499 -1.0805
  705SOL    HW2 2900   1.141   0.051   0.793  0.3767  1.3074 -1.4783
  706SOL     OW 2901   1.704   3.234   0.981  0.0110 -0.4845 -0.4564
  706SOL    HW1 2902   1.684   3.324   1.006  2.1624 -0.3895  1.2268
  706SOL    HW2 2903   1.794   3.220   1.010 -0.1864 -3.1434 -0.8259
  707SOL     OW 2904   1.180   1.971   0.074  0.1130 -0.2506  0.3641
  707SOL    HW1 2905   1.244   1.958   0.004 -1.2487  1.6681 -1.3874
  707SOL    HW2 2906   1.095   1.960   0.030 -0.8080 -1.7608  2.3877
  708SOL     OW 2907   0.512   0.206   0.639  0.2449 -0.1941  0.3467
  708SOL    HW1 2908   0.560   0.143   0.584  1.7661  0.2889  1.0644
  708SOL    HW2 2909   0.514   0.287   0.589 -0.7640 -0.4104 -0.0805
  709SOL     OW 2910   2.551   1.540   1.321 -0.8626  0.0889 -0.5391
  709SOL    HW1 2911   2.543   1.636   1.318  0.0825  0.1579 -1.3430
  709SOL    HW2 2912   2.510   1.515   1.404  1.6070  1.4940  1.2127
  710SOL     OW 2913   2.530   0.444   2.144  0.0780  0.3221  0.4261
  710SOL    HW1 2914   2.536   0.529   2.100 -0.4039  0.8485  1.3572
  710SOL    HW2 2915   2.444   0.410   2.118  0.7515 -0.4271 -0.8883
  711SOL     OW 2916   3.123   0.944   0.487  0.3855 -0.6271  0.4869
  711SOL    HW1 2917   3.206   0.986   0.466  0.6530 -0.9351  0.8976
  711SOL    HW2 2918   3.098   0.981   0.572  0.2595 -0.7591  0.5094
  712SOL     OW 2919   1.502   2.258   1.567 -0.3517 -0.0911  0.3224
  712SOL    HW1 2920   1.450   2.275   1.488  0.2774  0.5411  0.0286
  712SOL    HW2 2921   1.470   2.322   1.631 -0.9562 -0.6953  0.6262
  713SOL     OW 2922   0.439   2.134   3.003 -0.6384 -0.4280  0.1397
  713SOL    HW1 2923   0.481   2.157   3.086  0.3929 -1.2064 -0.1422
  713SOL    HW2 2924   0.468   2.202   2.942 -0.8201 -0.2579  0.2402
  714SOL     OW 2925   2.251   2.308   1.557 -0.2948 -0.0857  0.3846
  714SOL    HW1 2926   2.341   2.297   1.588 -0.5439  2.2997  2.2742
  714SOL    HW2 2927   2.257   2.377   1.491 -0.7527  0.1578  0.5948
  715SOL     OW 2928   0.529   3.248   2.234  0.3782  0.4875 -0.1415
  715SOL    HW1 2929   0.456   3.187   2.227  0.9484 -0.3021  0.7111
  715SOL    HW2 2930   0.534   3.271   2.327  0.3759  1.5919 -0.3937
  716SOL     OW 2931   0.310   3.090   2.270 -0.6208  0.3257 -0.6087
  716SOL    HW1 2932   0.236   3.055   2.220  0.0814  0.0704 -1.4936
  716SOL    HW2 2933   0.329   3.023   2.335 -0.2265 -0.2893 -1.3461
  717SOL     OW 2934   1.435   1.416   0.103  0.6610  0.4545 -0.7360
  717SOL    HW1 2935   1.437   1.331   0.059 -0.9107 -0.5816  1.0023
  717SOL    HW2 2936   1.516   1.419   0.153  0.6637 -0.1046 -0.7012
  718SOL     OW 2937   1.729   1.409   2.222 -0.6343  0.0638 -0.2267
  718SOL    HW1 2938   1.696   1.494   2.193 -0.2552  0.4444  0.4393
  718SOL    HW2 2939   1.744   1.361   2.141 -4.0411 -0.6481 -0.5827
  719SOL     OW 2940   1.892   2.081   0.499  0.0953 -0.2709 -0.0352
  719SOL    HW1 2941   1.841   2.160   0.481 -1.1955 -1.0880 -0.1341
  719SOL    HW2 2942   1.912   2.087   0.593 -0.2914  0.0062  0.0329
  720SOL     OW 2943   3.333   2.963   1.999  0.2039  0.3710  0.2678
  720SOL    HW1 2944   3.240   2.985   1.990 -0.1094 -0.4606  1.2907
  720SOL    HW2 2945   3.340   2.874   1.965  0.3309 -0.1350  1.5898
  721SOL     OW 2946   0.478   2.189   0.607 -0.1754  0.5196 -0.0218
  721SOL    HW1 2947   0.414   2.162   0.673  0.7240  1.7351  1.4094
  721SOL    HW2 2948   0.563   2.167   0.646  0.3778  1.2386 -0.7907
  722SOL     OW 2949   0.140   0.818   2.465 -0.3407  0.2494 -0.4065
  722SOL    HW1 2950   0.199   0.745   2.450 -2.2214 -1.7765  1.3279
  722SOL    HW2 2951   0.167   0.855   2.549 -0.7815  0.0836 -0.1878
  723SOL     OW 2952   2.485   0.102   1.457 -0.2350  0.2017 -0.0932
  723SOL    HW1 2953   2.395   0.122   1.481  0.9579  2.7571  2.9151
  723SOL    HW2 2954   2.501   0.156   1.379 -1.0114  0.4632 -0.0833
  724SOL     OW 2955   2.037   3.081   2.446 -0.5116 -0.1414  0.2079
  724SOL    HW1 2956   2.113   3.089   2.388 -0.9499 -0.0294 -0.3747
  724SOL    HW2 2957   1.969   3.132   2.401 -0.5389  0.9354  1.4046
  725SOL     OW 2958   2.968   2.505   2.114 -0.4290 -1.1305  0.4037
  725SOL    HW1 2959   3.029   2.487   2.186 -0.0419 -2.1048 -0.1534
  725SOL    HW2 2960   2.894   2.549   2.156  0.2769 -0.6926  1.2253
  726SOL     OW 2961   2.274   2.178   0.364  0.0444  0.0857  0.7506
  726SOL    HW1 2962   2.181   2.161   0.352  0.4309 -2.1760  0.6278
  726SOL    HW2 2963   2.314   2.153   0.281  0.8815  0.0134  1.1653
  727SOL     OW 2964   1.286   1.243   1.304  1.1632 -0.1936  0.0451
  727SOL    HW1 2965   1.312   1.274   1.218  2.0116 -0.3056  0.2495
  727SOL    HW2 2966   1.342   1.167   1.320  1.5182  0.2454  0.9808
  728SOL     OW 2967   0.134   2.654   1.257 -0.1347  0.7383 -0.2721
  728SOL    HW1 2968   0.229   2.657   1.262 -0.0842  0.4013 -0.9924
  728SOL    HW2 2969   0.106   2.633   1.347  0.5320 -0.6160 -0.3624
  729SOL     OW 2970   3.306   3.292   1.982  0.5818  0.3598 -0.0163
  729SOL    HW1 2971   3.222   3.334   2.001 -0.4676 -2.6132  2.8679
  729SOL    HW2 2972   3.286   3.220   1.923  0.6969 -1.2681  1.8076
  730SOL     OW 2973   2.542   2.613   1.174 -0.6642 -0.1577  0.1312
  730SOL    HW1 2974   2.571   2.612   1.083 -0.8861 -0.9196  0.0607
  730SOL    HW2 2975   2.624   2.615   1.225 -0.5410  0.2379 -0.0753
  731SOL     OW 2976   1.551   3.246   3.274  0.4256  0.0987  0.0858
  731SOL    HW1 2977   1.592   3.313   3.328 -0.7512 -0.0658  1.2346
  731SOL    HW2 2978   1.457   3.262   3.283  0.1793 -0.2789 -1.4836
  732SOL     OW 2979   1.186   2.937   3.148  0.1771 -0.1793  0.0482
  732SOL    HW1 2980   1.177   2.991   3.226 -1.5846  0.4018 -0.5100
  732SOL    HW2 2981   1.099   2.937   3.109  1.2452  0.4298 -2.5059
  733SOL     OW 2982   1.421   1.960   2.720 -0.0415 -0.5621  0.6175
  733SOL    HW1 2983   1.347   2.007   2.683  0.1442  0.5328  1.5577
  733SOL    HW2 2984   1.392   1.932   2.807 -0.2348 -2.4646 -0.0152
  734SOL     OW 2985   3.312   1.720   0.883  0.1796 -0.5786 -0.7232
  734SOL    HW1 2986   3.239   1.731   0.822 -0.7557 -2.4649 -0.0474
  734SOL    HW2 2987   3.388   1.706   0.826 -0.1981  0.1607 -1.4402
  735SOL     OW 2988   2.324   0.482   2.711  0.0644 -0.1129  0.1444
  735SOL    HW1 2989   2.268   0.560   2.717 -1.4040 -1.0336 -0.9722
  735SOL    HW2 2990   2.354   0.468   2.801 -0.2543  1.2952  0.4948
  736SOL     OW 2991   1.558   2.490   2.478 -0.0494 -0.1146 -0.1166
  736SOL    HW1 2992   1.647   2.494   2.513 -0.0489  1.1071 -0.2300
  736SOL    HW2 2993   1.502   2.499   2.556 -0.0826 -0.8158 -0.0530
  737SOL     OW 2994   0.545   2.129   0.196  0.6026  0.1263 -0.1707
  737SOL    HW1 2995   0.558   2.200   0.259 -1.4010  0.2484  0.1545
  737SOL    HW2 2996   0.479   2.162   0.135  2.7293  0.1413 -2.6255
  738SOL     OW 2997   1.724   0.543   2.552 -0.0207  0.0407  0.0071
  738SOL    HW1 2998   1.817   0.564   2.554  0.1565 -0.7632  1.4350
  738SOL    HW2 2999   1.719   0.464   2.497  0.5924 -1.7344  2.3590
  739SOL     OW 3000   0.682   2.717   0.155  0.1250 -0.2527 -0.0240
  739SOL    HW1 3001   0.600   2.760   0.129  0.6154 -0.4869 -2.1404
  739SOL    HW2 3002   0.688   2.732   0.249 -0.6247  2.7523 -0.3595
  740SOL     OW 3003   2.399   1.247   1.454 -0.1324 -0.1011  0.3375
  740SOL    HW1 3004   2.340   1.261   1.379  0.9937 -0.4600 -0.6506
  740SOL    HW2 3005   2.403   1.331   1.498 -1.4166 -0.0809  0.4627
  741SOL     OW 3006   3.057   1.538   0.558 -0.3178 -0.9873 -0.2106
  741SOL    HW1 3007   3.138   1.533   0.508 -0.4521  0.4517 -0.6143
  741SOL    HW2 3008   2.992   1.567   0.495 -1.0765 -1.7260  0.2080
  742SOL     OW 3009   1.710   2.515   1.659 -0.2243  0.2227  0.1400
  742SOL    HW1 3010   1.658   2.443   1.693 -1.6606  1.1121 -0.1182
  742SOL    HW2 3011   1.661   2.594   1.682  1.4438  1.1572  0.6450
  743SOL     OW 3012   1.438   2.801   2.807  0.4609  0.4727 -0.4168
  743SOL    HW1 3013   1.433   2.790   2.902  2.3340 -2.3363 -0.5420
  743SOL    HW2 3014   1.499   2.874   2.795  0.5418  0.5668  0.4982
  744SOL     OW 3015   0.811   0.222   2.337  1.0257 -0.1476  0.0507
  744SOL    HW1 3016   0.831   0.164   2.263  0.5026  0.2763 -0.4283
  744SOL    HW2 3017   0.778   0.302   2.296 -1.8082 -0.8475  0.7644
  745SOL     OW 3018   1.239   1.041   0.698 -0.4170  0.0331  0.2051
  745SOL    HW1 3019   1.156   1.063   0.656  1.1193  3.8200 -1.2420
  745SOL    HW2 3020   1.281   0.979   0.638 -1.3630 -0.4456  0.0260
  746SOL     OW 3021   3.226   3.115   1.788 -0.5658 -0.6278  0.3765
  746SOL    HW1 3022   3.298   3.059   1.762 -0.0733  0.2407 -0.1733
  746SOL    HW2 3023   3.178   3.133   1.707  0.2661  1.0927  0.2339
  747SOL     OW 3024   2.300   3.200   2.403 -0.7772 -0.2501 -0.6490
  747SOL    HW1 3025   2.301   3.130   2.469  0.4466 -0.5747 -0.9985
  747SOL    HW2 3026   2.386   3.242   2.411  0.1206 -1.4423 -3.2445
  748SOL     OW 3027   2.862   0.669   1.976  0.4107  0.0372 -0.7045
  748SOL    HW1 3028   2.788   0.658   1.916 -1.6449  0.2447  1.6097
  748SOL    HW2 3029   2.908   0.585   1.973 -0.9322 -0.7280 -1.0199
  749SOL     OW 3030   0.940   1.291   2.616  0.0376  0.3031  0.0600
  749SOL    HW1 3031   0.935   1.208   2.663  1.9804 -0.0584 -0.3005
  749SOL    HW2 3032   1.004   1.276   2.547 -2.0680  1.0822 -2.2350
  750SOL     OW 3033   1.110   2.628   1.631  0.0500 -0.2098 -0.1076
  750SOL    HW1 3034   1.094   2.606   1.723 -2.4477 -0.4853 -0.5437
  750SOL    HW2 3035   1.178   2.695   1.634 -0.2930  0.1152  1.9713
  751SOL     OW 3036   2.037   2.088   0.749 -0.4027  0.4180 -0.2100
  751SOL    HW1 3037   2.113   2.031   0.757 -0.3585  0.4698 -0.2666
  751SOL    HW2 3038   1.988   2.075   0.830  0.1527  1.1045  0.2416
  752SOL     OW 3039   0.218   0.313   2.582  0.3658 -0.5158  0.2850
  752SOL    HW1 3040   0.297   0.339   2.535 -0.2519  0.2377 -0.3691
  752SOL    HW2 3041   0.236   0.224   2.614  1.8198 -0.0011  0.9518
  753SOL     OW 3042   0.815   0.173   0.198 -0.3888 -0.1239 -0.0383
  753SOL    HW1 3043   0.894   0.225   0.183 -0.5613  0.5928  1.3619
  753SOL    HW2 3044   0.770   0.174   0.113  1.5074 -1.3443 -1.1511
  754SOL     OW 3045   1.509   0.547   0.715  0.1609 -0.5920  0.0923
  754SOL    HW1 3046   1.451   0.530   0.790  0.2001 -1.7292 -0.1056
  754SOL    HW2 3047   1.527   0.641   0.719 -2.4482 -0.0114 -0.4024
  755SOL     OW 3048   1.326   0.542   0.923 -0.4717  0.3161 -0.5533
  755SOL    HW1 3049   1.363   0.462   0.961  0.5708  1.1630  0.2572
  755SOL    HW2 3050   1.269   0.577   0.992 -0.5382  0.5358 -0.7180
  756SOL     OW 3051   3.104   1.062   2.573  0.0800 -0.0834 -0.6669
  756SOL    HW1 3052   3.064   1.032   2.492  0.0548 -0.3009 -0.5771
  756SOL    HW2 3053   3.197   1.072   2.552 -0.1955  1.6720 -1.2299
  757SOL     OW 3054   3.029   0.446   2.333 -0.1905 -0.3883 -0.0996
  757SOL    HW1 3055   2.944   0.490   2.328  0.4712  0.8026 -2.1923
  757SOL    HW2 3056   3.062   0.465   2.420 -1.3633  0.5128  0.1637
  758SOL     OW 3057   0.426   0.246   3.134 -0.2972 -1.0258 -0.0552
  758SOL    HW1 3058   0.502   0.209   3.090 -0.3974  1.0360 -2.1772
  758SOL    HW2 3059   0.437   0.222   3.226  3.0524 -0.5653 -0.2226
  759SOL     OW 3060   3.029   2.836   1.721 -0.6817 -0.1776 -0.5218
  759SOL    HW1 3061   2.977   2.909   1.687 -0.8994 -0.0740  0.0237
  759SOL    HW2 3062   3.048   2.861   1.811 -1.4429 -1.1641 -0.0760
  760SOL     OW 3063   2.578   1.879   0.922  0.0192 -0.1048  0.0156
  760SOL    HW1 3064   2.494   1.834   0.919 -0.4884  0.7408  0.7554
  760SOL    HW2 3065   2.644   1.809   0.927 -0.5799 -0.7903 -1.4207
  761SOL     OW 3066   2.836   1.512   0.740 -0.2238 -0.2355  0.5175
  761SOL    HW1 3067   2.902   1.507   0.671 -1.0927 -0.8997 -0.2927
  761SOL    HW2 3068   2.865   1.449   0.806 -0.7779 -1.6203 -0.5095
  762SOL     OW 3069   2.671   0.627   1.771 -0.0964 -0.3300 -0.6294
  762SOL    HW1 3070   2.603   0.566   1.741 -0.2881 -0.0642 -0.7310
  762SOL    HW2 3071   2.654   0.708   1.724  1.1382 -0.6776 -1.7087
  763SOL     OW 3072   1.716   2.684   1.453  0.1246  0.0101  0.1884
  763SOL    HW1 3073   1.772   2.747   1.499  0.6980 -0.3730  0.0313
  763SOL    HW2 3074   1.696   2.618   1.520  0.2548 -0.1006  0.1186
  764SOL     OW 3075   2.144   2.326   0.643 -0.0541 -0.0795 -0.0325
  764SOL    HW1 3076   2.118   2.234   0.645 -0.8662  0.1454  0.0617
  764SOL    HW2 3077   2.168   2.346   0.733 -0.9307  0.0872  0.1724
  765SOL     OW 3078   3.053   3.351   2.944  0.7075  0.1134  0.3725
  765SOL    HW1 3079   3.100   3.427   2.910  0.9153 -0.6011 -0.9908
  765SOL    HW2 3080   3.008   3.314   2.868 -1.0167  0.0091  1.3953
  766SOL     OW 3081   1.206   0.250   3.093  1.0556 -0.4042 -0.4150
  766SOL    HW1 3082   1.283   0.221   3.142  1.3079  2.9765  1.5066
  766SOL    HW2 3083   1.224   0.341   3.072 -2.2850  0.4550 -0.0698
  767SOL     OW 3084   2.290   1.306   1.984 -0.2496 -0.7439 -0.3988
  767SOL    HW1 3085   2.346   1.233   1.957  0.4286 -0.4362  0.1392
  767SOL    HW2 3086   2.279   1.295   2.078  0.0174 -0.0521 -0.2794
  768SOL     OW 3087   3.228   0.739   3.262  0.2202 -0.7069 -0.2906
  768SOL    HW1 3088   3.303   0.781   3.305 -0.5644  0.0435  0.3744
  768SOL    HW2 3089   3.265   0.662   3.220  1.5004  0.0361 -0.5813
  769SOL     OW 3090   1.383   2.016   3.236  0.0206  0.4368  0.7868
  769SOL    HW1 3091   1.473   1.997   3.263  0.0001  0.6822  1.0325
  769SOL    HW2 3092   1.392   2.051   3.147 -0.0491 -1.9698 -0.2374
  770SOL     OW 3093   1.573   1.269   1.855 -0.1948 -0.2096 -0.1635
  770SOL    HW1 3094   1.641   1.243   1.918  0.6984  1.0735 -0.5754
  770SOL    HW2 3095   1.491   1.266   1.906  0.3825 -0.1408  0.7906
  771SOL     OW 3096   0.954   2.764   0.159  0.0781  0.2217  0.2712
  771SOL    HW1 3097   0.962   2.859   0.167 -0.9612  0.3857 -0.5727
  771SOL    HW2 3098   0.860   2.748   0.155  0.2525 -0.8346  0.2468
  772SOL     OW 3099   2.377   1.520   1.841  0.9776 -0.0979 -0.1865
  772SOL    HW1 3100   2.307   1.584   1.830  1.5673  0.2256 -2.7517
  772SOL    HW2 3101   2.343   1.458   1.905 -1.3986  0.3877 -0.8753
  773SOL     OW 3102   2.937   0.543   0.866 -0.1573  0.6506 -0.2246
  773SOL    HW1 3103   2.942   0.571   0.775 -1.7829  1.7445 -0.0074
  773SOL    HW2 3104   2.989   0.462   0.869 -1.9390 -0.6806 -2.6364
  774SOL     OW 3105   1.250   2.415   1.409 -0.7206 -0.1495  0.4905
  774SOL    HW1 3106   1.289   2.496   1.441  0.7272 -0.5195 -0.2208
  774SOL    HW2 3107   1.174   2.443   1.358 -0.1991  0.7756  0.1924
  775SOL     OW 3108   3.324   2.225   1.323  0.2381  0.2147  0.3557
  775SOL    HW1 3109   3.308   2.248   1.415 -0.4030 -1.3819  0.6764
  775SOL    HW2 3110   3.328   2.130   1.323 -0.6481  0.1382 -1.4183
  776SOL     OW 3111   0.205   3.132   1.976 -0.3241  0.1943  0.6192
  776SOL    HW1 3112   0.139   3.064   1.983 -0.3635  0.2004  0.2744
  776SOL    HW2 3113   0.166   3.209   2.018 -0.3845  0.0850  0.7613
  777SOL     OW 3114   2.728   0.147   1.817  0.6939 -0.4713 -0.1092
  777SOL    HW1 3115   2.662   0.163   1.884  0.9162 -1.8122  0.4721
  777SOL    HW2 3116   2.777   0.228   1.811  0.2827 -0.1375  0.9203
  778SOL     OW 3117   1.152   3.110   3.350  0.1418 -0.6146  0.6340
  778SOL    HW1 3118   1.197   3.166   3.413  1.7196 -0.8767 -0.2195
  778SOL    HW2 3119   1.143   3.164   3.271  0.6144 -1.1647  0.1972
  779SOL     OW 3120   0.407   2.618   0.767 -0.2332 -0.1993 -0.5481
  779SOL    HW1 3121   0.447   2.615   0.680  0.3418  0.5400 -0.3225
  779SOL    HW2 3122   0.326   2.667   0.755  0.3798  0.8668 -0.4844
  780SOL     OW 3123   1.688   1.837   3.232 -1.2440  0.2794  0.5312
  780SOL    HW1 3124   1.741   1.892   3.174 -1.9792  1.3490  0.8363
  780SOL    HW2 3125   1.748   1.811   3.302 -0.3192 -1.1153 -0.7224
  781SOL     OW 3126   1.360   2.620   0.623  0.2112  0.1356  0.8227
  781SOL    HW1 3127   1.413   2.617   0.703  1.6341 -0.6224 -0.1076
  781SOL    HW2 3128   1.385   2.701   0.580  0.7143 -0.2607  0.3441
  782SOL     OW 3129   2.382   1.167   2.847 -0.2694 -0.1039  0.0898
  782SOL    HW1 3130   2.432   1.161   2.766  0.6867  3.5123  0.2549
  782SOL    HW2 3131   2.310   1.226   2.826 -0.6709 -0.0385  1.5626
  783SOL     OW 3132   3.174   2.621   0.673 -0.3972  0.5560 -0.4333
  783SOL    HW1 3133   3.191   2.681   0.745  1.1403 -0.0049 -0.3031
  783SOL    HW2 3134   3.259   2.609   0.631 -0.7014 -1.3682 -0.5680
  784SOL     OW 3135   2.130   1.261   1.585  0.7247 -0.2085  0.3686
  784SOL    HW1 3136   2.133   1.246   1.680 -0.0339 -1.3558  0.2237
  784SOL    HW2 3137   2.220   1.248   1.556  0.9710  0.1886  0.9349
  785SOL     OW 3138   1.617   0.643   2.788 -0.2182 -0.5588 -0.0276
  785SOL    HW1 3139   1.673   0.645   2.710  0.3771 -2.2860  0.3263
  785SOL    HW2 3140   1.678   0.648   2.862 -0.7766  1.0630  0.3854
  786SOL     OW 3141   1.180   2.909   1.228  0.4225  0.4994 -0.1582
  786SOL    HW1 3142   1.275   2.920   1.230  0.4773  0.2612 -1.0249
  786SOL    HW2 3143   1.167   2.824   1.185 -0.1635  0.1187  0.7471
  787SOL     OW 3144   1.146   0.755   2.543  0.0933  0.0974 -0.6734
  787SOL    HW1 3145   1.224   0.709   2.572 -0.4204  0.5090  1.5596
  787SOL    HW2 3146   1.175   0.845   2.530 -0.0058  0.2850  0.3085
  788SOL     OW 3147   3.069   2.179   0.035  0.6959 -0.1547  0.0468
  788SOL    HW1 3148   3.107   2.092   0.049 -2.0371 -1.3644  0.6100
  788SOL    HW2 3149   3.090   2.201  -0.056  2.9189 -0.5310  0.3938
  789SOL     OW 3150   2.510   1.056   1.847  0.1106 -0.0324  0.6005
  789SOL    HW1 3151   2.579   1.044   1.781  0.0742 -1.5892  0.8267
  789SOL    HW2 3152   2.433   1.015   1.808 -0.4489  0.8517  0.7648
  790SOL     OW 3153   1.300   2.942   0.243 -0.7010 -0.1610  0.5360
  790SOL    HW1 3154   1.337   2.904   0.323  0.5535  1.9628  1.0521
  790SOL    HW2 3155   1.322   3.035   0.249 -3.2233  0.6086 -0.8546
  791SOL     OW 3156   1.262   2.306   2.432  0.0325  0.6152  0.3659
  791SOL    HW1 3157   1.354   2.332   2.437 -0.0781  1.1370 -0.2082
  791SOL    HW2 3158   1.236   2.325   2.342 -0.2273 -0.9407  0.0901
  792SOL     OW 3159   2.437   0.682   2.039  0.0269  0.7466 -0.1370
  792SOL    HW1 3160   2.467   0.773   2.034  0.6762  1.0020  4.1869
  792SOL    HW2 3161   2.356   0.686   2.089 -0.5513 -0.9889 -0.8691
  793SOL     OW 3162   0.513   0.336   2.745 -0.5820  0.5173  0.0001
  793SOL    HW1 3163   0.504   0.429   2.725 -0.9252  0.3110 -0.8631
  793SOL    HW2 3164   0.533   0.295   2.661 -0.0771 -0.1468  0.4307
  794SOL     OW 3165   1.471   2.410   1.798  0.1305 -0.0274 -0.9274
  794SOL    HW1 3166   1.388   2.365   1.815  1.2716 -1.3594  1.5070
  794SOL    HW2 3167   1.526   2.390   1.873  2.4492  1.4386 -2.1031
  795SOL     OW 3168   0.293   3.288   3.279  0.0237 -0.8578  0.5484
  795SOL    HW1 3169   0.369   3.238   3.310  0.9387 -0.8831 -1.5548
  795SOL    HW2 3170   0.302   3.374   3.320  2.1202 -0.3379 -0.8300
  796SOL     OW 3171   2.781   1.710   0.909  0.4021 -0.5450 -0.2144
  796SOL    HW1 3172   2.853   1.697   0.971 -0.2423 -2.4465  0.2091
  796SOL    HW2 3173   2.784   1.633   0.852 -0.3608  0.1061 -1.1713
  797SOL     OW 3174   1.723   3.186   2.336  0.1747  0.3914  0.4970
  797SOL    HW1 3175   1.787   3.180   2.265 -0.3374 -0.3816  0.0825
  797SOL    HW2 3176   1.667   3.260   2.311  0.6935  0.8565  0.6920
  798SOL     OW 3177   0.473   3.021   1.921  0.0034  0.0201  0.4362
  798SOL    HW1 3178   0.527   3.098   1.939 -0.6929  0.2514  1.5935
  798SOL    HW2 3179   0.384   3.049   1.941 -0.8377  0.1111 -2.7647
  799SOL     OW 3180   1.430   3.014   1.259  0.1595  0.1579 -0.2535
  799SOL    HW1 3181   1.516   2.973   1.273  0.2280 -0.2221 -1.7072
  799SOL    HW2 3182   1.449   3.107   1.252  0.3161  0.1887  0.4719
  800SOL     OW 3183   0.342   0.685   0.196  0.1497  0.2152 -0.3172
  800SOL    HW1 3184   0.355   0.707   0.289  0.3763  1.6836 -0.6669
  800SOL    HW2 3185   0.247   0.685   0.186  0.0886 -1.0742  0.1531
  801SOL     OW 3186   0.904   0.222   1.760 -0.2928  0.8198  0.0769
  801SOL    HW1 3187   0.920   0.316   1.752 -2.1644  1.2042  0.1921
  801SOL    HW2 3188   0.809   0.214   1.751 -0.1231 -1.1275 -0.4651
  802SOL     OW 3189   1.483   2.413   1.117 -0.2062 -0.1775  0.0190
  802SOL    HW1 3190   1.529   2.382   1.195  0.7744 -0.0926 -0.5174
  802SOL    HW2 3191   1.552   2.441   1.057 -0.9826  0.7583 -0.4749
  803SOL     OW 3192   1.430   2.478   2.735  0.1466 -0.4063  0.6645
  803SOL    HW1 3193   1.405   2.428   2.813  0.3734 -0.4662  0.6993
  803SOL    HW2 3194   1.406   2.568   2.755 -1.5875 -0.6881  0.0509
  804SOL     OW 3195   1.524   1.044   2.728  0.1272 -0.0315 -0.4833
  804SOL    HW1 3196   1.551   1.131   2.760 -0.9980  0.8434 -1.7798
  804SOL    HW2 3197   1.580   0.983   2.775  1.9434  1.4749 -0.5485
  805SOL     OW 3198   1.731   0.324   2.369  0.2393  0.2306 -0.1055
  805SOL    HW1 3199   1.785   0.350   2.295 -0.5164 -0.4899 -0.9292
  805SOL    HW2 3200   1.777   0.251   2.409  0.5314  0.4731  0.0070
  806SOL     OW 3201   1.770   2.114   2.108  0.5278 -0.5689 -0.0547
  806SOL    HW1 3202   1.709   2.096   2.179  0.0396 -1.0810 -0.5837
  806SOL    HW2 3203   1.856   2.121   2.149 -0.1201  2.4838  1.0535
  807SOL     OW 3204   1.394   0.631   2.633 -0.3008 -0.1118  0.1004
  807SOL    HW1 3205   1.450   0.574   2.581 -0.8663  0.3635 -1.0848
  807SOL    HW2 3206   1.449   0.660   2.706  1.2977  0.9920 -1.4511
  808SOL     OW 3207   1.318   1.592   3.272 -0.2000  0.4745 -0.2454
  808SOL    HW1 3208   1.309   1.550   3.186 -3.2715 -0.7190  0.5035
  808SOL    HW2 3209   1.379   1.536   3.320  0.6451  0.5031 -1.2535
  809SOL     OW 3210   3.180   2.051   0.846 -0.2354 -0.1217  0.5389
  809SOL    HW1 3211   3.147   2.074   0.759  0.9585 -0.0759  0.0796
  809SOL    HW2 3212   3.103   2.020   0.893 -1.1033  0.8510 -0.1850
  810SOL     OW 3213   0.113   0.204   1.308  0.0103 -0.1912  0.2205
  810SOL    HW1 3214   0.110   0.299   1.321  0.1123 -0.3389  1.3798
  810SOL    HW2 3215   0.043   0.186   1.245  1.3925  0.9058 -1.7150
  811SOL     OW 3216   2.267   0.822   2.410 -0.3379 -0.4107 -0.2389
  811SOL    HW1 3217   2.250   0.810   2.317  0.7321 -0.0887 -0.4884
  811SOL    HW2 3218   2.209   0.759   2.453 -1.0692 -0.3460 -1.0954
  812SOL     OW 3219   2.155   3.269   1.594 -0.0173  0.3831  0.5083
  812SOL    HW1 3220   2.213   3.196   1.613  1.2155  1.7048  2.1651
  812SOL    HW2 3221   2.085   3.262   1.658 -1.0752 -0.4860 -0.6828
  813SOL     OW 3222   3.042   0.784   2.879 -0.6032 -0.6413 -0.0992
  813SOL    HW1 3223   3.101   0.709   2.884  1.4512  0.8358 -0.7595
  813SOL    HW2 3224   3.032   0.813   2.970  0.8767 -0.0708 -0.0979
  814SOL     OW 3225   1.100   0.456   2.661  0.7941  0.1618 -0.3470
  814SOL    HW1 3226   1.093   0.383   2.599  1.0251  0.5628 -0.8548
  814SOL    HW2 3227   1.191   0.453   2.690  0.0772 -1.6782  2.0585
  815SOL     OW 3228   2.936   0.400   1.559  0.1746 -0.1210 -0.2215
  815SOL    HW1 3229   2.912   0.376   1.648  0.8944  0.2645  0.0862
  815SOL    HW2 3230   3.007   0.339   1.536 -2.1875 -2.5157 -1.8032
  816SOL     OW 3231   2.829   0.374   1.165 -0.1184 -0.0258 -0.3044
  816SOL    HW1 3232   2.897   0.337   1.109  0.6487 -0.2689  0.7644
  816SOL    HW2 3233   2.816   0.308   1.234 -1.2373  0.1438 -0.3322
  817SOL     OW 3234   1.562   1.699   1.317 -0.5817  0.5385  0.1928
  817SOL    HW1 3235   1.634   1.709   1.380 -0.4393  0.1197  0.0989
  817SOL    HW2 3236   1.486   1.679   1.372 -0.4885  0.3261  0.2486
  818SOL     OW 3237   3.153   2.701   1.512 -0.1869 -0.0827  0.0929
  818SOL    HW1 3238   3.216   2.629   1.520 -2.0637 -1.7368  0.7098
  818SOL    HW2 3239   3.133   2.725   1.602  0.1192  0.9702 -0.1085
  819SOL     OW 3240   0.362   0.134   1.393  0.1439 -0.0514  0.3273
  819SOL    HW1 3241   0.314   0.163   1.471  1.1453  2.3046  0.1583
  819SOL    HW2 3242   0.298   0.142   1.322 -0.2768 -0.5545  0.6380
  820SOL     OW 3243   0.980   1.563   3.051  0.6096 -0.3588  0.0708
  820SOL    HW1 3244   0.938   1.643   3.020  0.7825 -0.7049 -1.1084
  820SOL    HW2 3245   1.039   1.538   2.979  1.9169 -0.5500  1.1800
  821SOL     OW 3246   1.495   2.172   2.232 -0.0243  0.0413  0.1553
  821SOL    HW1 3247   1.509   2.168   2.326 -0.5582  0.2148  0.2451
  821SOL    HW2 3248   1.492   2.266   2.212  0.9881  0.0109 -0.1736
  822SOL     OW 3249   1.674   2.382   0.714  0.1093  0.3529 -0.1770
  822SOL    HW1 3250   1.640   2.467   0.685  0.9633  0.4500 -0.9468
  822SOL    HW2 3251   1.763   2.380   0.680 -0.2507 -1.3183 -1.1169
  823SOL     OW 3252   0.960   1.268   3.061 -0.1883  0.4446  0.3414
  823SOL    HW1 3253   0.973   1.359   3.036 -2.1360  0.8762  0.7889
  823SOL    HW2 3254   1.005   1.259   3.145  0.9996  0.6499 -0.2489
  824SOL     OW 3255   0.889   2.548   3.180  0.0328  0.2541  0.7183
  824SOL    HW1 3256   0.985   2.544   3.182  0.1739  2.2774  0.3643
  824SOL    HW2 3257   0.861   2.473   3.233  1.7953 -0.4989  0.6644
  825SOL     OW 3258   3.143   1.131   3.230 -0.4387  0.2987  0.0926
  825SOL    HW1 3259   3.209   1.084   3.180 -0.2833 -0.0347  0.6018
  825SOL    HW2 3260   3.079   1.159   3.165  0.7471  1.5921 -0.5860
  826SOL     OW 3261   1.887   2.070   0.202 -0.2395 -0.2372 -0.1796
  826SOL    HW1 3262   1.853   2.061   0.291  0.7609 -1.3824  0.1124
  826SOL    HW2 3263   1.850   1.996   0.155 -0.1800 -0.0448 -0.5328
  827SOL     OW 3264   3.211   2.367   0.328  0.1568 -0.3610 -0.6324
  827SOL    HW1 3265   3.243   2.390   0.415  0.0312  1.5156 -1.0431
  827SOL    HW2 3266   3.282   2.314   0.290  0.4184 -0.7825  0.4168
  828SOL     OW 3267   0.064   3.311   1.433  0.2841 -0.0862 -0.2654
  828SOL    HW1 3268   0.093   3.383   1.377  1.9930  1.0044  1.8680
  828SOL    HW2 3269   0.082   3.232   1.382  2.8134  0.7943 -0.8676
  829SOL     OW 3270   1.993   0.834   1.258  0.0636  0.2119  0.1979
  829SOL    HW1 3271   2.010   0.791   1.175 -0.5904  1.0311 -0.3733
  829SOL    HW2 3272   1.929   0.778   1.302 -0.7991  0.6010 -0.5468
  830SOL     OW 3273   2.462   0.019   1.727  0.2453 -0.2366  0.4442
  830SOL    HW1 3274   2.472   0.014   1.632 -0.8825  0.1258  0.2916
  830SOL    HW2 3275   2.497   0.105   1.750  1.0173 -0.5443  0.4329
  831NA      NA 3276   1.549   0.789   0.180  0.1100 -0.2617  0.4482
  832NA      NA 3277   2.531   1.006   1.002  0.2465 -0.4166 -0.1437
  833NA      NA 3278   2.352   0.816   0.061 -0.1286  0.6883  0.1095
  834NA      NA 3279   1.904   1.349   1.067 -0.1625  0.1781  0.1188
  835NA      NA 3280   3.083   3.129   0.185 -0.0502  0.1209  0.5051
  836NA      NA 3281   2.048   1.168   0.761  0.3083  0.1655  0.0613
  837NA      NA 3282   2.561   1.078   1.388  0.7755  0.4040  0.3887
  838NA      NA 3283   2.879   2.784   0.251  0.2616 -0.0797  0.1228
  839NA      NA 3284   2.485   0.492   0.788 -0.0128  0.2129 -0.3979
  840NA      NA 3285   1.818   1.508   0.696  0.2617  0.1154 -0.5648
  841NA      NA 3286   1.959   1.329   0.365  0.0237  0.4650 -0.2123
  842NA      NA 3287   1.582   1.288   0.459  0.5839 -0.1744  0.3285
  843NA      NA 3288   2.505   0.630   3.076 -0.6011 -0.6725 -0.2427
  844NA      NA 3289   1.864   1.479   3.307  0.2758  0.2813  0.0528
  845NA      NA 3290   2.788   0.282   3.101 -0.1518  0.0979 -0.0694
  846NA      NA 3291   2.609   0.480   0.092  0.0129  0.4315 -0.0932
  847NA      NA 3292   2.501   3.301   0.559  0.4477 -0.0556 -0.0201
  848NA      NA 3293   2.279   0.831   0.758 -0.1320 -0.0519  0.4262
  849NA      NA 3294   2.744   0.153   0.817  0.1605  0.1709  0.0371
  850NA      NA 3295   1.843   3.036   0.506 -0.2407  0.0936 -0.0251
  851NA      NA 3296   2.392   0.660   1.104 -0.1267 -0.6229 -0.3389
  852NA      NA 3297   2.049   1.826   3.216 -0.2773 -0.6093  0.0745
  853NA      NA 3298   3.079   0.325   0.366  0.2122 -0.2652  0.4320
  854NA      NA 3299   2.272   3.093   0.302  0.3024  0.1489  0.5331
  855NA      NA 3300   2.410   2.934   3.319  0.2554 -0.2121 -0.0288
  856NA      NA 3301   2.523   1.167   3.286 -0.2990 -0.3057 -0.2292
  857NA      NA 3302   1.755   1.654   0.301  0.4102 -0.3008  0.3669
  858NA      NA 3303   1.802   0.988   0.463  0.1098  0.1991  0.2089
  859NA      NA 3304   2.213   1.000   0.393  0.1351 -0.1973  0.6003
  860NA      NA 3305   2.039   0.813   2.780  0.0081 -0.3088  0.1319
  861NA      NA 3306   2.154   1.665   0.238 -0.4051  0.1552  0.0075
  862NA      NA 3307   1.651   1.130   0.808 -0.5741  0.5481  0.8308
  863NA      NA 3308   2.737   2.976   0.606 -0.0449  0.1099 -0.3191
  864NA      NA 3309   2.336   2.948   0.657 -0.1039  0.6350 -0.1167
  865NA      NA 3310   1.926   1.266   1.468 -0.0431  0.0172 -0.0821
  866NA      NA 3311   2.100   0.605   3.107 -0.1730  0.4910 -0.0588
  867NA      NA 3312   2.049   1.304   3.003 -0.4082  0.0774  0.1821
  868NA      NA 3313   2.112   2.745   0.417 -0.4024  0.0656  0.1536
  869NA      NA 3314   2.947   2.636   0.633  0.1594  0.0945  0.3741
  870NA      NA 3315   2.019   0.633   0.482  0.4681  0.1432 -0.0919
  871NA      NA 3316   2.413   0.651   0.390 -0.2581  0.1034  0.1666
  872NA      NA 3317   1.782   0.044   0.285  0.0330 -0.0232 -0.0794
  873NA      NA 3318   1.708   0.611   3.189  0.4405  0.1891  0.0239
  874NA      NA 3319   3.013   3.273   3.148 -0.4875 -0.5520 -0.2990
  875NA      NA 3320   3.330   3.348   0.425  0.0335 -0.0510  0.3557
  876NA      NA 3321   3.142   0.153   0.756  0.2509 -0.2684 -0.0603
  877NA      NA 3322   0.143   3.163   0.088  0.2444  0.1649  0.4457
  878NA      NA 3323   2.857   0.132   0.120 -0.1156  0.5720 -0.4357
  879NA      NA 3324   0.123   0.315   0.302  0.1485 -0.5195 -0.1627
  880NA      NA 3325   2.783   2.920   3.209 -0.0563  0.1625 -0.1842
  881NA      NA 3326   2.562   2.603   0.732 -0.3821 -0.3543 -0.1320
  882NA      NA 3327   2.364   1.345   0.291  0.5229  0.1386  0.2509
  883NA      NA 3328   2.309   0.995   3.002 -0.5254  0.6917 -0.1332
  884NA      NA 3329   2.832   2.825   0.956  0.4178  0.1488 -0.3996
  885NA      NA 3330   2.606   1.548   0.541 -0.0982 -0.3771 -0.5099
  886NA      NA 3331   2.375   0.259   3.182 -0.1273 -0.0215  0.5802
  887NA      NA 3332   2.999   0.474   0.019  0.2191  0.0298  0.1174
  888NA      NA 3333   1.852   0.253   0.679  0.0356  0.1543  0.6600
  889NA      NA 3334   2.179   3.287   3.280  0.0461  0.0664  0.2601
  890NA      NA 3335   2.973   3.158   0.848 -0.1369 -0.0284 -0.0543
  891NA      NA 3336   2.120   1.132   0.009 -0.4833  0.2428 -0.2915
  892NA      NA 3337   2.331   3.106   2.954  0.2087 -0.0305 -0.1118
  893NA      NA 3338   3.159   2.994   0.524 -0.0932  0.0005  0.0332
  894NA      NA 3339   1.936   0.244   3.193  0.6925 -0.1125  0.4216
  895NA      NA 3340   2.667   0.290   0.445  0.0979 -0.0236  0.1966
  896NA      NA 3341   2.705   2.427   0.384  0.2914 -0.2134  0.1386
  897NA      NA 3342   2.298   1.353   0.986 -0.1975  0.2143 -0.0035
  898NA      NA 3343   2.326   2.388   0.481 -0.0425  0.5509 -0.1377
  899NA      NA 3344   2.238   2.537   0.104 -0.1554  0.1279 -0.1384
  900NA      NA 3345   2.492   2.764   0.322 -0.3006 -0.0595 -0.2835
  901NA      NA 3346   1.880   0.773   0.832 -0.7213  0.0156 -0.0847
  902NA      NA 3347   2.119   3.279   0.630 -0.3695  0.2008 -0.2096
  903NA      NA 3348   1.644   0.534   0.519  0.1651  0.9801  0.2479
  904NA      NA 3349   2.895   3.312   0.489  0.2309  0.7091  0.1748
  905NA      NA 3350   3.204   2.939   3.209 -0.1621  0.5367  0.5089
  906NA      NA 3351   2.432   0.111   0.185  0.4837  0.5130  0.5528
  907NA      NA 3352   2.150   0.990   1.098  0.0704  0.2456  0.5360
  908NA      NA 3353   1.608   3.273   0.744 -0.2770  0.1573  0.0635
  909NA      NA 3354   2.652   3.122   0.190 -0.0977  0.8355  0.0774
  910NA      NA 3355   1.885   0.946   3.095 -0.1018 -0.4636  0.3695
  911NA      NA 3356   2.594   3.292   3.190 -0.2076 -0.0191  0.6587
  912NA      NA 3357   2.622   1.013   0.301  0.0936 -0.1880 -0.5146
  913NA      NA 3358   1.947   0.807   0.111  0.2489 -0.3257  0.0855
  914NA      NA 3359   2.590   3.146   0.920 -0.3372  0.1831 -0.2313
  915NA      NA 3360   2.800   1.358   0.204  0.1075  0.2894 -0.1710
  916NA      NA 3361   2.091   0.460   0.857  0.0160 -0.9589 -0.0948
  917NA      NA 3362   1.753   2.894   0.138 -0.2536  0.2098  0.0335
  918NA      NA 3363   2.772   0.833   3.329 -0.2153 -0.0744 -0.5172
  919NA      NA 3364   1.827   2.507   0.398  0.1246  0.6000  0.0897
  920NA      NA 3365   2.336   0.136   0.883 -0.2777  0.0301 -0.4492
  921NA      NA 3366   2.829   3.326   1.161  0.4859 -0.4793 -0.0267
  922NA      NA 3367   2.452   1.173   0.665 -0.0545 -0.1441 -0.2171
  923NA      NA 3368   2.271   0.288   0.515 -0.3767 -0.3418 -0.2824
  924NA      NA 3369   2.287   1.489   3.270 -0.0393  0.4085 -0.1992
  925NA      NA 3370   2.564   1.672   0.182 -0.2161  0.1917 -0.1365
  926NA      NA 3371   2.208   1.519   0.635 -0.0257  0.0338  0.2334
  927NA      NA 3372   1.755   0.409   0.146  0.3665 -0.1148  0.1495
  928NA      NA 3373   1.714   1.134   0.075 -0.8823  0.5482 -0.8152
  929NA      NA 3374   2.183   0.459   0.130  0.0664 -0.0992 -0.3265
  930NA      NA 3375   3.260   0.121   0.051 -0.1413 -0.0472 -0.0740
  931CL      CL 3376   2.180   0.707   0.255  0.0269  0.1944  0.2152
  932CL      CL 3377   2.335   2.676   0.565  0.3732 -0.2686 -0.0485
  933CL      CL 3378   1.884   0.528   0.678  0.1410  0.3083  0.0027
  934CL      CL 3379   1.642   2.967   0.716  0.1907 -0.0230  0.0547
  935CL      CL 3380   2.212   1.265   0.506  0.4471 -0.1607 -0.0859
  936CL      CL 3381   2.121   3.020   0.507  0.2319  0.0675  0.1120
  937CL      CL 3382   2.112   0.740   0.972  0.1130  0.3255 -0.3157
  938CL      CL 3383   1.618   0.866   0.687 -0.3069  0.0436 -0.2423
  939CL      CL 3384   1.982   1.600   0.471  0.1918 -0.0261 -0.3128
  940CL      CL 3385   2.341   3.218   0.777 -0.2055  0.0314 -0.0342
  941CL      CL 3386   2.908   0.209   0.611  0.3559  0.3630  0.3557
  942CL      CL 3387   2.123   1.266   1.213  0.2409 -0.0201  0.4575
  943CL      CL 3388   2.132   1.414   0.145 -0.3054 -0.0197 -0.0976
  944CL      CL 3389   1.672   1.383   0.921 -0.0930  0.0762 -0.2642
  945CL      CL 3390   3.255   3.210   3.295  0.1109 -0.2269 -0.2550
  946CL      CL 3391   2.747   3.230   0.713  0.0413  0.6813 -0.2799
  947CL      CL 3392   1.885   1.054   0.961 -0.0959 -0.0684 -0.1366
  948CL      CL 3393   2.545   2.297   0.612  0.3299 -0.2928  0.6456
  949CL      CL 3394   2.809   3.067   1.092 -0.1176 -0.2967  0.3455
  950CL      CL 3395   2.736   2.690   0.473  0.2781  0.0279 -0.2089
  951CL      CL 3396   2.611   0.064   1.033  0.0658 -0.4657 -0.2779
  952CL      CL 3397   2.414   0.371   0.287 -0.1132  0.1580  0.2120
  953CL      CL 3398   3.346   3.070   0.321 -0.2799 -0.3924 -0.0832
  954CL      CL 3399   2.294   1.243   3.160 -0.2456  0.0625 -0.1134
  955CL      CL 3400   1.938   0.521   3.326 -0.3587  0.0253 -0.2449
  956CL      CL 3401   2.176   0.196   0.018 -0.1945  0.1405 -0.2881
  957CL      CL 3402   2.504   0.230   0.655  0.2440  0.2012 -0.0392
  958CL      CL 3403   1.781   0.705   0.328  0.1411  0.1869 -0.0300
  959CL      CL 3404   2.814   1.593   0.335  0.1108 -0.1288  0.1324
  960CL      CL 3405   2.393   1.620   0.379 -0.0076  0.1965 -0.2886
  961CL      CL 3406   1.707   0.870   3.310 -0.0754  0.0685 -0.2840
  962CL      CL 3407   2.772   1.082   0.074 -0.1000 -0.0346  0.2636
  963CL      CL 3408   1.690   3.139   0.280  0.2205  0.1035 -0.3512
  964CL      CL 3409   2.598   0.193   3.314  0.2503 -0.6663 -0.0017
  965CL      CL 3410   2.615   1.286   0.442  0.1318  0.1104  0.1683
  966CL      CL 3411   2.740   1.125   1.206 -0.2613  0.0922  0.2931
  967CL      CL 3412   2.078   2.468   0.309 -0.0686 -0.0863 -0.0001
  968CL      CL 3413   2.319   0.401   0.987  0.3963 -0.0902 -0.0287
  969CL      CL 3414   1.727   1.396   0.239 -0.3765 -0.8286  0.0411
  970CL      CL 3415   1.892   1.761   0.097 -0.1439 -0.1205  0.0136
  971CL      CL 3416   1.871   0.684   2.989 -0.2908 -0.6389  0.1213
  972CL      CL 3417   2.339   1.074   0.169 -0.1321 -0.0150 -0.2826
  973CL      CL 3418   2.775   0.537   3.227 -0.1169 -0.3125 -0.6186
  974CL      CL 3419   2.036   1.053   2.873  0.3848 -0.1253  0.0650
  975CL      CL 3420   2.550   1.410   0.069  0.1101  0.0540 -0.0484
  976CL      CL 3421   2.286   0.027   0.419 -0.0992 -0.0994  0.4049
  977CL      CL 3422   2.290   0.721   2.924  0.4073  0.3080 -0.3072
  978CL      CL 3423   1.844   3.305   0.588  0.1166  0.3708  0.2969
  979CL      CL 3424   2.376   0.944   1.226  0.2823  0.0485  0.3278
  980CL      CL 3425   2.443   1.440   0.743 -0.4581 -0.1444 -0.2662
  981CL      CL 3426   2.300   1.751   0.001 -0.0850 -0.2144 -0.4772
  982CL      CL 3427   2.846   0.398   0.230 -0.0427 -0.0126 -0.2073
  983CL      CL 3428   3.001   2.990   3.047  0.2078  0.4548  0.0886
  984CL      CL 3429   2.038   1.434   0.838 -0.0336  0.0033  0.0429
  985CL      CL 3430   2.978   2.911   0.744 -0.0894 -0.7537  0.2664
  986CL      CL 3431   1.833   2.774   0.375  0.4592  0.0057 -0.2448
  987CL      CL 3432   2.434   0.923   0.527 -0.0429 -0.2546 -0.3902
  988CL      CL 3433   2.561   3.035   3.082  0.2352 -0.3559  0.0723
  989CL      CL 3434   1.737   0.290   0.409 -0.0934  0.3729 -0.1964
  990CL      CL 3435   2.568   2.868   0.820 -0.2335  0.0487  0.1478
  991CL      CL 3436   3.087   2.873   0.097 -0.3160  0.2248  0.1825
  992CL      CL 3437   1.538   0.523   0.040 -0.1973  0.1775 -0.0142
  993CL      CL 3438   2.042   1.577   3.128  0.0952 -0.1710 -0.0465
  994CL      CL 3439   2.241   2.838   0.203 -0.1786 -0.0406  0.4308
  995CL      CL 3440   3.071   0.063   0.278 -0.1251  0.7381 -0.7998
  996CL      CL 3441   2.252   0.536   0.634  0.1431 -0.1178 -0.0351
  997CL      CL 3442   1.640   0.180   0.830 -0.1054  0.3174 -0.0362
  998CL      CL 3443   0.134   0.060   0.197 -0.0750  0.0404 -0.2349
  999CL      CL 3444   1.844   1.148   1.981 -0.0593  0.2118 -0.4885
 1000CL      CL 3445   2.651   2.849   0.100  0.3180 -0.0576  0.3785
 1001CL      CL 3446   2.416   3.213   0.071  0.3765  0.2643 -0.0890
 1002CL      CL 3447   2.511   3.044   0.427 -0.2276 -0.0488  0.0898
 1003CL      CL 3448   2.676   0.037   0.315  0.1451  0.0043 -0.0129
 1004CL      CL 3449   2.497   0.373   2.963  0.0352  0.0923 -0.5255
 1005CL      CL 3450   1.554   1.048   0.284 -0.0336  0.0825  0.0923
 1006CL      CL 3451   3.341   0.262   0.521  0.5445 -0.1089 -0.3495
 1007CL      CL 3452   1.812   1.219   0.585 -0.1278 -0.0516  0.1023
 1008CL      CL 3453   2.480   2.487   0.225 -0.3027 -0.4718 -0.6308
 1009CL      CL 3454   2.055   0.915   0.617 -0.2127  0.1039 -0.0922
 1010CL      CL 3455   2.029   0.617   2.593  0.2364 -0.0731  0.2942
 1011CL      CL 3456   1.943   1.066   0.233 -0.1543 -0.2057  0.4089
 1012CL      CL 3457   2.177   3.012   3.170  0.0914 -0.3019  0.0644
 1013CL      CL 3458   2.122   0.895   3.247  0.1676  0.0532  0.3498
 1014CL      CL 3459   3.237   0.411   0.144 -0.2272  0.0990  0.0054
 1015CL      CL 3460   2.814   2.551   0.859 -0.0348  0.2567 -0.2070
 1016CL      CL 3461   3.004   0.191   3.235  0.0694  0.3805 -0.2641
 1017CL      CL 3462   2.302   1.090   0.882 -0.0919  0.2976 -0.5195
 1018CL      CL 3463   2.113   0.194   0.736  0.0967 -0.0357  0.0207
 1019CL      CL 3464   3.137   3.258   0.629  0.0420  0.3428 -0.4725
 1020CL      CL 3465   1.898   1.201   3.207  0.1556  0.1003 -0.0097
 1021CL      CL 3466   1.733   2.218   2.989 -0.3893  0.1232  0.0681
 1022CL      CL 3467   2.535   0.755   0.891 -0.3219  0.0373  0.2024
 1023CL      CL 3468   2.832   3.184   3.338 -0.0691 -0.1632 -0.0001
 1024CL      CL 3469   1.746   0.146   0.020 -0.2627  0.2189  0.1638
 1025CL      CL 3470   2.323   0.014   3.062 -0.2650 -0.1665 -0.0058
 1026CL      CL 3471   2.376   0.538   3.301  0.1698  0.2119  0.0628
 1027CL      CL 3472   2.595   0.751   0.208 -0.2054 -0.0570 -0.1627
 1028CL      CL 3473   2.996   0.065   0.970  0.2335  0.0916  0.0783
 1029CL      CL 3474   2.901   3.046   0.391 -0.2541  0.2837  0.2465
 1030CL      CL 3475   2.538   0.886   3.171  0.1514 -0.4340  0.1108
   3.35145   3.35145   3.35145
