Generic title
 3875
    1PEO     C1    1   2.920   2.894   3.625
    1PEO     H3    2   2.878   2.872   3.526
    1PEO     H4    3   2.837   2.927   3.688
    1PEO      O    4   2.982   2.777   3.667
    1PEO     C2    5   3.122   2.802   3.715
    1PEO     H5    6   3.177   2.879   3.659
    1PEO     H6    7   3.180   2.709   3.704
    1PEO     C3    8   3.140   2.845   3.868
    1PEO     H7    9   3.243   2.826   3.900
    1PEO     H8   10   3.057   2.790   3.915
    1PEO     O1   11   3.106   2.989   3.883
    1PEO     C4   12   3.201   3.080   3.831
    1PEO     H9   13   3.173   3.186   3.836
    1PEO    H10   14   3.223   3.063   3.725
    1PEO     C5   15   3.336   3.075   3.913
    1PEO    H11   16   3.397   3.158   3.876
    1PEO    H12   17   3.383   2.984   3.875
    1PEO     O2   18   3.321   3.075   4.054
    1PEO     C6   19   3.247   3.191   4.114
    1PEO    H13   20   3.222   3.174   4.219
    1PEO    H14   21   3.146   3.190   4.071
    1PEO     C7   22   3.316   3.324   4.093
    1PEO    H15   23   3.423   3.306   4.106
    1PEO    H16   24   3.272   3.388   4.171
    1PEO     O3   25   3.292   3.377   3.963
    1PEO     C8   26   3.376   3.493   3.947
    1PEO    H17   27   3.389   3.550   4.040
    1PEO    H18   28   3.337   3.567   3.875
    1PEO     C9   29   3.514   3.449   3.902
    1PEO    H19   30   3.560   3.533   3.848
    1PEO    H20   31   3.511   3.366   3.831
    1PEO     O4   32   3.596   3.402   4.009
    1PEO    C10   33   3.703   3.491   4.045
    1PEO    H21   34   3.742   3.462   4.143
    1PEO    H22   35   3.678   3.597   4.047
    2PEO     C1   36   3.802   3.453   3.938
    2PEO     H3   37   3.892   3.510   3.967
    2PEO     H4   38   3.784   3.487   3.835
    2PEO      O   39   3.815   3.307   3.944
    2PEO     C2   40   3.916   3.249   3.866
    2PEO     H5   41   4.013   3.299   3.878
    2PEO     H6   42   3.877   3.267   3.765
    2PEO     C3   43   3.930   3.099   3.900
    2PEO     H7   44   4.013   3.062   3.838
    2PEO     H8   45   3.834   3.048   3.890
    2PEO     O1   46   3.984   3.080   4.035
    2PEO     C4   47   3.995   2.938   4.068
    2PEO     H9   48   3.906   2.883   4.037
    2PEO    H10   49   4.017   2.927   4.175
    2PEO     C5   50   4.105   2.856   3.993
    2PEO    H11   51   4.135   2.770   4.054
    2PEO    H12   52   4.199   2.913   3.987
    2PEO     O2   53   4.070   2.825   3.859
    2PEO     C6   54   3.994   2.714   3.824
    2PEO    H13   55   3.943   2.731   3.729
    2PEO    H14   56   3.916   2.690   3.897
    2PEO     C7   57   4.096   2.597   3.812
    2PEO    H15   58   4.121   2.558   3.911
    2PEO    H16   59   4.184   2.642   3.764
    2PEO     O3   60   4.044   2.491   3.727
    2PEO     C8   61   3.958   2.394   3.804
    2PEO    H17   62   3.855   2.431   3.808
    2PEO    H18   63   3.990   2.379   3.908
    2PEO     C9   64   3.962   2.276   3.696
    2PEO    H19   65   4.051   2.219   3.726
    2PEO    H20   66   3.975   2.311   3.594
    2PEO     O4   67   3.851   2.192   3.722
    2PEO    C10   68   3.722   2.236   3.667
    2PEO    H21   69   3.732   2.285   3.570
    2PEO    H22   70   3.681   2.312   3.735
    3PEO     C1   71   3.632   2.122   3.673
    3PEO     H3   72   3.661   2.056   3.756
    3PEO     H4   73   3.648   2.055   3.588
    3PEO      O   74   3.495   2.161   3.675
    3PEO     C2   75   3.440   2.212   3.547
    3PEO     H5   76   3.333   2.190   3.542
    3PEO     H6   77   3.489   2.161   3.463
    3PEO     C3   78   3.439   2.367   3.550
    3PEO     H7   79   3.443   2.387   3.658
    3PEO     H8   80   3.342   2.407   3.517
    3PEO     O1   81   3.545   2.435   3.481
    3PEO     C4   82   3.582   2.562   3.542
    3PEO     H9   83   3.669   2.603   3.489
    3PEO    H10   84   3.616   2.543   3.645
    3PEO     C5   85   3.475   2.675   3.516
    3PEO    H11   86   3.383   2.619   3.495
    3PEO    H12   87   3.490   2.747   3.436
    3PEO     O2   88   3.455   2.748   3.641
    3PEO     C6   89   3.565   2.799   3.718
    3PEO    H13   90   3.641   2.724   3.744
    3PEO    H14   91   3.530   2.845   3.810
    3PEO     C7   92   3.632   2.912   3.644
    3PEO    H15   93   3.674   2.992   3.706
    3PEO    H16   94   3.554   2.954   3.579
    3PEO     O3   95   3.741   2.862   3.560
    3PEO     C8   96   3.846   2.956   3.503
    3PEO    H17   97   3.930   2.905   3.455
    3PEO    H18   98   3.897   3.016   3.580
    3PEO     C9   99   3.767   3.058   3.404
    3PEO    H19  100   3.701   2.991   3.348
    3PEO    H20  101   3.837   3.106   3.334
    3PEO     O4  102   3.694   3.160   3.484
    3PEO    C10  103   3.605   3.234   3.415
    3PEO    H21  104   3.519   3.177   3.378
    3PEO    H22  105   3.642   3.298   3.334
    4PEO     C1  106   3.559   3.337   3.524
    4PEO     H3  107   3.649   3.389   3.562
    4PEO     H4  108   3.503   3.282   3.600
    4PEO      O  109   3.476   3.428   3.459
    4PEO     C2  110   3.421   3.515   3.549
    4PEO     H5  111   3.501   3.563   3.607
    4PEO     H6  112   3.355   3.454   3.614
    4PEO     C3  113   3.331   3.624   3.488
    4PEO     H7  114   3.268   3.585   3.407
    4PEO     H8  115   3.395   3.697   3.436
    4PEO     O1  116   3.236   3.693   3.581
    4PEO     C4  117   3.130   3.615   3.643
    4PEO     H9  118   3.127   3.634   3.751
    4PEO    H10  119   3.145   3.507   3.636
    4PEO     C5  120   3.001   3.671   3.586
    4PEO    H11  121   2.969   3.774   3.605
    4PEO    H12  122   2.925   3.609   3.635
    4PEO     O2  123   2.995   3.639   3.442
    4PEO     C6  124   2.899   3.539   3.417
    4PEO    H13  125   2.805   3.565   3.467
    4PEO    H14  126   2.944   3.455   3.472
    4PEO     C7  127   2.880   3.513   3.268
    4PEO    H15  128   2.816   3.588   3.220
    4PEO    H16  129   2.828   3.416   3.269
    4PEO     O3  130   3.006   3.505   3.202
    4PEO     C8  131   3.116   3.418   3.240
    4PEO    H17  132   3.152   3.443   3.340
    4PEO    H18  133   3.199   3.459   3.181
    4PEO     C9  134   3.073   3.273   3.225
    4PEO    H19  135   3.152   3.219   3.170
    4PEO    H20  136   2.990   3.268   3.153
    4PEO     O4  137   3.036   3.211   3.351
    4PEO    C10  138   3.134   3.192   3.451
    4PEO    H21  139   3.073   3.162   3.538
    4PEO    H22  140   3.187   3.285   3.477
    5PEO     C1  141   3.228   3.077   3.407
    5PEO     H3  142   3.294   3.064   3.494
    5PEO     H4  143   3.288   3.108   3.321
    5PEO      O  144   3.153   2.948   3.381
    5PEO     C2  145   3.232   2.832   3.355
    5PEO     H5  146   3.172   2.743   3.381
    5PEO     H6  147   3.310   2.845   3.431
    5PEO     C3  148   3.281   2.830   3.218
    5PEO     H7  149   3.303   2.931   3.181
    5PEO     H8  150   3.209   2.794   3.143
    5PEO     O1  151   3.396   2.741   3.207
    5PEO     C4  152   3.438   2.700   3.082
    5PEO     H9  153   3.359   2.630   3.052
    5PEO    H10  154   3.531   2.644   3.094
    5PEO     C5  155   3.474   2.812   2.987
    5PEO    H11  156   3.549   2.780   2.913
    5PEO    H12  157   3.534   2.886   3.040
    5PEO     O2  158   3.354   2.870   2.922
    5PEO     C6  159   3.258   2.784   2.853
    5PEO    H13  160   3.208   2.722   2.929
    5PEO    H14  161   3.309   2.716   2.784
    5PEO     C7  162   3.168   2.867   2.765
    5PEO    H15  163   3.124   2.820   2.676
    5PEO    H16  164   3.229   2.944   2.717
    5PEO     O3  165   3.069   2.944   2.846
    5PEO     C8  166   2.963   2.859   2.894
    5PEO    H17  167   2.905   2.914   2.969
    5PEO    H18  168   2.997   2.774   2.954
    5PEO     C9  169   2.871   2.822   2.779
    5PEO    H19  170   2.910   2.726   2.743
    5PEO    H20  171   2.874   2.884   2.688
    5PEO     O4  172   2.740   2.794   2.832
    5PEO    C10  173   2.663   2.906   2.874
    5PEO    H21  174   2.701   2.967   2.957
    5PEO    H22  175   2.561   2.879   2.906
    6PET     C9  176   2.633   2.998   2.753
    6PET     H6  177   2.534   3.045   2.761
    6PET     H7  178   2.633   2.927   2.669
    6PET     O2  179   2.741   3.095   2.729
    6PET     C8  180   2.767   3.197   2.820
    6PET     O1  181   2.681   3.223   2.906
    6PET     C4  182   2.899   3.268   2.805
    6PET     C5  183   2.995   3.219   2.719
    6PET     C6  184   3.116   3.294   2.711
    6PET     H4  185   3.196   3.254   2.649
    6PET     H3  186   2.975   3.136   2.652
    6PET     C3  187   2.926   3.382   2.882
    6PET     H2  188   2.854   3.420   2.954
    6PET     C2  189   3.041   3.458   2.871
    6PET     H1  190   3.057   3.547   2.930
    6PET     C1  191   3.142   3.414   2.783
    6PET     C7  192   3.272   3.491   2.771
    6PET     O3  193   3.294   3.597   2.832
    6PET     O4  194   3.365   3.429   2.700
    6PET    C10  195   3.486   3.503   2.670
    6PET     H8  196   3.530   3.542   2.763
    6PET     H9  197   3.483   3.596   2.612
    6PET    C11  198   3.575   3.401   2.594
    6PET    H10  199   3.675   3.445   2.584
    6PET    H11  200   3.546   3.406   2.489
    6PET    C12  201   3.607   3.252   2.655
    6PET    H13  202   3.626   3.183   2.572
    6PET    H14  203   3.517   3.210   2.701
    7PET     C9  204   3.731   3.251   2.753
    7PET     H6  205   3.814   3.296   2.697
    7PET     H7  206   3.762   3.150   2.783
    7PET     O2  207   3.704   3.322   2.872
    7PET     C8  208   3.791   3.308   2.975
    7PET     O1  209   3.869   3.218   2.996
    7PET     C4  210   3.761   3.405   3.095
    7PET     C5  211   3.632   3.459   3.105
    7PET     C6  212   3.618   3.572   3.194
    7PET     H4  213   3.518   3.612   3.202
    7PET     H3  214   3.550   3.411   3.054
    7PET     C3  215   3.863   3.429   3.189
    7PET     H2  216   3.958   3.377   3.186
    7PET     C2  217   3.841   3.526   3.287
    7PET     H1  218   3.926   3.537   3.353
    7PET     C1  219   3.726   3.608   3.279
    7PET     C7  220   3.706   3.712   3.384
    7PET     O3  221   3.775   3.711   3.485
    7PET     O4  222   3.602   3.800   3.365
    7PET    C10  223   3.559   3.888   3.467
    7PET     H8  224   3.652   3.928   3.508
    7PET     H9  225   3.484   3.838   3.530
    7PET    C11  226   3.493   4.012   3.395
    7PET    H10  227   3.432   3.967   3.315
    7PET    H11  228   3.561   4.079   3.341
    7PET    C12  229   3.408   4.112   3.485
    7PET    H13  230   3.390   4.199   3.422
    7PET    H14  231   3.461   4.149   3.574
    8PET     C9  232   3.271   4.067   3.524
    8PET     H6  233   3.230   4.005   3.443
    8PET     H7  234   3.199   4.149   3.538
    8PET     O2  235   3.283   3.987   3.646
    8PET     C8  236   3.173   3.953   3.714
    8PET     O1  237   3.054   3.980   3.673
    8PET     C4  238   3.203   3.910   3.862
    8PET     C5  239   3.329   3.853   3.900
    8PET     C6  240   3.350   3.814   4.032
    8PET     H4  241   3.451   3.788   4.061
    8PET     H3  242   3.417   3.843   3.837
    8PET     C3  243   3.110   3.928   3.957
    8PET     H2  244   3.019   3.977   3.926
    8PET     C2  245   3.122   3.880   4.085
    8PET     H1  246   3.035   3.892   4.150
    8PET     C1  247   3.245   3.826   4.123
    8PET     C7  248   3.263   3.772   4.260
    8PET     O3  249   3.186   3.774   4.358
    8PET     O4  250   3.401   3.730   4.272
    8PET    C10  251   3.445   3.695   4.405
    8PET     H8  252   3.386   3.608   4.436
    8PET     H9  253   3.415   3.771   4.477
    8PET    C11  254   3.595   3.654   4.412
    8PET    H10  255   3.647   3.744   4.376
    8PET    H11  256   3.607   3.569   4.345
    8PET    C12  257   3.638   3.601   4.552
    8PET    H13  258   3.618   3.685   4.619
    8PET    H14  259   3.746   3.587   4.534
    9PET     C9  260   3.568   3.477   4.607
    9PET     H6  261   3.460   3.492   4.625
    9PET     H7  262   3.603   3.441   4.705
    9PET     O2  263   3.581   3.369   4.506
    9PET     C8  264   3.510   3.256   4.520
    9PET     O1  265   3.443   3.226   4.617
    9PET     C4  266   3.519   3.161   4.404
    9PET     C5  267   3.426   3.051   4.410
    9PET     C6  268   3.437   2.946   4.313
    9PET     H4  269   3.369   2.863   4.332
    9PET     H3  270   3.353   3.036   4.489
    9PET     C3  271   3.608   3.166   4.293
    9PET     H2  272   3.674   3.253   4.285
    9PET     C2  273   3.609   3.062   4.193
    9PET     H1  274   3.671   3.079   4.106
    9PET     C1  275   3.527   2.950   4.207
    9PET     C7  276   3.537   2.835   4.111
    9PET     O3  277   3.632   2.824   4.032
    9PET     O4  278   3.436   2.736   4.125
    9PET    C10  279   3.432   2.634   4.029
    9PET     H8  280   3.525   2.576   4.031
    9PET     H9  281   3.427   2.682   3.931
    9PET    C11  282   3.305   2.550   4.043
    9PET    H10  283   3.223   2.609   4.085
    9PET    H11  284   3.316   2.470   4.116
    9PET    C12  285   3.248   2.495   3.913
    9PET    H13  286   3.330   2.438   3.869
    9PET    H14  287   3.226   2.572   3.838
   10PET     C9  288   3.127   2.390   3.931
   10PET     H6  289   3.036   2.441   3.965
   10PET     H7  290   3.152   2.305   3.995
   10PET     O2  291   3.094   2.335   3.802
   10PET     C8  292   3.000   2.235   3.793
   10PET     O1  293   2.946   2.189   3.892
   10PET     C4  294   2.977   2.187   3.647
   10PET     C5  295   3.056   2.245   3.548
   10PET     C6  296   3.050   2.196   3.409
   10PET     H4  297   3.115   2.256   3.347
   10PET     H3  298   3.116   2.335   3.558
   10PET     C3  299   2.900   2.072   3.606
   10PET     H2  300   2.844   2.025   3.687
   10PET     C2  301   2.895   2.024   3.471
   10PET     H1  302   2.830   1.941   3.447
   10PET     C1  303   2.974   2.084   3.374
   10PET     C7  304   2.965   2.022   3.240
   10PET     O3  305   2.936   1.903   3.215
   10PET     O4  306   2.965   2.112   3.138
   10PET    C10  307   2.978   2.059   3.002
   10PET     H8  308   2.893   1.998   2.971
   10PET     H9  309   3.069   1.999   3.016
   10PET    C11  310   3.019   2.171   2.902
   10PET    H10  311   2.939   2.242   2.878
   10PET    H11  312   3.038   2.119   2.807
   10PET    C12  313   3.144   2.254   2.927
   10PET    H13  314   3.163   2.332   2.852
   10PET    H14  315   3.233   2.191   2.921
   11PET     C9  316   3.147   2.327   3.055
   11PET     H6  317   3.230   2.398   3.064
   11PET     H7  318   3.144   2.259   3.141
   11PET     O2  319   3.019   2.406   3.073
   11PET     C8  320   3.004   2.489   3.185
   11PET     O1  321   3.083   2.484   3.277
   11PET     C4  322   2.874   2.561   3.187
   11PET     C5  323   2.849   2.659   3.284
   11PET     C6  324   2.730   2.735   3.291
   11PET     H4  325   2.725   2.813   3.366
   11PET     H3  326   2.933   2.683   3.348
   11PET     C3  327   2.775   2.539   3.094
   11PET     H2  328   2.783   2.465   3.014
   11PET     C2  329   2.649   2.607   3.098
   11PET     H1  330   2.580   2.586   3.018
   11PET     C1  331   2.632   2.705   3.200
   11PET     C7  332   2.499   2.777   3.200
   11PET     O3  333   2.408   2.755   3.117
   11PET     O4  334   2.495   2.877   3.295
   11PET    C10  335   2.383   2.953   3.301
   11PET     H8  336   2.339   2.986   3.206
   11PET     H9  337   2.405   3.045   3.358
   11PET    C11  338   2.254   2.882   3.365
   11PET    H10  339   2.224   2.802   3.297
   11PET    H11  340   2.178   2.961   3.376
   11PET    C12  341   2.287   2.820   3.504
   11PET    H13  342   2.320   2.893   3.579
   11PET    H14  343   2.375   2.757   3.493
   12PET     C9  344   2.174   2.742   3.567
   12PET     H6  345   2.094   2.811   3.598
   12PET     H7  346   2.210   2.682   3.652
   12PET     O2  347   2.115   2.649   3.480
   12PET     C8  348   2.185   2.534   3.437
   12PET     O1  349   2.295   2.501   3.471
   12PET     C4  350   2.109   2.439   3.354
   12PET     C5  351   1.977   2.464   3.315
   12PET     C6  352   1.903   2.378   3.230
   12PET     H4  353   1.801   2.403   3.202
   12PET     H3  354   1.938   2.560   3.349
   12PET     C3  355   2.168   2.317   3.311
   12PET     H2  356   2.265   2.285   3.348
   12PET     C2  357   2.097   2.227   3.232
   12PET     H1  358   2.146   2.136   3.199
   12PET     C1  359   1.969   2.260   3.184
   12PET     C7  360   1.885   2.175   3.099
   12PET     O3  361   1.914   2.060   3.065
   12PET     O4  362   1.777   2.234   3.042
   12PET    C10  363   1.702   2.157   2.948
   12PET     H8  364   1.684   2.058   2.992
   12PET     H9  365   1.775   2.150   2.865
   12PET    C11  366   1.583   2.243   2.891
   12PET    H10  367   1.502   2.255   2.964
   12PET    H11  368   1.537   2.183   2.812
   12PET    C12  369   1.617   2.385   2.829
   12PET    H13  370   1.514   2.414   2.805
   12PET    H14  371   1.661   2.364   2.731
   13PET     C9  372   1.706   2.496   2.901
   13PET     H6  373   1.674   2.488   3.006
   13PET     H7  374   1.681   2.595   2.862
   13PET     O2  375   1.847   2.468   2.870
   13PET     C8  376   1.941   2.528   2.947
   13PET     O1  377   1.921   2.611   3.027
   13PET     C4  378   2.083   2.469   2.919
   13PET     C5  379   2.113   2.361   2.831
   13PET     C6  380   2.243   2.311   2.814
   13PET     H4  381   2.273   2.231   2.746
   13PET     H3  382   2.032   2.308   2.781
   13PET     C3  383   2.193   2.525   2.990
   13PET     H2  384   2.172   2.610   3.054
   13PET     C2  385   2.316   2.462   2.988
   13PET     H1  386   2.384   2.489   3.068
   13PET     C1  387   2.339   2.354   2.907
   13PET     C7  388   2.470   2.280   2.899
   13PET     O3  389   2.581   2.332   2.895
   13PET     O4  390   2.447   2.145   2.900
   13PET    C10  391   2.549   2.049   2.939
   13PET     H8  392   2.647   2.071   2.895
   13PET     H9  393   2.524   1.949   2.900
   13PET    C11  394   2.573   2.043   3.094
   13PET    H10  395   2.655   1.974   3.118
   13PET    H11  396   2.478   2.003   3.133
   13PET    C12  397   2.605   2.169   3.167
   13PET    H13  398   2.527   2.243   3.147
   13PET    H14  399   2.699   2.221   3.145
   14PET     C9  400   2.588   2.144   3.319
   14PET     H6  401   2.670   2.077   3.351
   14PET     H7  402   2.486   2.107   3.335
   14PET     O2  403   2.598   2.276   3.380
   14PET     C8  404   2.620   2.262   3.518
   14PET     O1  405   2.635   2.157   3.584
   14PET     C4  406   2.633   2.399   3.588
   14PET     C5  407   2.653   2.396   3.730
   14PET     C6  408   2.665   2.519   3.802
   14PET     H4  409   2.706   2.525   3.903
   14PET     H3  410   2.669   2.307   3.790
   14PET     C3  411   2.618   2.524   3.527
   14PET     H2  412   2.595   2.521   3.421
   14PET     C2  413   2.607   2.645   3.602
   14PET     H1  414   2.575   2.734   3.549
   14PET     C1  415   2.637   2.642   3.736
   14PET     C7  416   2.621   2.768   3.819
   14PET     O3  417   2.634   2.766   3.941
   14PET     O4  418   2.603   2.887   3.744
   14PET    C10  419   2.600   3.006   3.821
   14PET     H8  420   2.640   3.091   3.764
   14PET     H9  421   2.668   2.994   3.906
   14PET    C11  422   2.451   3.038   3.863
   14PET    H10  423   2.422   2.955   3.928
   14PET    H11  424   2.385   3.034   3.775
   14PET    C12  425   2.426   3.179   3.914
   14PET    H13  426   2.329   3.170   3.964
   14PET    H14  427   2.410   3.252   3.834
   15PET     C9  428   2.522   3.230   4.032
   15PET     H6  429   2.476   3.324   4.064
   15PET     H7  430   2.625   3.245   3.995
   15PET     O2  431   2.518   3.133   4.123
   15PET     C8  432   2.574   3.151   4.242
   15PET     O1  433   2.600   3.261   4.285
   15PET     C4  434   2.590   3.026   4.325
   15PET     C5  435   2.574   2.898   4.267
   15PET     C6  436   2.588   2.791   4.343
   15PET     H4  437   2.583   2.694   4.294
   15PET     H3  438   2.543   2.887   4.164
   15PET     C3  439   2.616   3.040   4.467
   15PET     H2  440   2.622   3.138   4.514
   15PET     C2  441   2.634   2.924   4.540
   15PET     H1  442   2.643   2.927   4.649
   15PET     C1  443   2.618   2.798   4.478
   15PET     C7  444   2.636   2.677   4.561
   15PET     O3  445   2.646   2.678   4.684
   15PET     O4  446   2.665   2.560   4.485
   15PET    C10  447   2.689   2.437   4.558
   15PET     H8  448   2.596   2.407   4.608
   15PET     H9  449   2.763   2.458   4.636
   15PET    C11  450   2.737   2.320   4.468
   15PET    H10  451   2.660   2.273   4.405
   15PET    H11  452   2.759   2.240   4.540
   15PET    C12  453   2.867   2.345   4.379
   15PET    H13  454   2.915   2.250   4.354
   15PET    H14  455   2.930   2.385   4.459
   16PET     C9  456   2.849   2.430   4.251
   16PET     H6  457   2.757   2.421   4.191
   16PET     H7  458   2.916   2.390   4.174
   16PET     O2  459   2.901   2.559   4.282
   16PET     C8  460   2.928   2.636   4.171
   16PET     O1  461   2.926   2.599   4.060
   16PET     C4  462   2.947   2.778   4.206
   16PET     C5  463   2.985   2.825   4.333
   16PET     C6  464   2.988   2.953   4.376
   16PET     H4  465   3.006   2.976   4.481
   16PET     H3  466   2.994   2.749   4.410
   16PET     C3  467   2.918   2.884   4.113
   16PET     H2  468   2.886   2.852   4.015
   16PET     C2  469   2.938   3.013   4.142
   16PET     H1  470   2.908   3.094   4.076
   16PET     C1  471   2.962   3.055   4.280
   16PET     C7  472   2.955   3.200   4.317
   16PET     O3  473   2.998   3.245   4.424
   16PET     O4  474   2.907   3.274   4.219
   16PET    C10  475   2.878   3.414   4.249
   16PET     H8  476   2.965   3.479   4.265
   16PET     H9  477   2.812   3.424   4.336
   16PET    C11  478   2.797   3.481   4.143
   16PET    H10  479   2.740   3.564   4.187
   16PET    H11  480   2.726   3.417   4.088
   16PET    C12  481   2.899   3.538   4.031
   16PET    H13  482   2.984   3.586   4.081
   16PET    H14  483   2.844   3.611   3.971
   17PET     C9  484   2.948   3.433   3.937
   17PET     H6  485   2.983   3.348   3.996
   17PET     H7  486   3.025   3.485   3.878
   17PET     O2  487   2.838   3.411   3.850
   17PET     C8  488   2.862   3.346   3.730
   17PET     O1  489   2.967   3.297   3.709
   17PET     C4  490   2.739   3.327   3.645
   17PET     C5  491   2.614   3.402   3.674
   17PET     C6  492   2.498   3.377   3.605
   17PET     H4  493   2.407   3.431   3.633
   17PET     H3  494   2.604   3.473   3.756
   17PET     C3  495   2.741   3.240   3.528
   17PET     H2  496   2.830   3.180   3.510
   17PET     C2  497   2.627   3.243   3.442
   17PET     H1  498   2.613   3.194   3.347
   17PET     C1  499   2.501   3.304   3.478
   17PET     C7  500   2.372   3.295   3.394
   17PET     O3  501   2.264   3.314   3.449
   17PET     O4  502   2.393   3.276   3.261
   17PET    C10  503   2.280   3.282   3.174
   17PET     H8  504   2.206   3.359   3.201
   17PET     H9  505   2.227   3.187   3.190
   17PET    C11  506   2.331   3.286   3.027
   17PET    H10  507   2.365   3.183   3.007
   17PET    H11  508   2.413   3.357   3.012
   17PET    C12  509   2.222   3.303   2.925
   17PET    H13  510   2.173   3.397   2.951
   17PET    H14  511   2.158   3.217   2.948
   18PET     C9  512   2.275   3.294   2.785
   18PET     H6  513   2.370   3.241   2.776
   18PET     H7  514   2.286   3.384   2.722
   18PET     O2  515   2.165   3.221   2.714
   18PET     C8  516   2.170   3.092   2.691
   18PET     O1  517   2.260   3.021   2.726
   18PET     C4  518   2.056   3.036   2.612
   18PET     C5  519   2.064   2.904   2.559
   18PET     C6  520   1.970   2.854   2.471
   18PET     H4  521   1.979   2.759   2.420
   18PET     H3  522   2.160   2.855   2.574
   18PET     C3  523   1.933   3.107   2.587
   18PET     H2  524   1.915   3.202   2.637
   18PET     C2  525   1.834   3.057   2.508
   18PET     H1  526   1.741   3.111   2.488
   18PET     C1  527   1.859   2.930   2.450
   18PET     C7  528   1.748   2.874   2.380
   18PET     O3  529   1.654   2.940   2.337
   18PET     O4  530   1.747   2.738   2.352
   18PET    C10  531   1.672   2.685   2.236
   18PET     H8  532   1.722   2.730   2.150
   18PET     H9  533   1.570   2.726   2.242
   18PET    C11  534   1.680   2.532   2.245
   18PET    H10  535   1.602   2.485   2.183
   18PET    H11  536   1.653   2.504   2.347
   18PET    C12  537   1.816   2.472   2.206
   18PET    H13  538   1.844   2.512   2.108
   18PET    H14  539   1.811   2.363   2.197
   19PET     C9  540   1.935   2.489   2.294
   19PET     H6  541   1.897   2.473   2.396
   19PET     H7  542   1.978   2.590   2.291
   19PET     O2  543   2.030   2.385   2.261
   19PET     C8  544   2.145   2.373   2.339
   19PET     O1  545   2.161   2.420   2.452
   19PET     C4  546   2.231   2.258   2.281
   19PET     C5  547   2.210   2.209   2.150
   19PET     C6  548   2.274   2.091   2.107
   19PET     H4  549   2.236   2.033   2.024
   19PET     H3  550   2.137   2.254   2.083
   19PET     C3  551   2.332   2.200   2.361
   19PET     H2  552   2.350   2.234   2.462
   19PET     C2  553   2.402   2.091   2.308
   19PET     H1  554   2.479   2.043   2.368
   19PET     C1  555   2.371   2.036   2.182
   19PET     C7  556   2.439   1.914   2.125
   19PET     O3  557   2.368   1.823   2.084
   19PET     O4  558   2.575   1.914   2.136
   19PET    C10  559   2.647   1.809   2.078
   19PET     H8  560   2.665   1.822   1.971
   19PET     H9  561   2.595   1.714   2.094
   19PET    C11  562   2.784   1.800   2.154
   19PET    H10  563   2.830   1.899   2.155
   19PET    H11  564   2.850   1.726   2.108
   19PET    C12  565   2.780   1.739   2.298
   19PET    H13  566   2.886   1.726   2.321
   19PET    H14  567   2.731   1.641   2.304
   20PET     C9  568   2.701   1.811   2.405
   20PET     H6  569   2.727   1.765   2.501
   20PET     H7  570   2.595   1.809   2.378
   20PET     O2  571   2.748   1.950   2.402
   20PET     C8  572   2.701   2.031   2.497
   20PET     O1  573   2.616   1.998   2.575
   20PET     C4  574   2.792   2.157   2.517
   20PET     C5  575   2.791   2.248   2.630
   20PET     C6  576   2.880   2.361   2.636
   20PET     H4  577   2.891   2.429   2.720
   20PET     H3  578   2.740   2.237   2.725
   20PET     C3  579   2.884   2.191   2.417
   20PET     H2  580   2.895   2.124   2.332
   20PET     C2  581   2.971   2.293   2.427
   20PET     H1  582   3.050   2.305   2.353
   20PET     C1  583   2.960   2.387   2.528
   20PET     C7  584   3.042   2.506   2.535
   20PET     O3  585   3.054   2.577   2.633
   20PET     O4  586   3.110   2.515   2.418
   20PET    C10  587   3.215   2.614   2.425
   20PET     H8  588   3.281   2.611   2.513
   20PET     H9  589   3.168   2.713   2.425
   20PET    C11  590   3.303   2.618   2.292
   20PET    H10  591   3.341   2.719   2.270
   20PET    H11  592   3.239   2.596   2.206
   20PET    C12  593   3.414   2.505   2.288
   20PET    H13  594   3.470   2.511   2.194
   20PET    H14  595   3.365   2.409   2.305
   21PET     C9  596   3.517   2.529   2.403
   21PET     H6  597   3.583   2.443   2.422
   21PET     H7  598   3.465   2.529   2.499
   21PET     O2  599   3.585   2.649   2.375
   21PET     C8  600   3.685   2.696   2.458
   21PET     O1  601   3.724   2.651   2.561
   21PET     C4  602   3.728   2.838   2.414
   21PET     C5  603   3.674   2.894   2.298
   21PET     C6  604   3.698   3.027   2.258
   21PET     H4  605   3.636   3.073   2.181
   21PET     H3  606   3.599   2.841   2.240
   21PET     C3  607   3.830   2.902   2.478
   21PET     H2  608   3.881   2.849   2.557
   21PET     C2  609   3.862   3.040   2.445
   21PET     H1  610   3.943   3.080   2.506
   21PET     C1  611   3.784   3.108   2.338
   21PET     C7  612   3.806   3.250   2.306
   21PET     O3  613   3.862   3.323   2.386
   21PET     O4  614   3.777   3.283   2.178
   21PET    C10  615   3.792   3.412   2.118
   21PET     H8  616   3.896   3.437   2.092
   21PET     H9  617   3.766   3.496   2.184
   21PET    C11  618   3.696   3.438   1.994
   21PET    H10  619   3.706   3.539   1.953
   21PET    H11  620   3.592   3.432   2.028
   21PET    C12  621   3.703   3.339   1.882
   21PET    H13  622   3.678   3.239   1.919
   21PET    H14  623   3.807   3.326   1.848
   22PET     C9  624   3.625   3.369   1.752
   22PET     H6  625   3.702   3.385   1.675
   22PET     H7  626   3.577   3.465   1.773
   22PET     O2  627   3.541   3.266   1.708
   22PET     C8  628   3.427   3.239   1.775
   22PET     O1  629   3.396   3.289   1.884
   22PET     C4  630   3.346   3.131   1.704
   22PET     C5  631   3.342   3.124   1.561
   22PET     C6  632   3.276   3.013   1.505
   22PET     H4  633   3.287   2.995   1.398
   22PET     H3  634   3.374   3.204   1.494
   22PET     C3  635   3.263   3.056   1.790
   22PET     H2  636   3.270   3.063   1.898
   22PET     C2  637   3.205   2.947   1.726
   22PET     H1  638   3.150   2.879   1.791
   22PET     C1  639   3.205   2.928   1.591
   22PET     C7  640   3.123   2.807   1.536
   22PET     O3  641   3.140   2.784   1.419
   22PET     O4  642   3.033   2.747   1.609
   22PET    C10  643   2.957   2.628   1.561
   22PET     H8  644   3.025   2.546   1.535
   22PET     H9  645   2.890   2.651   1.478
   22PET    C11  646   2.873   2.586   1.682
   22PET    H10  647   2.929   2.591   1.776
   22PET    H11  648   2.835   2.484   1.669
   22PET    C12  649   2.751   2.674   1.712
   22PET    H13  650   2.669   2.641   1.647
   22PET    H14  651   2.770   2.779   1.687
   23PET     C9  652   2.692   2.675   1.853
   23PET     H6  653   2.687   2.573   1.894
   23PET     H7  654   2.592   2.717   1.843
   23PET     O2  655   2.789   2.769   1.930
   23PET     C8  656   2.779   2.774   2.064
   23PET     O1  657   2.682   2.726   2.132
   23PET     C4  658   2.896   2.827   2.136
   23PET     C5  659   3.003   2.865   2.061
   23PET     C6  660   3.119   2.922   2.126
   23PET     H4  661   3.199   2.968   2.070
   23PET     H3  662   2.996   2.857   1.953
   23PET     C3  663   2.895   2.850   2.276
   23PET     H2  664   2.805   2.817   2.328
   23PET     C2  665   3.006   2.908   2.340
   23PET     H1  666   3.013   2.913   2.448
   23PET     C1  667   3.117   2.948   2.267
   23PET     C7  668   3.225   3.019   2.340
   23PET     O3  669   3.248   3.007   2.460
   23PET     O4  670   3.302   3.101   2.258
   23PET    C10  671   3.377   3.210   2.323
   23PET     H8  672   3.468   3.181   2.378
   23PET     H9  673   3.317   3.265   2.397
   23PET    C11  674   3.407   3.318   2.218
   23PET    H10  675   3.389   3.287   2.115
   23PET    H11  676   3.516   3.324   2.230
   23PET    C12  677   3.347   3.467   2.229
   23PET    H13  678   3.326   3.473   2.337
   23PET    H14  679   3.252   3.473   2.175
   24PET     C9  680   3.436   3.584   2.175
   24PET     H6  681   3.544   3.563   2.181
   24PET     H7  682   3.426   3.681   2.225
   24PET     O2  683   3.397   3.592   2.044
   24PET     C8  684   3.465   3.671   1.962
   24PET     O1  685   3.566   3.735   1.996
   24PET     C4  686   3.415   3.673   1.815
   24PET     C5  687   3.321   3.578   1.771
   24PET     C6  688   3.295   3.570   1.629
   24PET     H4  689   3.225   3.496   1.591
   24PET     H3  690   3.263   3.519   1.841
   24PET     C3  691   3.495   3.733   1.719
   24PET     H2  692   3.585   3.789   1.742
   24PET     C2  693   3.458   3.734   1.584
   24PET     H1  694   3.523   3.797   1.524
   24PET     C1  695   3.351   3.653   1.536
   24PET     C7  696   3.298   3.659   1.395
   24PET     O3  697   3.194   3.603   1.362
   24PET     O4  698   3.371   3.743   1.317
   24PET    C10  699   3.328   3.796   1.191
   24PET     H8  700   3.320   3.709   1.125
   24PET     H9  701   3.409   3.858   1.151
   24PET    C11  702   3.196   3.892   1.205
   24PET    H10  703   3.111   3.859   1.266
   24PET    H11  704   3.164   3.903   1.101
   24PET    C12  705   3.232   4.033   1.249
   24PET    H13  706   3.142   4.095   1.260
   24PET    H14  707   3.300   4.086   1.181
   25PET     C9  708   3.306   4.048   1.390
   25PET     H6  709   3.327   4.155   1.389
   25PET     H7  710   3.389   3.976   1.392
   25PET     O2  711   3.217   4.021   1.493
   25PET     C8  712   3.278   4.005   1.614
   25PET     O1  713   3.396   4.035   1.633
   25PET     C4  714   3.191   3.953   1.718
   25PET     C5  715   3.069   3.890   1.686
   25PET     C6  716   2.990   3.847   1.793
   25PET     H4  717   2.888   3.816   1.773
   25PET     H3  718   3.020   3.876   1.589
   25PET     C3  719   3.244   3.947   1.850
   25PET     H2  720   3.340   3.995   1.869
   25PET     C2  721   3.169   3.879   1.952
   25PET     H1  722   3.213   3.872   2.051
   25PET     C1  723   3.037   3.830   1.926
   25PET     C7  724   2.953   3.753   2.026
   25PET     O3  725   2.845   3.701   1.996
   25PET     O4  726   3.026   3.726   2.145
   25PET    C10  727   2.947   3.678   2.254
   25PET     H8  728   2.889   3.590   2.224
   25PET     H9  729   2.881   3.755   2.296
   25PET    C11  730   3.042   3.647   2.361
   25PET    H10  731   3.134   3.704   2.342
   25PET    H11  732   3.057   3.538   2.360
   25PET    C12  733   2.991   3.675   2.500
   25PET    H13  734   2.933   3.767   2.507
   25PET    H14  735   3.077   3.686   2.567
   26PET     C9  736   2.897   3.569   2.551
   26PET     H6  737   2.851   3.604   2.645
   26PET     H7  738   2.941   3.468   2.548
   26PET     O2  739   2.783   3.553   2.454
   26PET     C8  740   2.667   3.493   2.500
   26PET     O1  741   2.641   3.474   2.615
   26PET     C4  742   2.562   3.470   2.382
   26PET     C5  743   2.424   3.435   2.416
   26PET     C6  744   2.332   3.388   2.317
   26PET     H4  745   2.230   3.362   2.343
   26PET     H3  746   2.399   3.446   2.522
   26PET     C3  747   2.598   3.454   2.247
   26PET     H2  748   2.692   3.492   2.208
   26PET     C2  749   2.499   3.414   2.148
   26PET     H1  750   2.517   3.400   2.042
   26PET     C1  751   2.363   3.380   2.182
   26PET     C7  752   2.264   3.321   2.076
   26PET     O3  753   2.301   3.319   1.961
   26PET     O4  754   2.140   3.286   2.123
   26PET    C10  755   2.047   3.248   2.020
   26PET     H8  756   2.090   3.164   1.964
   26PET     H9  757   2.043   3.321   1.939
   26PET    C11  758   1.913   3.206   2.087
   26PET    H10  759   1.825   3.226   2.025
   26PET    H11  760   1.895   3.281   2.165
   26PET    C12  761   1.907   3.070   2.148
   26PET    H13  762   1.812   3.057   2.201
   26PET    H14  763   1.969   3.060   2.237
   27PET     C9  764   1.898   2.942   2.055
   27PET     H6  765   1.804   2.947   1.998
   27PET     H7  766   1.903   2.847   2.110
   27PET     O2  767   2.013   2.937   1.966
   27PET     C8  768   2.007   2.830   1.874
   27PET     O1  769   1.916   2.755   1.865
   27PET     C4  770   2.140   2.822   1.795
   27PET     C5  771   2.241   2.914   1.822
   27PET     C6  772   2.347   2.925   1.733
   27PET     H4  773   2.418   3.007   1.742
   27PET     H3  774   2.228   2.987   1.901
   27PET     C3  775   2.137   2.735   1.686
   27PET     H2  776   2.056   2.666   1.668
   27PET     C2  777   2.249   2.744   1.594
   27PET     H1  778   2.264   2.672   1.514
   27PET     C1  779   2.352   2.837   1.622
   27PET     C7  780   2.461   2.851   1.523
   27PET     O3  781   2.477   2.767   1.433
   27PET     O4  782   2.521   2.978   1.526
   27PET    C10  783   2.651   2.988   1.454
   27PET     H8  784   2.652   2.941   1.355
   27PET     H9  785   2.730   2.944   1.516
   27PET    C11  786   2.678   3.131   1.440
   27PET    H10  787   2.671   3.186   1.535
   27PET    H11  788   2.592   3.178   1.390
   27PET    C12  789   2.815   3.180   1.377
   27PET    H13  790   2.822   3.288   1.360
   27PET    H14  791   2.821   3.148   1.272
   28PET     C9  792   2.936   3.121   1.449
   28PET     H6  793   3.023   3.165   1.400
   28PET     H7  794   2.922   3.014   1.426
   28PET     O2  795   2.922   3.130   1.596
   28PET     C8  796   2.974   3.235   1.674
   28PET     O1  797   3.036   3.321   1.625
   28PET     C4  798   2.934   3.220   1.820
   28PET     C5  799   2.818   3.154   1.864
   28PET     C6  800   2.790   3.137   1.998
   28PET     H4  801   2.705   3.073   2.024
   28PET     H3  802   2.749   3.095   1.805
   28PET     C3  803   3.013   3.284   1.909
   28PET     H2  804   3.099   3.340   1.875
   28PET     C2  805   2.993   3.261   2.050
   28PET     H1  806   3.054   3.305   2.128
   28PET     C1  807   2.882   3.188   2.091
   28PET     C7  808   2.840   3.191   2.239
   28PET     O3  809   2.914   3.225   2.326
   28PET     O4  810   2.730   3.114   2.257
   28PET    C10  811   2.688   3.102   2.384
   28PET     H8  812   2.674   3.200   2.432
   28PET     H9  813   2.760   3.045   2.443
   28PET    C11  814   2.543   3.049   2.395
   28PET    H10  815   2.474   3.121   2.351
   28PET    H11  816   2.511   3.048   2.499
   28PET    C12  817   2.521   2.910   2.325
   28PET    H13  818   2.577   2.833   2.380
   28PET    H14  819   2.569   2.918   2.227
   29PET     C9  820   2.371   2.881   2.311
   29PET     H6  821   2.328   2.958   2.247
   29PET     H7  822   2.332   2.888   2.413
   29PET     O2  823   2.357   2.745   2.255
   29PET     C8  824   2.245   2.721   2.195
   29PET     O1  825   2.142   2.780   2.214
   29PET     C4  826   2.260   2.613   2.087
   29PET     C5  827   2.388   2.574   2.042
   29PET     C6  828   2.388   2.474   1.946
   29PET     H4  829   2.485   2.435   1.917
   29PET     H3  830   2.478   2.620   2.081
   29PET     C3  831   2.145   2.564   2.028
   29PET     H2  832   2.047   2.597   2.060
   29PET     C2  833   2.146   2.473   1.924
   29PET     H1  834   2.054   2.431   1.883
   29PET     C1  835   2.271   2.426   1.884
   29PET     C7  836   2.277   2.319   1.775
   29PET     O3  837   2.189   2.311   1.698
   29PET     O4  838   2.390   2.239   1.782
   29PET    C10  839   2.403   2.137   1.670
   29PET     H8  840   2.391   2.180   1.570
   29PET     H9  841   2.325   2.064   1.693
   29PET    C11  842   2.554   2.076   1.679
   29PET    H10  843   2.567   1.990   1.612
   29PET    H11  844   2.569   2.049   1.785
   29PET    C12  845   2.670   2.184   1.653
   29PET    H13  846   2.614   2.278   1.664
   29PET    H14  847   2.692   2.191   1.546
   30PET     C9  848   2.789   2.154   1.739
   30PET     H6  849   2.863   2.215   1.686
   30PET     H7  850   2.809   2.046   1.733
   30PET     O2  851   2.754   2.201   1.866
   30PET     C8  852   2.853   2.288   1.924
   30PET     O1  853   2.961   2.295   1.873
   30PET     C4  854   2.804   2.361   2.060
   30PET     C5  855   2.880   2.468   2.107
   30PET     C6  856   2.847   2.518   2.238
   30PET     H4  857   2.917   2.586   2.286
   30PET     H3  858   2.966   2.492   2.046
   30PET     C3  859   2.681   2.311   2.119
   30PET     H2  860   2.613   2.234   2.083
   30PET     C2  861   2.643   2.374   2.243
   30PET     H1  862   2.547   2.349   2.288
   30PET     C1  863   2.728   2.475   2.298
   30PET     C7  864   2.685   2.530   2.433
   30PET     O3  865   2.743   2.632   2.482
   30PET     O4  866   2.569   2.479   2.487
   30PET    C10  867   2.529   2.510   2.621
   30PET     H8  868   2.618   2.513   2.687
   30PET     H9  869   2.460   2.433   2.656
   30PET    C11  870   2.449   2.639   2.617
   30PET    H10  871   2.361   2.633   2.552
   30PET    H11  872   2.510   2.725   2.587
   30PET    C12  873   2.402   2.673   2.762
   30PET    H13  874   2.316   2.738   2.781
   30PET    H14  875   2.489   2.704   2.820
   31SOL     OW  876   0.230   0.628   0.113
   31SOL    HW1  877   0.137   0.626   0.150
   31SOL    HW2  878   0.231   0.589   0.021
   32SOL     OW  879   0.685   1.012   0.665
   32SOL    HW1  880   0.754   0.996   0.735
   32SOL    HW2  881   0.612   1.069   0.703
   33SOL     OW  882   0.335   1.435   1.061
   33SOL    HW1  883   0.257   1.404   1.008
   33SOL    HW2  884   0.393   1.493   1.004
   34SOL     OW  885   0.122   0.643   0.563
   34SOL    HW1  886   0.077   0.555   0.580
   34SOL    HW2  887   0.121   0.697   0.647
   35SOL     OW  888   0.197   0.976   1.264
   35SOL    HW1  889   0.286   0.931   1.250
   35SOL    HW2  890   0.124   0.911   1.245
   36SOL     OW  891   1.466   1.417   0.953
   36SOL    HW1  892   1.407   1.423   1.033
   36SOL    HW2  893   1.451   1.329   0.907
   37SOL     OW  894   1.667   1.714   0.572
   37SOL    HW1  895   1.626   1.691   0.484
   37SOL    HW2  896   1.649   1.640   0.637
   38SOL     OW  897   1.394   0.469   1.674
   38SOL    HW1  898   1.374   0.512   1.762
   38SOL    HW2  899   1.472   0.407   1.683
   39SOL     OW  900   0.991   0.410   1.242
   39SOL    HW1  901   0.914   0.444   1.296
   39SOL    HW2  902   0.957   0.359   1.163
   40SOL     OW  903   0.865   0.348   0.195
   40SOL    HW1  904   0.924   0.411   0.146
   40SOL    HW2  905   0.884   0.254   0.166
   41SOL     OW  906   1.008   1.456   0.477
   41SOL    HW1  907   0.962   1.528   0.425
   41SOL    HW2  908   1.004   1.476   0.575
   42SOL     OW  909   0.321   0.943   0.242
   42SOL    HW1  910   0.403   0.982   0.200
   42SOL    HW2  911   0.294   0.861   0.193
   43SOL     OW  912   0.249   1.785   1.241
   43SOL    HW1  913   0.306   1.720   1.291
   43SOL    HW2  914   0.233   1.752   1.148
   44SOL     OW  915   0.935   0.236   0.480
   44SOL    HW1  916   0.887   0.277   0.402
   44SOL    HW2  917   1.034   0.234   0.461
   45SOL     OW  918   1.227   1.570   0.793
   45SOL    HW1  919   1.248   1.644   0.728
   45SOL    HW2  920   1.295   1.570   0.866
   46SOL     OW  921   0.459   1.152   0.741
   46SOL    HW1  922   0.388   1.125   0.806
   46SOL    HW2  923   0.433   1.124   0.648
   47SOL     OW  924   1.271   1.797   0.591
   47SOL    HW1  925   1.315   1.861   0.527
   47SOL    HW2  926   1.221   1.849   0.661
   48SOL     OW  927   0.561   0.222   1.147
   48SOL    HW1  928   0.599   0.138   1.184
   48SOL    HW2  929   0.473   0.241   1.191
   49SOL     OW  930   0.527   0.256   0.328
   49SOL    HW1  931   0.554   0.197   0.253
   49SOL    HW2  932   0.527   0.351   0.297
   50SOL     OW  933   0.367   1.100   0.501
   50SOL    HW1  934   0.360   1.183   0.445
   50SOL    HW2  935   0.371   1.020   0.441
   51SOL     OW  936   1.582   0.639   0.472
   51SOL    HW1  937   1.551   0.700   0.545
   51SOL    HW2  938   1.632   0.691   0.403
   52SOL     OW  939   0.504   0.050   1.740
   52SOL    HW1  940   0.462  -0.007   1.670
   52SOL    HW2  941   0.438   0.119   1.772
   53SOL     OW  942   0.732   0.634   1.064
   53SOL    HW1  943   0.791   0.608   0.988
   53SOL    HW2  944   0.704   0.730   1.053
   54SOL     OW  945   1.622   0.367   0.374
   54SOL    HW1  946   1.624   0.291   0.438
   54SOL    HW2  947   1.574   0.444   0.414
   55SOL     OW  948   0.980   1.573   1.700
   55SOL    HW1  949   0.960   1.617   1.612
   55SOL    HW2  950   1.019   1.482   1.684
   56SOL     OW  951   0.815   0.572   0.325
   56SOL    HW1  952   0.822   0.483   0.279
   56SOL    HW2  953   0.721   0.606   0.317
   57SOL     OW  954   1.347   1.059   1.234
   57SOL    HW1  955   1.371   0.996   1.160
   57SOL    HW2  956   1.257   1.099   1.216
   58SOL     OW  957   1.759   1.747   1.154
   58SOL    HW1  958   1.820   1.777   1.081
   58SOL    HW2  959   1.721   1.658   1.132
   59SOL     OW  960   0.083   1.258   1.022
   59SOL    HW1  961   0.078   1.257   1.122
   59SOL    HW2  962   0.000   1.217   0.984
   60SOL     OW  963   0.688   1.662   1.716
   60SOL    HW1  964   0.632   1.743   1.725
   60SOL    HW2  965   0.740   1.666   1.630
   61SOL     OW  966   0.916   0.910   0.291
   61SOL    HW1  967   0.979   0.948   0.223
   61SOL    HW2  968   0.956   0.827   0.330
   62SOL     OW  969   1.614   1.292   1.289
   62SOL    HW1  970   1.674   1.295   1.369
   62SOL    HW2  971   1.539   1.356   1.302
   63SOL     OW  972   1.039   1.098   0.696
   63SOL    HW1  973   0.969   1.051   0.750
   63SOL    HW2  974   1.098   1.030   0.653
   64SOL     OW  975   1.440   0.856   1.398
   64SOL    HW1  976   1.383   0.908   1.335
   64SOL    HW2  977   1.536   0.868   1.374
   65SOL     OW  978   1.183   1.335   0.119
   65SOL    HW1  979   1.084   1.324   0.121
   65SOL    HW2  980   1.217   1.350   0.212
   66SOL     OW  981   0.613   0.842   1.431
   66SOL    HW1  982   0.669   0.923   1.414
   66SOL    HW2  983   0.672   0.762   1.434
   67SOL     OW  984   1.450   1.220   1.633
   67SOL    HW1  985   1.441   1.210   1.732
   67SOL    HW2  986   1.546   1.213   1.607
   68SOL     OW  987   1.674   0.883   1.254
   68SOL    HW1  988   1.647   0.794   1.217
   68SOL    HW2  989   1.675   0.951   1.181
   69SOL     OW  990   1.730   0.934   1.517
   69SOL    HW1  991   1.768   1.025   1.532
   69SOL    HW2  992   1.722   0.917   1.418
   70SOL     OW  993   1.824   0.192   1.227
   70SOL    HW1  994   1.820   0.102   1.271
   70SOL    HW2  995   1.827   0.181   1.128
   71SOL     OW  996   0.317   0.547   1.280
   71SOL    HW1  997   0.355   0.488   1.352
   71SOL    HW2  998   0.357   0.521   1.192
   72SOL     OW  999   0.618   1.567   1.284
   72SOL    HW1 1000   0.613   1.649   1.341
   72SOL    HW2 1001   0.707   1.564   1.239
   73SOL     OW 1002   0.686   1.161   3.665
   73SOL    HW1 1003   0.746   1.240   3.679
   73SOL    HW2 1004   0.600   1.192   3.624
   74SOL     OW 1005   0.438   0.392   3.361
   74SOL    HW1 1006   0.520   0.336   3.370
   74SOL    HW2 1007   0.357   0.334   3.365
   75SOL     OW 1008   0.231   1.713   2.345
   75SOL    HW1 1009   0.265   1.790   2.399
   75SOL    HW2 1010   0.275   1.713   2.255
   76SOL     OW 1011   0.230   1.434   2.400
   76SOL    HW1 1012   0.204   1.530   2.400
   76SOL    HW2 1013   0.159   1.380   2.445
   77SOL     OW 1014   0.240   1.091   2.748
   77SOL    HW1 1015   0.254   1.007   2.800
   77SOL    HW2 1016   0.185   1.155   2.803
   78SOL     OW 1017   0.606   0.964   1.985
   78SOL    HW1 1018   0.613   1.048   1.931
   78SOL    HW2 1019   0.652   0.977   2.073
   79SOL     OW 1020   0.122   0.643   2.425
   79SOL    HW1 1021   0.077   0.555   2.442
   79SOL    HW2 1022   0.121   0.697   2.509
   80SOL     OW 1023   0.809   0.004   2.364
   80SOL    HW1 1024   0.849   0.095   2.355
   80SOL    HW2 1025   0.709   0.012   2.370
   81SOL     OW 1026   0.598   0.729   2.132
   81SOL    HW1 1027   0.622   0.798   2.064
   81SOL    HW2 1028   0.520   0.762   2.186
   82SOL     OW 1029   0.130   1.821   3.433
   82SOL    HW1 1030   0.120   1.806   3.532
   82SOL    HW2 1031   0.044   1.857   3.397
   83SOL     OW 1032   1.008   1.456   2.339
   83SOL    HW1 1033   0.962   1.528   2.287
   83SOL    HW2 1034   1.004   1.476   2.437
   84SOL     OW 1035   1.227   1.550   3.368
   84SOL    HW1 1036   1.233   1.473   3.432
   84SOL    HW2 1037   1.175   1.524   3.288
   85SOL     OW 1038   0.461   1.266   3.589
   85SOL    HW1 1039   0.411   1.267   3.503
   85SOL    HW2 1040   0.398   1.248   3.665
   86SOL     OW 1041   1.111   1.776   2.099
   86SOL    HW1 1042   1.051   1.714   2.149
   86SOL    HW2 1043   1.142   1.732   2.014
   87SOL     OW 1044   0.781   0.264   3.611
   87SOL    HW1 1045   0.848   0.203   3.654
   87SOL    HW2 1046   0.708   0.283   3.676
   88SOL     OW 1047   1.351   0.590   3.295
   88SOL    HW1 1048   1.379   0.547   3.380
   88SOL    HW2 1049   1.376   0.686   3.296
   89SOL     OW 1050   0.922   0.503   2.761
   89SOL    HW1 1051   0.897   0.494   2.665
   89SOL    HW2 1052   0.970   0.421   2.792
   90SOL     OW 1053   1.434   1.188   1.903
   90SOL    HW1 1054   1.466   1.112   1.960
   90SOL    HW2 1055   1.342   1.215   1.933
   91SOL     OW 1056   0.935   0.236   2.342
   91SOL    HW1 1057   0.887   0.277   2.264
   91SOL    HW2 1058   1.034   0.234   2.323
   92SOL     OW 1059   1.227   1.570   2.655
   92SOL    HW1 1060   1.248   1.644   2.590
   92SOL    HW2 1061   1.295   1.570   2.728
   93SOL     OW 1062   0.459   1.152   2.603
   93SOL    HW1 1063   0.388   1.125   2.668
   93SOL    HW2 1064   0.433   1.124   2.510
   94SOL     OW 1065   0.488   1.385   2.036
   94SOL    HW1 1066   0.401   1.370   2.083
   94SOL    HW2 1067   0.471   1.411   1.941
   95SOL     OW 1068   1.592   1.629   3.487
   95SOL    HW1 1069   1.619   1.663   3.397
   95SOL    HW2 1070   1.671   1.591   3.533
   96SOL     OW 1071   0.705   1.050   2.230
   96SOL    HW1 1072   0.691   1.057   2.329
   96SOL    HW2 1073   0.789   0.999   2.212
   97SOL     OW 1074   1.272   1.445   3.004
   97SOL    HW1 1075   1.319   1.458   3.091
   97SOL    HW2 1076   1.206   1.371   3.013
   98SOL     OW 1077   1.582   0.639   2.334
   98SOL    HW1 1078   1.551   0.700   2.407
   98SOL    HW2 1079   1.632   0.691   2.265
   99SOL     OW 1080   0.354   1.510   3.191
   99SOL    HW1 1081   0.333   1.466   3.104
   99SOL    HW2 1082   0.451   1.536   3.194
  100SOL     OW 1083   1.587   0.779   3.532
  100SOL    HW1 1084   1.495   0.817   3.527
  100SOL    HW2 1085   1.647   0.826   3.467
  101SOL     OW 1086   0.504   0.050   3.602
  101SOL    HW1 1087   0.462  -0.007   3.532
  101SOL    HW2 1088   0.438   0.119   3.634
  102SOL     OW 1089   0.037   1.310   3.144
  102SOL    HW1 1090   0.090   1.261   3.212
  102SOL    HW2 1091   0.059   1.408   3.149
  103SOL     OW 1092   0.307   0.063   2.480
  103SOL    HW1 1093   0.296   0.157   2.513
  103SOL    HW2 1094   0.302   0.000   2.557
  104SOL     OW 1095   1.540   0.274   1.987
  104SOL    HW1 1096   1.479   0.199   2.010
  104SOL    HW2 1097   1.562   0.326   2.070
  105SOL     OW 1098   1.303   0.838   1.904
  105SOL    HW1 1099   1.337   0.745   1.919
  105SOL    HW2 1100   1.321   0.865   1.809
  106SOL     OW 1101   1.160   0.207   3.339
  106SOL    HW1 1102   1.160   0.271   3.416
  106SOL    HW2 1103   1.188   0.255   3.256
  107SOL     OW 1104   0.671   0.464   3.131
  107SOL    HW1 1105   0.637   0.375   3.101
  107SOL    HW2 1106   0.697   0.518   3.051
  108SOL     OW 1107   1.759   1.747   3.016
  108SOL    HW1 1108   1.820   1.777   2.943
  108SOL    HW2 1109   1.721   1.658   2.994
  109SOL     OW 1110   0.263   0.326   2.582
  109SOL    HW1 1111   0.184   0.377   2.548
  109SOL    HW2 1112   0.254   0.311   2.680
  110SOL     OW 1113   0.916   0.910   2.153
  110SOL    HW1 1114   0.979   0.948   2.085
  110SOL    HW2 1115   0.956   0.827   2.192
  111SOL     OW 1116   1.614   1.292   3.151
  111SOL    HW1 1117   1.674   1.295   3.231
  111SOL    HW2 1118   1.539   1.356   3.164
  112SOL     OW 1119   0.072   0.166   2.180
  112SOL    HW1 1120   0.055   0.249   2.126
  112SOL    HW2 1121   0.162   0.129   2.158
  113SOL     OW 1122   0.613   0.842   3.293
  113SOL    HW1 1123   0.669   0.923   3.276
  113SOL    HW2 1124   0.672   0.762   3.296
  114SOL     OW 1125   1.450   1.220   3.495
  114SOL    HW1 1126   1.441   1.210   3.594
  114SOL    HW2 1127   1.546   1.213   3.469
  115SOL     OW 1128   1.705   1.487   2.966
  115SOL    HW1 1129   1.612   1.462   2.939
  115SOL    HW2 1130   1.731   1.437   3.048
  116SOL     OW 1131   1.300   0.453   2.553
  116SOL    HW1 1132   1.241   0.533   2.557
  116SOL    HW2 1133   1.315   0.418   2.646
  117SOL     OW 1134   1.593   0.221   2.744
  117SOL    HW1 1135   1.509   0.220   2.798
  117SOL    HW2 1136   1.595   0.304   2.688
  118SOL     OW 1137   0.875   1.646   2.199
  118SOL    HW1 1138   0.798   1.611   2.145
  118SOL    HW2 1139   0.843   1.717   2.261
  119SOL     OW 1140   0.685   1.012   4.389
  119SOL    HW1 1141   0.754   0.996   4.459
  119SOL    HW2 1142   0.612   1.069   4.427
  120SOL     OW 1143   0.230   1.434   4.262
  120SOL    HW1 1144   0.204   1.530   4.262
  120SOL    HW2 1145   0.159   1.380   4.307
  121SOL     OW 1146   0.240   1.091   4.610
  121SOL    HW1 1147   0.254   1.007   4.662
  121SOL    HW2 1148   0.185   1.155   4.665
  122SOL     OW 1149   0.620   1.786   5.163
  122SOL    HW1 1150   0.528   1.769   5.198
  122SOL    HW2 1151   0.648   1.878   5.189
  123SOL     OW 1152   0.809   0.004   4.226
  123SOL    HW1 1153   0.849   0.095   4.217
  123SOL    HW2 1154   0.709   0.012   4.232
  124SOL     OW 1155   1.667   1.714   4.296
  124SOL    HW1 1156   1.626   1.691   4.208
  124SOL    HW2 1157   1.649   1.640   4.361
  125SOL     OW 1158   0.973   0.890   5.296
  125SOL    HW1 1159   1.019   0.806   5.267
  125SOL    HW2 1160   0.917   0.924   5.221
  126SOL     OW 1161   1.111   1.776   3.961
  126SOL    HW1 1162   1.051   1.714   4.011
  126SOL    HW2 1163   1.142   1.732   3.876
  127SOL     OW 1164   1.632   1.377   3.805
  127SOL    HW1 1165   1.600   1.471   3.795
  127SOL    HW2 1166   1.556   1.314   3.793
  128SOL     OW 1167   1.400   0.107   4.150
  128SOL    HW1 1168   1.376   0.070   4.060
  128SOL    HW2 1169   1.499   0.123   4.154
  129SOL     OW 1170   0.888   1.514   4.919
  129SOL    HW1 1171   0.865   1.489   4.825
  129SOL    HW2 1172   0.949   1.445   4.958
  130SOL     OW 1173   0.297   0.035   3.895
  130SOL    HW1 1174   0.346   0.119   3.874
  130SOL    HW2 1175   0.359  -0.030   3.940
  131SOL     OW 1176   0.459   1.152   4.465
  131SOL    HW1 1177   0.388   1.125   4.530
  131SOL    HW2 1178   0.433   1.124   4.372
  132SOL     OW 1179   1.429   1.173   4.591
  132SOL    HW1 1180   1.374   1.089   4.584
  132SOL    HW2 1181   1.455   1.202   4.499
  133SOL     OW 1182   0.915   0.089   5.126
  133SOL    HW1 1183   0.940   0.069   5.031
  133SOL    HW2 1184   0.987   0.145   5.168
  134SOL     OW 1185   0.980   1.116   5.443
  134SOL    HW1 1186   0.881   1.122   5.453
  134SOL    HW2 1187   1.003   1.036   5.387
  135SOL     OW 1188   1.023   0.766   4.690
  135SOL    HW1 1189   1.038   0.787   4.786
  135SOL    HW2 1190   0.993   0.671   4.681
  136SOL     OW 1191   0.350   0.898   5.528
  136SOL    HW1 1192   0.426   0.942   5.576
  136SOL    HW2 1193   0.385   0.851   5.446
  137SOL     OW 1194   1.303   0.838   3.766
  137SOL    HW1 1195   1.337   0.745   3.781
  137SOL    HW2 1196   1.321   0.865   3.671
  138SOL     OW 1197   0.008   1.326   3.924
  138SOL    HW1 1198  -0.085   1.347   3.893
  138SOL    HW2 1199   0.018   1.227   3.937
  139SOL     OW 1200   0.040   0.544   4.838
  139SOL    HW1 1201   0.125   0.511   4.797
  139SOL    HW2 1202   0.053   0.559   4.936
  140SOL     OW 1203   0.252   1.564   5.468
  140SOL    HW1 1204   0.222   1.621   5.544
  140SOL    HW2 1205   0.245   1.467   5.494
  141SOL     OW 1206   1.302   0.855   4.033
  141SOL    HW1 1207   1.216   0.824   4.075
  141SOL    HW2 1208   1.298   0.841   3.934
  142SOL     OW 1209   1.759   1.747   4.878
  142SOL    HW1 1210   1.820   1.777   4.805
  142SOL    HW2 1211   1.721   1.658   4.856
  143SOL     OW 1212   1.726   0.135   4.247
  143SOL    HW1 1213   1.799   0.118   4.180
  143SOL    HW2 1214   1.695   0.048   4.285
  144SOL     OW 1215   0.830   1.273   5.146
  144SOL    HW1 1216   0.825   1.306   5.241
  144SOL    HW2 1217   0.744   1.292   5.100
  145SOL     OW 1218   1.014   0.236   4.695
  145SOL    HW1 1219   1.006   0.200   4.602
  145SOL    HW2 1220   1.012   0.160   4.760
  146SOL     OW 1221   0.613   0.842   5.155
  146SOL    HW1 1222   0.669   0.923   5.138
  146SOL    HW2 1223   0.672   0.762   5.158
  147SOL     OW 1224   1.493   1.767   4.683
  147SOL    HW1 1225   1.526   1.831   4.614
  147SOL    HW2 1226   1.559   1.761   4.758
  148SOL     OW 1227   0.859   1.374   3.740
  148SOL    HW1 1228   0.813   1.389   3.828
  148SOL    HW2 1229   0.903   1.459   3.710
  149SOL     OW 1230   0.221   1.314   5.568
  149SOL    HW1 1231   0.156   1.241   5.547
  149SOL    HW2 1232   0.225   1.328   5.666
  150SOL     OW 1233   1.705   1.487   4.828
  150SOL    HW1 1234   1.612   1.462   4.801
  150SOL    HW2 1235   1.731   1.437   4.910
  151SOL     OW 1236   0.317   0.547   5.004
  151SOL    HW1 1237   0.355   0.488   5.076
  151SOL    HW2 1238   0.357   0.521   4.916
  152SOL     OW 1239   0.812   1.586   4.411
  152SOL    HW1 1240   0.844   1.596   4.317
  152SOL    HW2 1241   0.733   1.524   4.413
  153SOL     OW 1242   1.424   0.214   4.836
  153SOL    HW1 1243   1.476   0.149   4.891
  153SOL    HW2 1244   1.375   0.277   4.897
  154SOL     OW 1245   1.632   1.377   5.667
  154SOL    HW1 1246   1.600   1.471   5.657
  154SOL    HW2 1247   1.556   1.314   5.655
  155SOL     OW 1248   0.008   1.326   5.786
  155SOL    HW1 1249  -0.085   1.347   5.755
  155SOL    HW2 1250   0.018   1.227   5.799
  156SOL     OW 1251   0.686   3.023   1.803
  156SOL    HW1 1252   0.746   3.102   1.817
  156SOL    HW2 1253   0.600   3.054   1.762
  157SOL     OW 1254   0.438   2.254   1.499
  157SOL    HW1 1255   0.520   2.198   1.508
  157SOL    HW2 1256   0.357   2.196   1.503
  158SOL     OW 1257   0.231   3.575   0.483
  158SOL    HW1 1258   0.265   3.652   0.537
  158SOL    HW2 1259   0.275   3.575   0.393
  159SOL     OW 1260   0.240   2.953   0.886
  159SOL    HW1 1261   0.254   2.869   0.938
  159SOL    HW2 1262   0.185   3.017   0.941
  160SOL     OW 1263   1.842   3.629   0.359
  160SOL    HW1 1264   1.896   3.600   0.439
  160SOL    HW2 1265   1.872   3.719   0.330
  161SOL     OW 1266   0.613   3.227   0.726
  161SOL    HW1 1267   0.564   3.140   0.735
  161SOL    HW2 1268   0.590   3.270   0.639
  162SOL     OW 1269   1.466   3.279   0.953
  162SOL    HW1 1270   1.407   3.285   1.033
  162SOL    HW2 1271   1.451   3.191   0.907
  163SOL     OW 1272   0.598   2.591   0.270
  163SOL    HW1 1273   0.622   2.660   0.202
  163SOL    HW2 1274   0.520   2.624   0.324
  164SOL     OW 1275   0.807   2.467   1.465
  164SOL    HW1 1276   0.760   2.464   1.554
  164SOL    HW2 1277   0.756   2.412   1.399
  165SOL     OW 1278   0.865   2.210   0.195
  165SOL    HW1 1279   0.924   2.273   0.146
  165SOL    HW2 1280   0.884   2.116   0.166
  166SOL     OW 1281   1.008   3.318   0.477
  166SOL    HW1 1282   0.962   3.390   0.425
  166SOL    HW2 1283   1.004   3.338   0.575
  167SOL     OW 1284   0.351   3.663   0.853
  167SOL    HW1 1285   0.401   3.577   0.859
  167SOL    HW2 1286   0.416   3.740   0.850
  168SOL     OW 1287   0.464   3.605   0.323
  168SOL    HW1 1288   0.497   3.644   0.409
  168SOL    HW2 1289   0.540   3.598   0.258
  169SOL     OW 1290   0.935   2.098   0.480
  169SOL    HW1 1291   0.887   2.139   0.402
  169SOL    HW2 1292   1.034   2.096   0.461
  170SOL     OW 1293   0.866   2.316   0.642
  170SOL    HW1 1294   0.834   2.388   0.580
  170SOL    HW2 1295   0.890   2.235   0.589
  171SOL     OW 1296   1.429   3.035   0.867
  171SOL    HW1 1297   1.374   2.951   0.860
  171SOL    HW2 1298   1.455   3.064   0.775
  172SOL     OW 1299   1.466   2.452   0.992
  172SOL    HW1 1300   1.436   2.357   0.999
  172SOL    HW2 1301   1.539   2.468   1.058
  173SOL     OW 1302   0.488   3.247   0.174
  173SOL    HW1 1303   0.401   3.232   0.221
  173SOL    HW2 1304   0.471   3.273   0.079
  174SOL     OW 1305   1.390   2.437   0.078
  174SOL    HW1 1306   1.336   2.416   0.159
  174SOL    HW2 1307   1.481   2.396   0.087
  175SOL     OW 1308   0.915   1.951   1.402
  175SOL    HW1 1309   0.940   1.931   1.307
  175SOL    HW2 1310   0.987   2.007   1.444
  176SOL     OW 1311   0.367   2.962   0.501
  176SOL    HW1 1312   0.360   3.045   0.445
  176SOL    HW2 1313   0.371   2.882   0.441
  177SOL     OW 1314   0.566   2.399   0.865
  177SOL    HW1 1315   0.578   2.465   0.791
  177SOL    HW2 1316   0.612   2.433   0.948
  178SOL     OW 1317   0.354   3.372   1.329
  178SOL    HW1 1318   0.333   3.328   1.242
  178SOL    HW2 1319   0.451   3.398   1.332
  179SOL     OW 1320   0.573   2.732   1.029
  179SOL    HW1 1321   0.617   2.821   1.020
  179SOL    HW2 1322   0.510   2.732   1.106
  180SOL     OW 1323   0.307   1.925   0.618
  180SOL    HW1 1324   0.296   2.019   0.651
  180SOL    HW2 1325   0.302   1.862   0.695
  181SOL     OW 1326   1.859   3.380   1.605
  181SOL    HW1 1327   1.873   3.407   1.510
  181SOL    HW2 1328   1.942   3.402   1.658
  182SOL     OW 1329   1.068   3.195   0.849
  182SOL    HW1 1330   1.075   3.111   0.794
  182SOL    HW2 1331   1.130   3.264   0.813
  183SOL     OW 1332   0.319   2.672   0.949
  183SOL    HW1 1333   0.412   2.708   0.954
  183SOL    HW2 1334   0.313   2.587   1.001
  184SOL     OW 1335   1.657   2.466   1.206
  184SOL    HW1 1336   1.619   2.397   1.268
  184SOL    HW2 1337   1.739   2.430   1.162
  185SOL     OW 1338   1.726   1.997   0.523
  185SOL    HW1 1339   1.799   1.980   0.456
  185SOL    HW2 1340   1.695   1.910   0.561
  186SOL     OW 1341   0.263   2.188   0.720
  186SOL    HW1 1342   0.184   2.239   0.686
  186SOL    HW2 1343   0.254   2.173   0.818
  187SOL     OW 1344   0.916   2.772   0.291
  187SOL    HW1 1345   0.979   2.810   0.223
  187SOL    HW2 1346   0.956   2.689   0.330
  188SOL     OW 1347   0.105   2.875   1.726
  188SOL    HW1 1348   0.028   2.842   1.780
  188SOL    HW2 1349   0.190   2.845   1.768
  189SOL     OW 1350   0.672   2.065   1.489
  189SOL    HW1 1351   0.762   2.049   1.449
  189SOL    HW2 1352   0.680   2.070   1.588
  190SOL     OW 1353   0.072   2.028   0.318
  190SOL    HW1 1354   0.055   2.111   0.264
  190SOL    HW2 1355   0.162   1.991   0.296
  191SOL     OW 1356   0.716   2.427   1.708
  191SOL    HW1 1357   0.735   2.492   1.782
  191SOL    HW2 1358   0.776   2.347   1.717
  192SOL     OW 1359   0.859   3.236   0.016
  192SOL    HW1 1360   0.813   3.251   0.104
  192SOL    HW2 1361   0.903   3.321  -0.014
  193SOL     OW 1362   0.221   3.176   1.844
  193SOL    HW1 1363   0.156   3.103   1.823
  193SOL    HW2 1364   0.225   3.190   1.942
  194SOL     OW 1365   0.672   3.253   1.624
  194SOL    HW1 1366   0.594   3.203   1.662
  194SOL    HW2 1367   0.669   3.348   1.655
  195SOL     OW 1368   0.317   2.409   1.280
  195SOL    HW1 1369   0.355   2.350   1.352
  195SOL    HW2 1370   0.357   2.383   1.192
  196SOL     OW 1371   0.812   3.448   0.687
  196SOL    HW1 1372   0.844   3.458   0.593
  196SOL    HW2 1373   0.733   3.386   0.689
  197SOL     OW 1374   0.618   3.429   1.284
  197SOL    HW1 1375   0.613   3.511   1.341
  197SOL    HW2 1376   0.707   3.426   1.239
  198SOL     OW 1377   0.875   3.508   0.337
  198SOL    HW1 1378   0.798   3.473   0.283
  198SOL    HW2 1379   0.843   3.579   0.399
  199SOL     OW 1380   0.685   2.874   2.527
  199SOL    HW1 1381   0.754   2.858   2.597
  199SOL    HW2 1382   0.612   2.931   2.565
  200SOL     OW 1383   0.438   2.254   3.361
  200SOL    HW1 1384   0.520   2.198   3.370
  200SOL    HW2 1385   0.357   2.196   3.365
  201SOL     OW 1386   0.620   3.648   3.301
  201SOL    HW1 1387   0.528   3.631   3.336
  201SOL    HW2 1388   0.648   3.740   3.327
  202SOL     OW 1389   0.613   3.227   2.588
  202SOL    HW1 1390   0.564   3.140   2.597
  202SOL    HW2 1391   0.590   3.270   2.501
  203SOL     OW 1392   1.466   3.279   2.815
  203SOL    HW1 1393   1.407   3.285   2.895
  203SOL    HW2 1394   1.451   3.191   2.769
  204SOL     OW 1395   0.807   2.467   3.327
  204SOL    HW1 1396   0.760   2.464   3.416
  204SOL    HW2 1397   0.756   2.412   3.261
  205SOL     OW 1398   1.719   2.447   3.693
  205SOL    HW1 1399   1.693   2.536   3.657
  205SOL    HW2 1400   1.717   2.379   3.620
  206SOL     OW 1401   1.362   3.006   2.407
  206SOL    HW1 1402   1.445   2.977   2.359
  206SOL    HW2 1403   1.313   3.073   2.351
  207SOL     OW 1404   1.008   3.318   2.339
  207SOL    HW1 1405   0.962   3.390   2.287
  207SOL    HW2 1406   1.004   3.338   2.437
  208SOL     OW 1407   0.464   3.605   2.185
  208SOL    HW1 1408   0.497   3.644   2.271
  208SOL    HW2 1409   0.540   3.598   2.120
  209SOL     OW 1410   0.382   2.562   2.342
  209SOL    HW1 1411   0.427   2.472   2.339
  209SOL    HW2 1412   0.288   2.551   2.375
  210SOL     OW 1413   0.781   2.126   3.611
  210SOL    HW1 1414   0.848   2.065   3.654
  210SOL    HW2 1415   0.708   2.145   3.676
  211SOL     OW 1416   0.935   2.098   2.342
  211SOL    HW1 1417   0.887   2.139   2.264
  211SOL    HW2 1418   1.034   2.096   2.323
  212SOL     OW 1419   1.227   3.432   2.655
  212SOL    HW1 1420   1.248   3.506   2.590
  212SOL    HW2 1421   1.295   3.432   2.728
  213SOL     OW 1422   1.032   2.411   1.878
  213SOL    HW1 1423   0.991   2.493   1.839
  213SOL    HW2 1424   1.096   2.437   1.951
  214SOL     OW 1425   0.078   2.418   3.248
  214SOL    HW1 1426   0.170   2.417   3.207
  214SOL    HW2 1427   0.072   2.492   3.315
  215SOL     OW 1428   0.527   2.118   2.190
  215SOL    HW1 1429   0.554   2.059   2.115
  215SOL    HW2 1430   0.527   2.213   2.159
  216SOL     OW 1431   0.980   2.978   3.581
  216SOL    HW1 1432   0.881   2.984   3.591
  216SOL    HW2 1433   1.003   2.898   3.525
  217SOL     OW 1434   0.705   2.912   2.230
  217SOL    HW1 1435   0.691   2.919   2.329
  217SOL    HW2 1436   0.789   2.861   2.212
  218SOL     OW 1437   1.274   2.248   3.124
  218SOL    HW1 1438   1.295   2.322   3.188
  218SOL    HW2 1439   1.185   2.265   3.081
  219SOL     OW 1440   1.272   3.307   3.004
  219SOL    HW1 1441   1.319   3.320   3.091
  219SOL    HW2 1442   1.206   3.233   3.013
  220SOL     OW 1443   1.622   2.229   2.236
  220SOL    HW1 1444   1.624   2.153   2.300
  220SOL    HW2 1445   1.574   2.306   2.276
  221SOL     OW 1446   1.540   2.136   1.987
  221SOL    HW1 1447   1.479   2.061   2.010
  221SOL    HW2 1448   1.562   2.188   2.070
  222SOL     OW 1449   1.002   2.658   3.100
  222SOL    HW1 1450   1.043   2.626   3.186
  222SOL    HW2 1451   0.906   2.631   3.097
  223SOL     OW 1452   0.473   2.362   2.053
  223SOL    HW1 1453   0.534   2.442   2.057
  223SOL    HW2 1454   0.378   2.393   2.060
  224SOL     OW 1455   1.388   3.435   2.339
  224SOL    HW1 1456   1.455   3.447   2.265
  224SOL    HW2 1457   1.348   3.524   2.362
  225SOL     OW 1458   0.830   3.135   3.284
  225SOL    HW1 1459   0.825   3.168   3.379
  225SOL    HW2 1460   0.744   3.154   3.238
  226SOL     OW 1461   0.263   2.188   2.582
  226SOL    HW1 1462   0.184   2.239   2.548
  226SOL    HW2 1463   0.254   2.173   2.680
  227SOL     OW 1464   0.916   2.772   2.153
  227SOL    HW1 1465   0.979   2.810   2.085
  227SOL    HW2 1466   0.956   2.689   2.192
  228SOL     OW 1467   0.372   3.150   3.352
  228SOL    HW1 1468   0.359   3.243   3.318
  228SOL    HW2 1469   0.288   3.098   3.339
  229SOL     OW 1470   1.225   2.187   2.311
  229SOL    HW1 1471   1.290   2.113   2.300
  229SOL    HW2 1472   1.245   2.237   2.395
  230SOL     OW 1473   0.859   2.818   2.723
  230SOL    HW1 1474   0.913   2.749   2.771
  230SOL    HW2 1475   0.827   2.887   2.789
  231SOL     OW 1476   0.221   3.176   3.706
  231SOL    HW1 1477   0.156   3.103   3.685
  231SOL    HW2 1478   0.225   3.190   3.804
  232SOL     OW 1479   1.705   3.349   2.966
  232SOL    HW1 1480   1.612   3.324   2.939
  232SOL    HW2 1481   1.731   3.299   3.048
  233SOL     OW 1482   1.424   2.076   2.974
  233SOL    HW1 1483   1.476   2.011   3.029
  233SOL    HW2 1484   1.375   2.139   3.035
  234SOL     OW 1485   1.689   2.784   4.336
  234SOL    HW1 1486   1.784   2.755   4.344
  234SOL    HW2 1487   1.681   2.849   4.261
  235SOL     OW 1488   0.809   1.866   4.226
  235SOL    HW1 1489   0.849   1.957   4.217
  235SOL    HW2 1490   0.709   1.874   4.232
  236SOL     OW 1491   0.598   2.591   3.994
  236SOL    HW1 1492   0.622   2.660   3.926
  236SOL    HW2 1493   0.520   2.624   4.048
  237SOL     OW 1494   1.281   2.207   4.668
  237SOL    HW1 1495   1.195   2.157   4.655
  237SOL    HW2 1496   1.343   2.153   4.724
  238SOL     OW 1497   1.719   2.447   5.555
  238SOL    HW1 1498   1.693   2.536   5.519
  238SOL    HW2 1499   1.717   2.379   5.482
  239SOL     OW 1500   1.400   1.969   4.150
  239SOL    HW1 1501   1.376   1.932   4.060
  239SOL    HW2 1502   1.499   1.985   4.154
  240SOL     OW 1503   0.940   3.560   4.628
  240SOL    HW1 1504   1.020   3.503   4.649
  240SOL    HW2 1505   0.891   3.520   4.551
  241SOL     OW 1506   1.351   2.452   5.157
  241SOL    HW1 1507   1.379   2.409   5.242
  241SOL    HW2 1508   1.376   2.548   5.158
  242SOL     OW 1509   0.539   1.926   4.236
  242SOL    HW1 1510   0.458   1.927   4.294
  242SOL    HW2 1511   0.542   2.009   4.181
  243SOL     OW 1512   1.227   3.432   4.517
  243SOL    HW1 1513   1.248   3.506   4.452
  243SOL    HW2 1514   1.295   3.432   4.590
  244SOL     OW 1515   0.561   2.084   4.871
  244SOL    HW1 1516   0.599   2.000   4.908
  244SOL    HW2 1517   0.473   2.103   4.915
  245SOL     OW 1518   1.017   1.901   4.477
  245SOL    HW1 1519   0.945   1.906   4.408
  245SOL    HW2 1520   0.993   1.832   4.546
  246SOL     OW 1521   0.367   2.962   4.225
  246SOL    HW1 1522   0.360   3.045   4.169
  246SOL    HW2 1523   0.371   2.882   4.165
  247SOL     OW 1524   1.252   3.210   4.112
  247SOL    HW1 1525   1.302   3.287   4.152
  247SOL    HW2 1526   1.157   3.212   4.144
  248SOL     OW 1527   1.587   2.641   5.394
  248SOL    HW1 1528   1.495   2.679   5.389
  248SOL    HW2 1529   1.647   2.688   5.329
  249SOL     OW 1530   1.013   1.967   5.494
  249SOL    HW1 1531   1.019   2.052   5.442
  249SOL    HW2 1532   1.045   1.891   5.437
  250SOL     OW 1533   1.622   2.229   4.098
  250SOL    HW1 1534   1.624   2.153   4.162
  250SOL    HW2 1535   1.574   2.306   4.138
  251SOL     OW 1536   0.980   3.435   5.424
  251SOL    HW1 1537   0.960   3.479   5.336
  251SOL    HW2 1538   1.019   3.344   5.408
  252SOL     OW 1539   1.303   2.700   3.766
  252SOL    HW1 1540   1.337   2.607   3.781
  252SOL    HW2 1541   1.321   2.727   3.671
  253SOL     OW 1542   0.008   3.188   3.924
  253SOL    HW1 1543  -0.085   3.209   3.893
  253SOL    HW2 1544   0.018   3.089   3.937
  254SOL     OW 1545   0.815   2.434   4.049
  254SOL    HW1 1546   0.822   2.345   4.003
  254SOL    HW2 1547   0.721   2.468   4.041
  255SOL     OW 1548   0.159   2.999   5.190
  255SOL    HW1 1549   0.181   2.938   5.266
  255SOL    HW2 1550   0.169   2.950   5.104
  256SOL     OW 1551   1.759   3.609   4.878
  256SOL    HW1 1552   1.820   3.639   4.805
  256SOL    HW2 1553   1.721   3.520   4.856
  257SOL     OW 1554   1.194   3.474   3.755
  257SOL    HW1 1555   1.200   3.381   3.792
  257SOL    HW2 1556   1.135   3.474   3.675
  258SOL     OW 1557   0.590   3.349   4.215
  258SOL    HW1 1558   0.632   3.291   4.145
  258SOL    HW2 1559   0.546   3.428   4.171
  259SOL     OW 1560   0.105   2.875   5.450
  259SOL    HW1 1561   0.028   2.842   5.504
  259SOL    HW2 1562   0.190   2.845   5.492
  260SOL     OW 1563   1.183   3.197   3.843
  260SOL    HW1 1564   1.084   3.186   3.845
  260SOL    HW2 1565   1.217   3.212   3.936
  261SOL     OW 1566   1.777   2.204   5.366
  261SOL    HW1 1567   1.760   2.235   5.272
  261SOL    HW2 1568   1.693   2.167   5.404
  262SOL     OW 1569   0.859   3.236   3.740
  262SOL    HW1 1570   0.813   3.251   3.828
  262SOL    HW2 1571   0.903   3.321   3.710
  263SOL     OW 1572   1.861   3.431   4.575
  263SOL    HW1 1573   1.790   3.419   4.505
  263SOL    HW2 1574   1.862   3.352   4.635
  264SOL     OW 1575   0.039   2.939   4.024
  264SOL    HW1 1576   0.138   2.928   4.015
  264SOL    HW2 1577  -0.001   2.853   4.056
  265SOL     OW 1578   0.027   3.458   5.703
  265SOL    HW1 1579   0.008   3.362   5.724
  265SOL    HW2 1580  -0.006   3.516   5.778
  266SOL     OW 1581   0.321   2.805   5.828
  266SOL    HW1 1582   0.403   2.844   5.786
  266SOL    HW2 1583   0.294   2.723   5.779
  267SOL     OW 1584   0.464   3.605   5.909
  267SOL    HW1 1585   0.497   3.644   5.995
  267SOL    HW2 1586   0.540   3.598   5.844
  268SOL     OW 1587   1.434   3.050   5.627
  268SOL    HW1 1588   1.466   2.974   5.684
  268SOL    HW2 1589   1.342   3.077   5.657
  269SOL     OW 1590   0.488   3.247   5.760
  269SOL    HW1 1591   0.401   3.232   5.807
  269SOL    HW2 1592   0.471   3.273   5.665
  270SOL     OW 1593   1.582   2.501   6.058
  270SOL    HW1 1594   1.551   2.562   6.131
  270SOL    HW2 1595   1.632   2.553   5.989
  271SOL     OW 1596   0.255   3.210   5.876
  271SOL    HW1 1597   0.159   3.211   5.849
  271SOL    HW2 1598   0.267   3.263   5.960
  272SOL     OW 1599   0.686   4.885   1.803
  272SOL    HW1 1600   0.746   4.964   1.817
  272SOL    HW2 1601   0.600   4.916   1.762
  273SOL     OW 1602   0.335   5.159   1.061
  273SOL    HW1 1603   0.257   5.128   1.008
  273SOL    HW2 1604   0.393   5.217   1.004
  274SOL     OW 1605   0.197   4.700   1.264
  274SOL    HW1 1606   0.286   4.655   1.250
  274SOL    HW2 1607   0.124   4.635   1.245
  275SOL     OW 1608   1.667   5.438   0.572
  275SOL    HW1 1609   1.626   5.415   0.484
  275SOL    HW2 1610   1.649   5.364   0.637
  276SOL     OW 1611   0.991   4.134   1.242
  276SOL    HW1 1612   0.914   4.168   1.296
  276SOL    HW2 1613   0.957   4.083   1.163
  277SOL     OW 1614   1.008   5.180   0.477
  277SOL    HW1 1615   0.962   5.252   0.425
  277SOL    HW2 1616   1.004   5.200   0.575
  278SOL     OW 1617   0.382   4.424   0.480
  278SOL    HW1 1618   0.427   4.334   0.477
  278SOL    HW2 1619   0.288   4.413   0.513
  279SOL     OW 1620   0.922   4.227   0.899
  279SOL    HW1 1621   0.897   4.218   0.803
  279SOL    HW2 1622   0.970   4.145   0.930
  280SOL     OW 1623   1.017   3.763   0.753
  280SOL    HW1 1624   0.945   3.768   0.684
  280SOL    HW2 1625   0.993   3.694   0.822
  281SOL     OW 1626   1.429   4.897   0.867
  281SOL    HW1 1627   1.374   4.813   0.860
  281SOL    HW2 1628   1.455   4.926   0.775
  282SOL     OW 1629   1.466   4.314   0.992
  282SOL    HW1 1630   1.436   4.219   0.999
  282SOL    HW2 1631   1.539   4.330   1.058
  283SOL     OW 1632   1.064   5.071   1.340
  283SOL    HW1 1633   0.984   5.048   1.395
  283SOL    HW2 1634   1.147   5.045   1.389
  284SOL     OW 1635   1.638   4.823   1.079
  284SOL    HW1 1636   1.643   4.904   1.138
  284SOL    HW2 1637   1.552   4.825   1.028
  285SOL     OW 1638   0.980   4.840   1.719
  285SOL    HW1 1639   0.881   4.846   1.729
  285SOL    HW2 1640   1.003   4.760   1.663
  286SOL     OW 1641   0.367   4.824   0.501
  286SOL    HW1 1642   0.360   4.907   0.445
  286SOL    HW2 1643   0.371   4.744   0.441
  287SOL     OW 1644   1.582   4.363   0.472
  287SOL    HW1 1645   1.551   4.424   0.545
  287SOL    HW2 1646   1.632   4.415   0.403
  288SOL     OW 1647   0.402   4.475   1.598
  288SOL    HW1 1648   0.470   4.530   1.551
  288SOL    HW2 1649   0.442   4.387   1.625
  289SOL     OW 1650   0.088   5.525   0.927
  289SOL    HW1 1651   0.046   5.439   0.900
  289SOL    HW2 1652   0.182   5.528   0.893
  290SOL     OW 1653   0.504   5.292   0.910
  290SOL    HW1 1654   0.570   5.366   0.919
  290SOL    HW2 1655   0.548   5.213   0.868
  291SOL     OW 1656   0.252   5.288   1.744
  291SOL    HW1 1657   0.222   5.345   1.820
  291SOL    HW2 1658   0.245   5.191   1.770
  292SOL     OW 1659   1.302   4.579   0.309
  292SOL    HW1 1660   1.216   4.548   0.351
  292SOL    HW2 1661   1.298   4.565   0.210
  293SOL     OW 1662   0.688   5.386   1.716
  293SOL    HW1 1663   0.632   5.467   1.725
  293SOL    HW2 1664   0.740   5.390   1.630
  294SOL     OW 1665   0.830   4.997   1.422
  294SOL    HW1 1666   0.825   5.030   1.517
  294SOL    HW2 1667   0.744   5.016   1.376
  295SOL     OW 1668   1.194   5.336   0.031
  295SOL    HW1 1669   1.200   5.243   0.068
  295SOL    HW2 1670   1.135   5.336  -0.049
  296SOL     OW 1671   1.614   5.016   1.289
  296SOL    HW1 1672   1.674   5.019   1.369
  296SOL    HW2 1673   1.539   5.080   1.302
  297SOL     OW 1674   1.709   4.109   1.381
  297SOL    HW1 1675   1.782   4.178   1.385
  297SOL    HW2 1676   1.737   4.034   1.322
  298SOL     OW 1677   0.105   4.737   1.726
  298SOL    HW1 1678   0.028   4.704   1.780
  298SOL    HW2 1679   0.190   4.707   1.768
  299SOL     OW 1680   0.613   4.566   1.431
  299SOL    HW1 1681   0.669   4.647   1.414
  299SOL    HW2 1682   0.672   4.486   1.434
  300SOL     OW 1683   1.225   4.049   0.449
  300SOL    HW1 1684   1.290   3.975   0.438
  300SOL    HW2 1685   1.245   4.099   0.533
  301SOL     OW 1686   0.594   4.469   0.652
  301SOL    HW1 1687   0.644   4.554   0.633
  301SOL    HW2 1688   0.506   4.471   0.604
  302SOL     OW 1689   1.083   4.708   0.087
  302SOL    HW1 1690   1.060   4.761   0.005
  302SOL    HW2 1691   1.164   4.652   0.068
  303SOL     OW 1692   1.824   3.916   1.227
  303SOL    HW1 1693   1.820   3.826   1.271
  303SOL    HW2 1694   1.827   3.905   1.128
  304SOL     OW 1695   1.352   3.776   0.168
  304SOL    HW1 1696   1.387   3.735   0.084
  304SOL    HW2 1697   1.262   3.738   0.188
  305SOL     OW 1698   0.019   4.092   2.509
  305SOL    HW1 1699  -0.063   4.135   2.548
  305SOL    HW2 1700  -0.009   4.019   2.446
  306SOL     OW 1701   0.850   4.522   3.685
  306SOL    HW1 1702   0.846   4.598   3.750
  306SOL    HW2 1703   0.872   4.558   3.594
  307SOL     OW 1704   0.335   5.159   2.923
  307SOL    HW1 1705   0.257   5.128   2.870
  307SOL    HW2 1706   0.393   5.217   2.866
  308SOL     OW 1707   0.122   4.367   2.425
  308SOL    HW1 1708   0.077   4.279   2.442
  308SOL    HW2 1709   0.121   4.421   2.509
  309SOL     OW 1710   1.466   5.141   2.815
  309SOL    HW1 1711   1.407   5.147   2.895
  309SOL    HW2 1712   1.451   5.053   2.769
  310SOL     OW 1713   0.598   4.453   2.132
  310SOL    HW1 1714   0.622   4.522   2.064
  310SOL    HW2 1715   0.520   4.486   2.186
  311SOL     OW 1716   0.807   4.329   3.327
  311SOL    HW1 1717   0.760   4.326   3.416
  311SOL    HW2 1718   0.756   4.274   3.261
  312SOL     OW 1719   1.362   4.868   2.407
  312SOL    HW1 1720   1.445   4.839   2.359
  312SOL    HW2 1721   1.313   4.935   2.351
  313SOL     OW 1722   0.614   3.846   1.979
  313SOL    HW1 1723   0.712   3.824   1.986
  313SOL    HW2 1724   0.583   3.829   1.886
  314SOL     OW 1725   0.935   3.960   2.342
  314SOL    HW1 1726   0.887   4.001   2.264
  314SOL    HW2 1727   1.034   3.958   2.323
  315SOL     OW 1728   1.032   4.273   1.878
  315SOL    HW1 1729   0.991   4.355   1.839
  315SOL    HW2 1730   1.096   4.299   1.951
  316SOL     OW 1731   0.561   3.946   3.009
  316SOL    HW1 1732   0.599   3.862   3.046
  316SOL    HW2 1733   0.473   3.965   3.053
  317SOL     OW 1734   1.429   4.897   2.729
  317SOL    HW1 1735   1.374   4.813   2.722
  317SOL    HW2 1736   1.455   4.926   2.637
  318SOL     OW 1737   0.527   3.980   2.190
  318SOL    HW1 1738   0.554   3.921   2.115
  318SOL    HW2 1739   0.527   4.075   2.159
  319SOL     OW 1740   1.252   5.072   2.250
  319SOL    HW1 1741   1.302   5.149   2.290
  319SOL    HW2 1742   1.157   5.074   2.282
  320SOL     OW 1743   0.350   4.622   3.666
  320SOL    HW1 1744   0.426   4.666   3.714
  320SOL    HW2 1745   0.385   4.575   3.584
  321SOL     OW 1746   1.068   5.057   2.711
  321SOL    HW1 1747   1.075   4.973   2.656
  321SOL    HW2 1748   1.130   5.126   2.675
  322SOL     OW 1749   0.088   5.525   2.789
  322SOL    HW1 1750   0.046   5.439   2.762
  322SOL    HW2 1751   0.182   5.528   2.755
  323SOL     OW 1752   0.930   5.402   3.327
  323SOL    HW1 1753   0.906   5.384   3.232
  323SOL    HW2 1754   0.960   5.496   3.337
  324SOL     OW 1755   1.709   4.109   3.243
  324SOL    HW1 1756   1.782   4.178   3.247
  324SOL    HW2 1757   1.737   4.034   3.184
  325SOL     OW 1758   1.450   4.944   3.495
  325SOL    HW1 1759   1.441   4.934   3.594
  325SOL    HW2 1760   1.546   4.937   3.469
  326SOL     OW 1761   0.317   4.271   3.142
  326SOL    HW1 1762   0.355   4.212   3.214
  326SOL    HW2 1763   0.357   4.245   3.054
  327SOL     OW 1764   1.300   4.177   2.553
  327SOL    HW1 1765   1.241   4.257   2.557
  327SOL    HW2 1766   1.315   4.142   2.646
  328SOL     OW 1767   0.039   4.801   2.162
  328SOL    HW1 1768   0.138   4.790   2.153
  328SOL    HW2 1769  -0.001   4.715   2.194
  329SOL     OW 1770   1.555   5.235   4.427
  329SOL    HW1 1771   1.498   5.219   4.508
  329SOL    HW2 1772   1.496   5.245   4.347
  330SOL     OW 1773   1.127   5.065   5.414
  330SOL    HW1 1774   1.174   5.065   5.502
  330SOL    HW2 1775   1.079   4.978   5.403
  331SOL     OW 1776   0.230   5.158   4.262
  331SOL    HW1 1777   0.204   5.254   4.262
  331SOL    HW2 1778   0.159   5.104   4.307
  332SOL     OW 1779   0.606   4.688   3.847
  332SOL    HW1 1780   0.613   4.772   3.793
  332SOL    HW2 1781   0.652   4.701   3.935
  333SOL     OW 1782   0.809   3.728   4.226
  333SOL    HW1 1783   0.849   3.819   4.217
  333SOL    HW2 1784   0.709   3.736   4.232
  334SOL     OW 1785   0.865   4.072   3.919
  334SOL    HW1 1786   0.924   4.135   3.870
  334SOL    HW2 1787   0.884   3.978   3.890
  335SOL     OW 1788   1.008   5.180   4.201
  335SOL    HW1 1789   0.962   5.252   4.149
  335SOL    HW2 1790   1.004   5.200   4.299
  336SOL     OW 1791   1.795   4.790   4.597
  336SOL    HW1 1792   1.733   4.775   4.521
  336SOL    HW2 1793   1.743   4.801   4.682
  337SOL     OW 1794   0.464   5.467   4.047
  337SOL    HW1 1795   0.497   5.506   4.133
  337SOL    HW2 1796   0.540   5.460   3.982
  338SOL     OW 1797   1.400   3.831   4.150
  338SOL    HW1 1798   1.376   3.794   4.060
  338SOL    HW2 1799   1.499   3.847   4.154
  339SOL     OW 1800   0.382   4.424   4.204
  339SOL    HW1 1801   0.427   4.334   4.201
  339SOL    HW2 1802   0.288   4.413   4.237
  340SOL     OW 1803   0.922   4.227   4.623
  340SOL    HW1 1804   0.897   4.218   4.527
  340SOL    HW2 1805   0.970   4.145   4.654
  341SOL     OW 1806   1.032   4.273   3.740
  341SOL    HW1 1807   0.991   4.355   3.701
  341SOL    HW2 1808   1.096   4.299   3.813
  342SOL     OW 1809   1.466   4.314   4.716
  342SOL    HW1 1810   1.436   4.219   4.723
  342SOL    HW2 1811   1.539   4.330   4.782
  343SOL     OW 1812   1.857   4.557   4.101
  343SOL    HW1 1813   1.899   4.493   4.165
  343SOL    HW2 1814   1.819   4.506   4.023
  344SOL     OW 1815   0.915   3.813   5.126
  344SOL    HW1 1816   0.940   3.793   5.031
  344SOL    HW2 1817   0.987   3.869   5.168
  345SOL     OW 1818   0.402   4.475   5.322
  345SOL    HW1 1819   0.470   4.530   5.275
  345SOL    HW2 1820   0.442   4.387   5.349
  346SOL     OW 1821   0.083   4.982   4.746
  346SOL    HW1 1822   0.078   4.981   4.846
  346SOL    HW2 1823   0.000   4.941   4.708
  347SOL     OW 1824   0.830   4.997   5.146
  347SOL    HW1 1825   0.825   5.030   5.241
  347SOL    HW2 1826   0.744   5.016   5.100
  348SOL     OW 1827   1.650   5.444   5.118
  348SOL    HW1 1828   1.703   5.454   5.034
  348SOL    HW2 1829   1.623   5.534   5.152
  349SOL     OW 1830   0.590   5.211   4.215
  349SOL    HW1 1831   0.632   5.153   4.145
  349SOL    HW2 1832   0.546   5.290   4.171
  350SOL     OW 1833   0.672   3.927   5.213
  350SOL    HW1 1834   0.762   3.911   5.173
  350SOL    HW2 1835   0.680   3.932   5.312
  351SOL     OW 1836   1.674   4.607   4.978
  351SOL    HW1 1837   1.647   4.518   4.941
  351SOL    HW2 1838   1.675   4.675   4.905
  352SOL     OW 1839   1.777   4.066   5.366
  352SOL    HW1 1840   1.760   4.097   5.272
  352SOL    HW2 1841   1.693   4.029   5.404
  353SOL     OW 1842   1.730   4.658   5.241
  353SOL    HW1 1843   1.768   4.749   5.256
  353SOL    HW2 1844   1.722   4.641   5.142
  354SOL     OW 1845   0.859   5.098   3.740
  354SOL    HW1 1846   0.813   5.113   3.828
  354SOL    HW2 1847   0.903   5.183   3.710
  355SOL     OW 1848   0.661   5.514   4.677
  355SOL    HW1 1849   0.615   5.602   4.664
  355SOL    HW2 1850   0.760   5.526   4.670
  356SOL     OW 1851   0.672   5.115   5.348
  356SOL    HW1 1852   0.594   5.065   5.386
  356SOL    HW2 1853   0.669   5.210   5.379
  357SOL     OW 1854   1.705   5.211   4.828
  357SOL    HW1 1855   1.612   5.186   4.801
  357SOL    HW2 1856   1.731   5.161   4.910
  358SOL     OW 1857   0.039   4.801   4.024
  358SOL    HW1 1858   0.138   4.790   4.015
  358SOL    HW2 1859  -0.001   4.715   4.056
  359SOL     OW 1860   0.297   3.759   5.757
  359SOL    HW1 1861   0.346   3.843   5.736
  359SOL    HW2 1862   0.359   3.694   5.802
  360SOL     OW 1863   0.008   5.050   5.786
  360SOL    HW1 1864  -0.085   5.071   5.755
  360SOL    HW2 1865   0.018   4.951   5.799
  361SOL     OW 1866   0.672   5.340   5.740
  361SOL    HW1 1867   0.681   5.350   5.641
  361SOL    HW2 1868   0.632   5.251   5.761
  362SOL     OW 1869   1.083   4.708   5.673
  362SOL    HW1 1870   1.060   4.761   5.591
  362SOL    HW2 1871   1.164   4.652   5.654
  363SOL     OW 1872   0.561   5.808   1.147
  363SOL    HW1 1873   0.599   5.724   1.184
  363SOL    HW2 1874   0.473   5.827   1.191
  364SOL     OW 1875   0.915   5.675   1.402
  364SOL    HW1 1876   0.940   5.655   1.307
  364SOL    HW2 1877   0.987   5.731   1.444
  365SOL     OW 1878   1.777   5.928   1.642
  365SOL    HW1 1879   1.760   5.959   1.548
  365SOL    HW2 1880   1.693   5.891   1.680
  366SOL     OW 1881   0.202   5.871   3.360
  366SOL    HW1 1882   0.122   5.931   3.347
  366SOL    HW2 1883   0.192   5.822   3.446
  367SOL     OW 1884   1.225   5.911   2.311
  367SOL    HW1 1885   1.290   5.837   2.300
  367SOL    HW2 1886   1.245   5.961   2.395
  368SOL     OW 1887   1.300   6.039   2.553
  368SOL    HW1 1888   1.241   6.119   2.557
  368SOL    HW2 1889   1.315   6.004   2.646
  369SOL     OW 1890   1.755   6.193   3.955
  369SOL    HW1 1891   1.743   6.180   3.856
  369SOL    HW2 1892   1.725   6.112   4.004
  370SOL     OW 1893   0.809   5.590   4.226
  370SOL    HW1 1894   0.849   5.681   4.217
  370SOL    HW2 1895   0.709   5.598   4.232
  371SOL     OW 1896   1.547   5.808   5.453
  371SOL    HW1 1897   1.542   5.845   5.545
  371SOL    HW2 1898   1.475   5.739   5.441
  372SOL     OW 1899   0.614   5.708   3.841
  372SOL    HW1 1900   0.712   5.686   3.848
  372SOL    HW2 1901   0.583   5.691   3.748
  373SOL     OW 1902   0.307   5.649   4.342
  373SOL    HW1 1903   0.296   5.743   4.375
  373SOL    HW2 1904   0.302   5.586   4.419
  374SOL     OW 1905   1.160   5.793   5.201
  374SOL    HW1 1906   1.160   5.857   5.278
  374SOL    HW2 1907   1.188   5.841   5.118
  375SOL     OW 1908   1.726   5.721   4.247
  375SOL    HW1 1909   1.799   5.704   4.180
  375SOL    HW2 1910   1.695   5.634   4.285
  376SOL     OW 1911   0.075   5.931   3.757
  376SOL    HW1 1912  -0.017   5.903   3.728
  376SOL    HW2 1913   0.106   6.008   3.701
  377SOL     OW 1914   1.824   5.778   4.951
  377SOL    HW1 1915   1.820   5.688   4.995
  377SOL    HW2 1916   1.827   5.767   4.852
  378SOL     OW 1917   1.424   5.800   4.836
  378SOL    HW1 1918   1.476   5.735   4.891
  378SOL    HW2 1919   1.375   5.863   4.897
  379SOL     OW 1920   1.593   5.807   4.606
  379SOL    HW1 1921   1.509   5.806   4.660
  379SOL    HW2 1922   1.595   5.890   4.550
  380SOL     OW 1923   1.209   6.111   5.861
  380SOL    HW1 1924   1.222   6.027   5.915
  380SOL    HW2 1925   1.180   6.185   5.921
  381SOL     OW 1926   0.903   5.672   5.719
  381SOL    HW1 1927   0.954   5.673   5.633
  381SOL    HW2 1928   0.959   5.630   5.790
  382SOL     OW 1929   1.726   5.721   6.109
  382SOL    HW1 1930   1.799   5.704   6.042
  382SOL    HW2 1931   1.695   5.634   6.147
  383SOL     OW 1932   2.997   0.703   0.717
  383SOL    HW1 1933   3.054   0.781   0.692
  383SOL    HW2 1934   2.937   0.729   0.793
  384SOL     OW 1935   2.712   0.798   1.823
  384SOL    HW1 1936   2.708   0.874   1.888
  384SOL    HW2 1937   2.734   0.834   1.732
  385SOL     OW 1938   2.475   1.365   0.726
  385SOL    HW1 1939   2.426   1.278   0.735
  385SOL    HW2 1940   2.452   1.408   0.639
  386SOL     OW 1941   2.671   0.004   0.502
  386SOL    HW1 1942   2.711   0.095   0.493
  386SOL    HW2 1943   2.571   0.012   0.508
  387SOL     OW 1944   3.438   1.662   0.307
  387SOL    HW1 1945   3.527   1.708   0.310
  387SOL    HW2 1946   3.417   1.638   0.212
  388SOL     OW 1947   3.291   1.173   0.867
  388SOL    HW1 1948   3.236   1.089   0.860
  388SOL    HW2 1949   3.317   1.202   0.775
  389SOL     OW 1950   3.328   0.590   0.992
  389SOL    HW1 1951   3.298   0.495   0.999
  389SOL    HW2 1952   3.401   0.606   1.058
  390SOL     OW 1953   2.389   0.256   0.328
  390SOL    HW1 1954   2.416   0.197   0.253
  390SOL    HW2 1955   2.389   0.351   0.297
  391SOL     OW 1956   2.973   1.195   1.100
  391SOL    HW1 1957   2.933   1.239   1.181
  391SOL    HW2 1958   2.932   1.232   1.017
  392SOL     OW 1959   2.272   0.813   1.251
  392SOL    HW1 1960   2.358   0.825   1.301
  392SOL    HW2 1961   2.230   0.726   1.278
  393SOL     OW 1962   2.229   1.100   0.501
  393SOL    HW1 1963   2.222   1.183   0.445
  393SOL    HW2 1964   2.233   1.020   0.441
  394SOL     OW 1965   2.428   0.537   0.865
  394SOL    HW1 1966   2.440   0.603   0.791
  394SOL    HW2 1967   2.474   0.571   0.948
  395SOL     OW 1968   2.875   0.105   1.770
  395SOL    HW1 1969   2.881   0.190   1.718
  395SOL    HW2 1970   2.907   0.029   1.713
  396SOL     OW 1971   2.594   0.634   1.064
  396SOL    HW1 1972   2.653   0.608   0.988
  396SOL    HW2 1973   2.566   0.730   1.053
  397SOL     OW 1974   2.885   0.766   0.966
  397SOL    HW1 1975   2.900   0.787   1.062
  397SOL    HW2 1976   2.855   0.671   0.957
  398SOL     OW 1977   2.181   0.810   0.949
  398SOL    HW1 1978   2.274   0.846   0.954
  398SOL    HW2 1979   2.175   0.725   1.001
  399SOL     OW 1980   3.000   0.380   1.678
  399SOL    HW1 1981   2.955   0.443   1.742
  399SOL    HW2 1982   3.093   0.411   1.661
  400SOL     OW 1983   1.870   1.326   0.200
  400SOL    HW1 1984   1.777   1.347   0.169
  400SOL    HW2 1985   1.880   1.227   0.213
  401SOL     OW 1986   3.231   0.950   1.660
  401SOL    HW1 1987   3.270   1.039   1.680
  401SOL    HW2 1988   3.241   0.930   1.563
  402SOL     OW 1989   2.677   0.572   0.325
  402SOL    HW1 1990   2.684   0.483   0.279
  402SOL    HW2 1991   2.583   0.606   0.317
  403SOL     OW 1992   2.114   1.564   1.744
  403SOL    HW1 1993   2.084   1.621   1.820
  403SOL    HW2 1994   2.107   1.467   1.770
  404SOL     OW 1995   1.945   1.258   1.022
  404SOL    HW1 1996   1.940   1.257   1.122
  404SOL    HW2 1997   1.862   1.217   0.984
  405SOL     OW 1998   3.512   1.720   1.394
  405SOL    HW1 1999   3.565   1.730   1.310
  405SOL    HW2 2000   3.485   1.810   1.428
  406SOL     OW 2001   3.366   1.607   0.044
  406SOL    HW1 2002   3.274   1.644   0.051
  406SOL    HW2 2003   3.404   1.627  -0.046
  407SOL     OW 2004   3.571   0.385   1.381
  407SOL    HW1 2005   3.644   0.454   1.385
  407SOL    HW2 2006   3.599   0.310   1.322
  408SOL     OW 2007   2.578   0.565   1.708
  408SOL    HW1 2008   2.597   0.630   1.782
  408SOL    HW2 2009   2.638   0.485   1.717
  409SOL     OW 2010   2.252   1.741   1.560
  409SOL    HW1 2011   2.161   1.782   1.558
  409SOL    HW2 2012   2.245   1.647   1.592
  410SOL     OW 2013   3.536   0.883   1.254
  410SOL    HW1 2014   3.509   0.794   1.217
  410SOL    HW2 2015   3.537   0.951   1.181
  411SOL     OW 2016   2.456   0.745   0.652
  411SOL    HW1 2017   2.506   0.830   0.633
  411SOL    HW2 2018   2.368   0.747   0.604
  412SOL     OW 2019   3.592   0.934   1.517
  412SOL    HW1 2020   3.630   1.025   1.532
  412SOL    HW2 2021   3.584   0.917   1.418
  413SOL     OW 2022   2.087   0.275   2.858
  413SOL    HW1 2023   2.122   0.258   2.950
  413SOL    HW2 2024   1.999   0.230   2.846
  414SOL     OW 2025   1.881   0.368   2.509
  414SOL    HW1 2026   1.799   0.411   2.548
  414SOL    HW2 2027   1.853   0.295   2.446
  415SOL     OW 2028   3.322   1.505   3.201
  415SOL    HW1 2029   3.346   1.599   3.227
  415SOL    HW2 2030   3.306   1.451   3.283
  416SOL     OW 2031   3.456   0.114   3.342
  416SOL    HW1 2032   3.438   0.181   3.270
  416SOL    HW2 2033   3.453   0.160   3.431
  417SOL     OW 2034   3.503   1.108   2.294
  417SOL    HW1 2035   3.589   1.110   2.242
  417SOL    HW2 2036   3.517   1.155   2.382
  418SOL     OW 2037   3.155   1.228   3.285
  418SOL    HW1 2038   3.192   1.155   3.227
  418SOL    HW2 2039   3.207   1.233   3.370
  419SOL     OW 2040   2.671   0.004   2.364
  419SOL    HW1 2041   2.711   0.095   2.355
  419SOL    HW2 2042   2.571   0.012   2.370
  420SOL     OW 2043   2.179   0.251   3.663
  420SOL    HW1 2044   2.250   0.322   3.669
  420SOL    HW2 2045   2.091   0.290   3.691
  421SOL     OW 2046   3.328   1.417   2.815
  421SOL    HW1 2047   3.269   1.423   2.895
  421SOL    HW2 2048   3.313   1.329   2.769
  422SOL     OW 2049   3.256   0.469   3.536
  422SOL    HW1 2050   3.236   0.512   3.624
  422SOL    HW2 2051   3.334   0.407   3.545
  423SOL     OW 2052   2.835   0.890   3.434
  423SOL    HW1 2053   2.881   0.806   3.405
  423SOL    HW2 2054   2.779   0.924   3.359
  424SOL     OW 2055   1.938   0.811   2.651
  424SOL    HW1 2056   2.037   0.799   2.660
  424SOL    HW2 2057   1.914   0.906   2.672
  425SOL     OW 2058   3.581   0.585   3.693
  425SOL    HW1 2059   3.555   0.674   3.657
  425SOL    HW2 2060   3.579   0.517   3.620
  426SOL     OW 2061   3.224   1.144   2.407
  426SOL    HW1 2062   3.307   1.115   2.359
  426SOL    HW2 2063   3.175   1.211   2.351
  427SOL     OW 2064   2.323   1.266   3.589
  427SOL    HW1 2065   2.273   1.267   3.503
  427SOL    HW2 2066   2.260   1.248   3.665
  428SOL     OW 2067   3.494   1.377   1.943
  428SOL    HW1 2068   3.462   1.471   1.933
  428SOL    HW2 2069   3.418   1.314   1.931
  429SOL     OW 2070   3.409   0.222   3.591
  429SOL    HW1 2071   3.404   0.259   3.683
  429SOL    HW2 2072   3.337   0.153   3.579
  430SOL     OW 2073   2.665   1.402   2.786
  430SOL    HW1 2074   2.755   1.416   2.744
  430SOL    HW2 2075   2.594   1.404   2.715
  431SOL     OW 2076   3.296   1.188   1.903
  431SOL    HW1 2077   3.328   1.112   1.960
  431SOL    HW2 2078   3.204   1.215   1.933
  432SOL     OW 2079   3.133   1.797   2.453
  432SOL    HW1 2080   3.177   1.861   2.389
  432SOL    HW2 2081   3.083   1.849   2.523
  433SOL     OW 2082   3.719   0.833   2.239
  433SOL    HW1 2083   3.761   0.769   2.303
  433SOL    HW2 2084   3.681   0.782   2.161
  434SOL     OW 2085   2.272   0.813   3.113
  434SOL    HW1 2086   2.358   0.825   3.163
  434SOL    HW2 2087   2.230   0.726   3.140
  435SOL     OW 2088   3.136   0.386   3.124
  435SOL    HW1 2089   3.157   0.460   3.188
  435SOL    HW2 2090   3.047   0.403   3.081
  436SOL     OW 2091   2.229   1.100   2.363
  436SOL    HW1 2092   2.222   1.183   2.307
  436SOL    HW2 2093   2.233   1.020   2.303
  437SOL     OW 2094   2.169   0.213   3.093
  437SOL    HW1 2095   2.146   0.250   3.183
  437SOL    HW2 2096   2.139   0.118   3.087
  438SOL     OW 2097   2.677   0.572   2.187
  438SOL    HW1 2098   2.684   0.483   2.141
  438SOL    HW2 2099   2.583   0.606   2.179
  439SOL     OW 2100   2.021   1.137   3.328
  439SOL    HW1 2101   2.043   1.076   3.404
  439SOL    HW2 2102   2.031   1.088   3.242
  440SOL     OW 2103   3.621   1.747   3.016
  440SOL    HW1 2104   3.682   1.777   2.943
  440SOL    HW2 2105   3.583   1.658   2.994
  441SOL     OW 2106   3.588   0.135   2.385
  441SOL    HW1 2107   3.661   0.118   2.318
  441SOL    HW2 2108   3.557   0.048   2.423
  442SOL     OW 2109   3.512   1.720   3.256
  442SOL    HW1 2110   3.565   1.730   3.172
  442SOL    HW2 2111   3.485   1.810   3.290
  443SOL     OW 2112   2.125   0.326   2.582
  443SOL    HW1 2113   2.046   0.377   2.548
  443SOL    HW2 2114   2.116   0.311   2.680
  444SOL     OW 2115   2.876   0.236   2.833
  444SOL    HW1 2116   2.868   0.200   2.740
  444SOL    HW2 2117   2.874   0.160   2.898
  445SOL     OW 2118   2.117   1.348   2.152
  445SOL    HW1 2119   2.021   1.349   2.125
  445SOL    HW2 2120   2.129   1.401   2.236
  446SOL     OW 2121   2.252   1.741   3.422
  446SOL    HW1 2122   2.161   1.782   3.420
  446SOL    HW2 2123   2.245   1.647   3.454
  447SOL     OW 2124   2.179   0.547   3.142
  447SOL    HW1 2125   2.217   0.488   3.214
  447SOL    HW2 2126   2.219   0.521   3.054
  448SOL     OW 2127   3.286   0.214   2.974
  448SOL    HW1 2128   3.338   0.149   3.029
  448SOL    HW2 2129   3.237   0.277   3.035
  449SOL     OW 2130   3.162   0.453   2.553
  449SOL    HW1 2131   3.103   0.533   2.557
  449SOL    HW2 2132   3.177   0.418   2.646
  450SOL     OW 2133   3.322   1.505   5.063
  450SOL    HW1 2134   3.346   1.599   5.089
  450SOL    HW2 2135   3.306   1.451   5.145
  451SOL     OW 2136   3.456   0.114   5.204
  451SOL    HW1 2137   3.438   0.181   5.132
  451SOL    HW2 2138   3.453   0.160   5.293
  452SOL     OW 2139   1.889   1.596   3.841
  452SOL    HW1 2140   1.870   1.500   3.862
  452SOL    HW2 2141   1.856   1.654   3.916
  453SOL     OW 2142   1.975   0.737   5.321
  453SOL    HW1 2143   2.063   0.724   5.366
  453SOL    HW2 2144   1.962   0.834   5.299
  454SOL     OW 2145   2.671   0.004   4.226
  454SOL    HW1 2146   2.711   0.095   4.217
  454SOL    HW2 2147   2.571   0.012   4.232
  455SOL     OW 2148   3.256   0.469   5.398
  455SOL    HW1 2149   3.236   0.512   5.486
  455SOL    HW2 2150   3.334   0.407   5.407
  456SOL     OW 2151   3.224   1.144   4.269
  456SOL    HW1 2152   3.307   1.115   4.221
  456SOL    HW2 2153   3.175   1.211   4.213
  457SOL     OW 2154   3.089   1.550   5.230
  457SOL    HW1 2155   3.095   1.473   5.294
  457SOL    HW2 2156   3.037   1.524   5.150
  458SOL     OW 2157   2.476   0.122   3.841
  458SOL    HW1 2158   2.574   0.100   3.848
  458SOL    HW2 2159   2.445   0.105   3.748
  459SOL     OW 2160   2.643   0.264   5.473
  459SOL    HW1 2161   2.710   0.203   5.516
  459SOL    HW2 2162   2.570   0.283   5.538
  460SOL     OW 2163   3.133   1.797   4.315
  460SOL    HW1 2164   3.177   1.861   4.251
  460SOL    HW2 2165   3.083   1.849   4.385
  461SOL     OW 2166   2.894   0.549   3.740
  461SOL    HW1 2167   2.853   0.631   3.701
  461SOL    HW2 2168   2.958   0.575   3.813
  462SOL     OW 2169   3.526   1.280   4.381
  462SOL    HW1 2170   3.625   1.288   4.395
  462SOL    HW2 2171   3.481   1.364   4.412
  463SOL     OW 2172   2.926   1.347   5.064
  463SOL    HW1 2173   2.846   1.324   5.119
  463SOL    HW2 2174   3.009   1.321   5.113
  464SOL     OW 2175   3.454   1.629   5.349
  464SOL    HW1 2176   3.481   1.663   5.259
  464SOL    HW2 2177   3.533   1.591   5.395
  465SOL     OW 2178   3.136   0.386   4.986
  465SOL    HW1 2179   3.157   0.460   5.050
  465SOL    HW2 2180   3.047   0.403   4.943
  466SOL     OW 2181   2.428   0.537   4.589
  466SOL    HW1 2182   2.440   0.603   4.515
  466SOL    HW2 2183   2.474   0.571   4.672
  467SOL     OW 2184   2.366   0.050   5.464
  467SOL    HW1 2185   2.324  -0.007   5.394
  467SOL    HW2 2186   2.300   0.119   5.496
  468SOL     OW 2187   3.590   0.935   5.578
  468SOL    HW1 2188   3.544   0.928   5.489
  468SOL    HW2 2189   3.528   0.979   5.644
  469SOL     OW 2190   3.022   0.207   5.201
  469SOL    HW1 2191   3.022   0.271   5.278
  469SOL    HW2 2192   3.050   0.255   5.118
  470SOL     OW 2193   3.231   0.950   5.384
  470SOL    HW1 2194   3.270   1.039   5.404
  470SOL    HW2 2195   3.241   0.930   5.287
  471SOL     OW 2196   3.519   0.604   4.930
  471SOL    HW1 2197   3.481   0.535   4.992
  471SOL    HW2 2198   3.601   0.568   4.886
  472SOL     OW 2199   3.164   0.855   4.033
  472SOL    HW1 2200   3.078   0.824   4.075
  472SOL    HW2 2201   3.160   0.841   3.934
  473SOL     OW 2202   3.056   1.612   3.755
  473SOL    HW1 2203   3.062   1.519   3.792
  473SOL    HW2 2204   2.997   1.612   3.675
  474SOL     OW 2205   2.117   1.348   4.014
  474SOL    HW1 2206   2.021   1.349   3.987
  474SOL    HW2 2207   2.129   1.401   4.098
  475SOL     OW 2208   1.967   1.013   5.450
  475SOL    HW1 2209   1.890   0.980   5.504
  475SOL    HW2 2210   2.052   0.983   5.492
  476SOL     OW 2211   1.934   0.166   4.042
  476SOL    HW1 2212   1.917   0.249   3.988
  476SOL    HW2 2213   2.024   0.129   4.020
  477SOL     OW 2214   3.312   1.220   5.357
  477SOL    HW1 2215   3.303   1.210   5.456
  477SOL    HW2 2216   3.408   1.213   5.331
  478SOL     OW 2217   2.721   1.374   3.740
  478SOL    HW1 2218   2.675   1.389   3.828
  478SOL    HW2 2219   2.765   1.459   3.710
  479SOL     OW 2220   3.214   0.052   3.892
  479SOL    HW1 2221   3.249   0.011   3.808
  479SOL    HW2 2222   3.124   0.014   3.912
  480SOL     OW 2223   2.468   0.964   5.709
  480SOL    HW1 2224   2.475   1.048   5.655
  480SOL    HW2 2225   2.514   0.977   5.797
  481SOL     OW 2226   2.183   0.943   5.828
  481SOL    HW1 2227   2.265   0.982   5.786
  481SOL    HW2 2228   2.156   0.861   5.779
  482SOL     OW 2229   2.973   1.776   5.823
  482SOL    HW1 2230   2.913   1.714   5.873
  482SOL    HW2 2231   3.004   1.732   5.738
  483SOL     OW 2232   3.402   0.274   5.711
  483SOL    HW1 2233   3.341   0.199   5.734
  483SOL    HW2 2234   3.424   0.326   5.794
  484SOL     OW 2235   2.534   1.616   5.740
  484SOL    HW1 2236   2.543   1.626   5.641
  484SOL    HW2 2237   2.494   1.527   5.761
  485SOL     OW 2238   2.117   1.348   5.876
  485SOL    HW1 2239   2.021   1.349   5.849
  485SOL    HW2 2240   2.129   1.401   5.960
  486SOL     OW 2241   1.937   0.345   5.619
  486SOL    HW1 2242   1.845   0.317   5.590
  486SOL    HW2 2243   1.968   0.422   5.563
  487SOL     OW 2244   3.045   1.335   5.705
  487SOL    HW1 2245   2.946   1.324   5.707
  487SOL    HW2 2246   3.079   1.350   5.798
  488SOL     OW 2247   3.214   0.052   5.754
  488SOL    HW1 2248   3.249   0.011   5.670
  488SOL    HW2 2249   3.124   0.014   5.774
  489SOL     OW 2250   2.997   2.565   0.717
  489SOL    HW1 2251   3.054   2.643   0.692
  489SOL    HW2 2252   2.937   2.591   0.793
  490SOL     OW 2253   2.630   3.006   1.023
  490SOL    HW1 2254   2.552   3.023   1.083
  490SOL    HW2 2255   2.664   3.093   0.987
  491SOL     OW 2256   2.547   2.874   0.665
  491SOL    HW1 2257   2.616   2.858   0.735
  491SOL    HW2 2258   2.474   2.931   0.703
  492SOL     OW 2259   3.322   3.367   1.339
  492SOL    HW1 2260   3.346   3.461   1.365
  492SOL    HW2 2261   3.306   3.313   1.421
  493SOL     OW 2262   3.704   3.629   0.359
  493SOL    HW1 2263   3.758   3.600   0.439
  493SOL    HW2 2264   3.734   3.719   0.330
  494SOL     OW 2265   3.049   3.654   1.616
  494SOL    HW1 2266   3.073   3.714   1.540
  494SOL    HW2 2267   3.056   3.559   1.586
  495SOL     OW 2268   2.183   2.805   0.242
  495SOL    HW1 2269   2.265   2.844   0.200
  495SOL    HW2 2270   2.156   2.723   0.193
  496SOL     OW 2271   3.320   2.597   0.728
  496SOL    HW1 2272   3.315   2.532   0.803
  496SOL    HW2 2273   3.400   2.656   0.741
  497SOL     OW 2274   2.064   2.147   1.498
  497SOL    HW1 2275   1.984   2.207   1.485
  497SOL    HW2 2276   2.054   2.098   1.584
  498SOL     OW 2277   3.262   1.969   0.426
  498SOL    HW1 2278   3.238   1.932   0.336
  498SOL    HW2 2279   3.361   1.985   0.430
  499SOL     OW 2280   2.665   3.264   0.924
  499SOL    HW1 2281   2.755   3.278   0.882
  499SOL    HW2 2282   2.594   3.266   0.853
  500SOL     OW 2283   2.401   1.926   0.512
  500SOL    HW1 2284   2.320   1.927   0.570
  500SOL    HW2 2285   2.404   2.009   0.457
  501SOL     OW 2286   3.296   3.050   0.041
  501SOL    HW1 2287   3.328   2.974   0.098
  501SOL    HW2 2288   3.204   3.077   0.071
  502SOL     OW 2289   1.940   2.418   1.386
  502SOL    HW1 2290   2.032   2.417   1.345
  502SOL    HW2 2291   1.934   2.492   1.453
  503SOL     OW 2292   3.449   2.641   1.670
  503SOL    HW1 2293   3.357   2.679   1.665
  503SOL    HW2 2294   3.509   2.688   1.605
  504SOL     OW 2295   3.222   2.724   1.045
  504SOL    HW1 2296   3.147   2.724   0.979
  504SOL    HW2 2297   3.259   2.632   1.054
  505SOL     OW 2298   3.071   2.387   0.275
  505SOL    HW1 2299   3.084   2.303   0.329
  505SOL    HW2 2300   3.042   2.461   0.335
  506SOL     OW 2301   3.165   2.700   0.042
  506SOL    HW1 2302   3.199   2.607   0.057
  506SOL    HW2 2303   3.183   2.727  -0.053
  507SOL     OW 2304   1.950   3.663   0.927
  507SOL    HW1 2305   1.908   3.577   0.900
  507SOL    HW2 2306   2.044   3.666   0.893
  508SOL     OW 2307   2.677   2.434   0.325
  508SOL    HW1 2308   2.684   2.345   0.279
  508SOL    HW2 2309   2.583   2.468   0.317
  509SOL     OW 2310   3.519   2.466   1.206
  509SOL    HW1 2311   3.481   2.397   1.268
  509SOL    HW2 2312   3.601   2.430   1.162
  510SOL     OW 2313   3.114   3.593   1.128
  510SOL    HW1 2314   3.198   3.598   1.074
  510SOL    HW2 2315   3.091   3.497   1.146
  511SOL     OW 2316   3.250   3.435   0.477
  511SOL    HW1 2317   3.317   3.447   0.403
  511SOL    HW2 2318   3.210   3.524   0.500
  512SOL     OW 2319   2.125   2.188   0.720
  512SOL    HW1 2320   2.046   2.239   0.686
  512SOL    HW2 2321   2.116   2.173   0.818
  513SOL     OW 2322   2.876   2.098   0.971
  513SOL    HW1 2323   2.868   2.062   0.878
  513SOL    HW2 2324   2.874   2.022   1.036
  514SOL     OW 2325   2.117   3.210   0.290
  514SOL    HW1 2326   2.021   3.211   0.263
  514SOL    HW2 2327   2.129   3.263   0.374
  515SOL     OW 2328   1.941   3.102   0.653
  515SOL    HW1 2329   1.940   3.055   0.741
  515SOL    HW2 2330   2.023   3.074   0.602
  516SOL     OW 2331   3.617   2.469   2.093
  516SOL    HW1 2332   3.605   2.456   1.994
  516SOL    HW2 2333   3.587   2.388   2.142
  517SOL     OW 2334   1.938   2.673   2.651
  517SOL    HW1 2335   2.037   2.661   2.660
  517SOL    HW2 2336   1.914   2.768   2.672
  518SOL     OW 2337   3.588   1.997   2.385
  518SOL    HW1 2338   3.661   1.980   2.318
  518SOL    HW2 2339   3.557   1.910   2.423
  519SOL     OW 2340   2.092   2.490   3.837
  519SOL    HW1 2341   1.999   2.488   3.874
  519SOL    HW2 2342   2.093   2.451   3.745
  520SOL     OW 2343   1.881   2.230   4.371
  520SOL    HW1 2344   1.799   2.273   4.410
  520SOL    HW2 2345   1.853   2.157   4.308
  521SOL     OW 2346   2.197   3.297   4.785
  521SOL    HW1 2347   2.119   3.266   4.732
  521SOL    HW2 2348   2.255   3.355   4.728
  522SOL     OW 2349   1.984   2.505   4.287
  522SOL    HW1 2350   1.939   2.417   4.304
  522SOL    HW2 2351   1.983   2.559   4.371
  523SOL     OW 2352   2.671   1.866   4.226
  523SOL    HW1 2353   2.711   1.957   4.217
  523SOL    HW2 2354   2.571   1.874   4.232
  524SOL     OW 2355   2.179   2.113   5.525
  524SOL    HW1 2356   2.250   2.184   5.531
  524SOL    HW2 2357   2.091   2.152   5.553
  525SOL     OW 2358   2.727   2.210   3.919
  525SOL    HW1 2359   2.786   2.273   3.870
  525SOL    HW2 2360   2.746   2.116   3.890
  526SOL     OW 2361   2.326   3.605   4.047
  526SOL    HW1 2362   2.359   3.644   4.133
  526SOL    HW2 2363   2.402   3.598   3.982
  527SOL     OW 2364   2.111   3.647   4.965
  527SOL    HW1 2365   2.168   3.582   5.015
  527SOL    HW2 2366   2.095   3.614   4.872
  528SOL     OW 2367   2.321   3.014   4.465
  528SOL    HW1 2368   2.250   2.987   4.530
  528SOL    HW2 2369   2.295   2.986   4.372
  529SOL     OW 2370   2.423   2.084   4.871
  529SOL    HW1 2371   2.461   2.000   4.908
  529SOL    HW2 2372   2.335   2.103   4.915
  530SOL     OW 2373   2.973   3.057   4.824
  530SOL    HW1 2374   2.933   3.101   4.905
  530SOL    HW2 2375   2.932   3.094   4.741
  531SOL     OW 2376   2.777   1.951   5.126
  531SOL    HW1 2377   2.802   1.931   5.031
  531SOL    HW2 2378   2.849   2.007   5.168
  532SOL     OW 2379   2.272   2.675   4.975
  532SOL    HW1 2380   2.358   2.687   5.025
  532SOL    HW2 2381   2.230   2.588   5.002
  533SOL     OW 2382   1.926   3.426   5.055
  533SOL    HW1 2383   1.880   3.508   5.021
  533SOL    HW2 2384   2.024   3.445   5.064
  534SOL     OW 2385   3.134   3.307   4.866
  534SOL    HW1 2386   3.181   3.320   4.953
  534SOL    HW2 2387   3.068   3.233   4.875
  535SOL     OW 2388   2.435   2.732   4.753
  535SOL    HW1 2389   2.479   2.821   4.744
  535SOL    HW2 2390   2.372   2.732   4.830
  536SOL     OW 2391   2.169   2.075   4.955
  536SOL    HW1 2392   2.146   2.112   5.045
  536SOL    HW2 2393   2.139   1.980   4.949
  537SOL     OW 2394   3.402   2.136   3.849
  537SOL    HW1 2395   3.341   2.061   3.872
  537SOL    HW2 2396   3.424   2.188   3.932
  538SOL     OW 2397   2.366   3.430   4.634
  538SOL    HW1 2398   2.432   3.504   4.643
  538SOL    HW2 2399   2.410   3.351   4.592
  539SOL     OW 2400   3.512   3.582   5.118
  539SOL    HW1 2401   3.565   3.592   5.034
  539SOL    HW2 2402   3.485   3.672   5.152
  540SOL     OW 2403   3.312   3.082   5.357
  540SOL    HW1 2404   3.303   3.072   5.456
  540SOL    HW2 2405   3.408   3.075   5.331
  541SOL     OW 2406   3.567   3.349   4.828
  541SOL    HW1 2407   3.474   3.324   4.801
  541SOL    HW2 2408   3.593   3.299   4.910
  542SOL     OW 2409   3.286   2.076   4.836
  542SOL    HW1 2410   3.338   2.011   4.891
  542SOL    HW2 2411   3.237   2.139   4.897
  543SOL     OW 2412   2.863   1.896   4.878
  543SOL    HW1 2413   2.800   1.824   4.847
  543SOL    HW2 2414   2.956   1.860   4.878
  544SOL     OW 2415   2.727   2.210   5.781
  544SOL    HW1 2416   2.786   2.273   5.732
  544SOL    HW2 2417   2.746   2.116   5.752
  545SOL     OW 2418   2.476   1.984   5.703
  545SOL    HW1 2419   2.574   1.962   5.710
  545SOL    HW2 2420   2.445   1.967   5.610
  546SOL     OW 2421   1.870   3.188   5.786
  546SOL    HW1 2422   1.777   3.209   5.755
  546SOL    HW2 2423   1.880   3.089   5.799
  547SOL     OW 2424   3.214   1.914   5.754
  547SOL    HW1 2425   3.249   1.873   5.670
  547SOL    HW2 2426   3.124   1.876   5.774
  548SOL     OW 2427   3.465   4.171   0.737
  548SOL    HW1 2428   3.391   4.217   0.687
  548SOL    HW2 2429   3.516   4.239   0.790
  549SOL     OW 2430   2.102   4.815   0.886
  549SOL    HW1 2431   2.116   4.731   0.938
  549SOL    HW2 2432   2.047   4.879   0.941
  550SOL     OW 2433   1.975   4.461   1.597
  550SOL    HW1 2434   2.063   4.448   1.642
  550SOL    HW2 2435   1.962   4.558   1.575
  551SOL     OW 2436   2.475   5.089   0.726
  551SOL    HW1 2437   2.426   5.002   0.735
  551SOL    HW2 2438   2.452   5.132   0.639
  552SOL     OW 2439   3.438   5.386   0.307
  552SOL    HW1 2440   3.527   5.432   0.310
  552SOL    HW2 2441   3.417   5.362   0.212
  553SOL     OW 2442   2.903   4.425   0.429
  553SOL    HW1 2443   2.929   4.421   0.525
  553SOL    HW2 2444   2.818   4.374   0.415
  554SOL     OW 2445   1.938   4.535   0.789
  554SOL    HW1 2446   2.037   4.523   0.798
  554SOL    HW2 2447   1.914   4.630   0.810
  555SOL     OW 2448   3.224   4.868   0.545
  555SOL    HW1 2449   3.307   4.839   0.497
  555SOL    HW2 2450   3.175   4.935   0.489
  556SOL     OW 2451   2.111   5.509   1.241
  556SOL    HW1 2452   2.168   5.444   1.291
  556SOL    HW2 2453   2.095   5.476   1.148
  557SOL     OW 2454   2.423   3.946   1.147
  557SOL    HW1 2455   2.461   3.862   1.184
  557SOL    HW2 2456   2.335   3.965   1.191
  558SOL     OW 2457   2.879   3.763   0.753
  558SOL    HW1 2458   2.807   3.768   0.684
  558SOL    HW2 2459   2.855   3.694   0.822
  559SOL     OW 2460   1.926   5.288   1.331
  559SOL    HW1 2461   1.880   5.370   1.297
  559SOL    HW2 2462   2.024   5.307   1.340
  560SOL     OW 2463   3.134   5.169   1.142
  560SOL    HW1 2464   3.181   5.182   1.229
  560SOL    HW2 2465   3.068   5.095   1.151
  561SOL     OW 2466   3.590   4.659   1.854
  561SOL    HW1 2467   3.544   4.652   1.765
  561SOL    HW2 2468   3.528   4.703   1.920
  562SOL     OW 2469   2.201   4.233   1.006
  562SOL    HW1 2470   2.149   4.150   0.989
  562SOL    HW2 2471   2.278   4.238   0.942
  563SOL     OW 2472   2.366   5.292   0.910
  563SOL    HW1 2473   2.432   5.366   0.919
  563SOL    HW2 2474   2.410   5.213   0.868
  564SOL     OW 2475   1.902   4.268   1.114
  564SOL    HW1 2476   1.987   4.235   1.073
  564SOL    HW2 2477   1.915   4.283   1.212
  565SOL     OW 2478   3.476   5.016   1.289
  565SOL    HW1 2479   3.536   5.019   1.369
  565SOL    HW2 2480   3.401   5.080   1.302
  566SOL     OW 2481   3.045   5.059   0.119
  566SOL    HW1 2482   2.946   5.048   0.121
  566SOL    HW2 2483   3.079   5.074   0.212
  567SOL     OW 2484   3.312   4.944   1.633
  567SOL    HW1 2485   3.303   4.934   1.732
  567SOL    HW2 2486   3.408   4.937   1.607
  568SOL     OW 2487   2.721   5.098   0.016
  568SOL    HW1 2488   2.675   5.113   0.104
  568SOL    HW2 2489   2.765   5.183  -0.014
  569SOL     OW 2490   2.523   5.514   0.953
  569SOL    HW1 2491   2.477   5.602   0.940
  569SOL    HW2 2492   2.622   5.526   0.946
  570SOL     OW 2493   3.686   3.916   1.227
  570SOL    HW1 2494   3.682   3.826   1.271
  570SOL    HW2 2495   3.689   3.905   1.128
  571SOL     OW 2496   3.567   5.211   1.104
  571SOL    HW1 2497   3.474   5.186   1.077
  571SOL    HW2 2498   3.593   5.161   1.186
  572SOL     OW 2499   2.674   5.310   0.687
  572SOL    HW1 2500   2.706   5.320   0.593
  572SOL    HW2 2501   2.595   5.248   0.689
  573SOL     OW 2502   3.049   5.516   3.478
  573SOL    HW1 2503   3.073   5.576   3.402
  573SOL    HW2 2504   3.056   5.421   3.448
  574SOL     OW 2505   2.460   4.453   2.132
  574SOL    HW1 2506   2.484   4.522   2.064
  574SOL    HW2 2507   2.382   4.486   2.186
  575SOL     OW 2508   3.143   4.069   2.806
  575SOL    HW1 2509   3.057   4.019   2.793
  575SOL    HW2 2510   3.205   4.015   2.862
  576SOL     OW 2511   2.669   4.329   3.327
  576SOL    HW1 2512   2.622   4.326   3.416
  576SOL    HW2 2513   2.618   4.274   3.261
  577SOL     OW 2514   2.903   4.425   2.291
  577SOL    HW1 2515   2.929   4.421   2.387
  577SOL    HW2 2516   2.818   4.374   2.277
  578SOL     OW 2517   1.938   4.535   2.651
  578SOL    HW1 2518   2.037   4.523   2.660
  578SOL    HW2 2519   1.914   4.630   2.672
  579SOL     OW 2520   2.412   3.920   2.747
  579SOL    HW1 2521   2.407   3.915   2.847
  579SOL    HW2 2522   2.414   4.016   2.718
  580SOL     OW 2523   3.262   3.831   2.288
  580SOL    HW1 2524   3.238   3.794   2.198
  580SOL    HW2 2525   3.361   3.847   2.292
  581SOL     OW 2526   2.802   5.422   2.766
  581SOL    HW1 2527   2.882   5.365   2.787
  581SOL    HW2 2528   2.753   5.382   2.689
  582SOL     OW 2529   2.665   5.126   2.786
  582SOL    HW1 2530   2.755   5.140   2.744
  582SOL    HW2 2531   2.594   5.128   2.715
  583SOL     OW 2532   3.296   4.912   1.903
  583SOL    HW1 2533   3.328   4.836   1.960
  583SOL    HW2 2534   3.204   4.939   1.933
  584SOL     OW 2535   2.321   4.876   2.603
  584SOL    HW1 2536   2.250   4.849   2.668
  584SOL    HW2 2537   2.295   4.848   2.510
  585SOL     OW 2538   3.133   5.521   2.453
  585SOL    HW1 2539   3.177   5.585   2.389
  585SOL    HW2 2540   3.083   5.573   2.523
  586SOL     OW 2541   3.719   4.557   2.239
  586SOL    HW1 2542   3.761   4.493   2.303
  586SOL    HW2 2543   3.681   4.506   2.161
  587SOL     OW 2544   3.454   5.353   3.487
  587SOL    HW1 2545   3.481   5.387   3.397
  587SOL    HW2 2546   3.533   5.315   3.533
  588SOL     OW 2547   3.500   4.823   2.941
  588SOL    HW1 2548   3.505   4.904   3.000
  588SOL    HW2 2549   3.414   4.825   2.890
  589SOL     OW 2550   3.136   4.110   3.124
  589SOL    HW1 2551   3.157   4.184   3.188
  589SOL    HW2 2552   3.047   4.127   3.081
  590SOL     OW 2553   2.216   5.234   3.191
  590SOL    HW1 2554   2.195   5.190   3.104
  590SOL    HW2 2555   2.313   5.260   3.194
  591SOL     OW 2556   2.594   4.358   2.926
  591SOL    HW1 2557   2.653   4.332   2.850
  591SOL    HW2 2558   2.566   4.454   2.915
  592SOL     OW 2559   2.885   4.490   2.828
  592SOL    HW1 2560   2.900   4.511   2.924
  592SOL    HW2 2561   2.855   4.395   2.819
  593SOL     OW 2562   2.842   5.297   3.562
  593SOL    HW1 2563   2.822   5.341   3.474
  593SOL    HW2 2564   2.881   5.206   3.546
  594SOL     OW 2565   3.022   3.931   3.339
  594SOL    HW1 2566   3.022   3.995   3.416
  594SOL    HW2 2567   3.050   3.979   3.256
  595SOL     OW 2568   2.864   4.520   3.100
  595SOL    HW1 2569   2.905   4.488   3.186
  595SOL    HW2 2570   2.768   4.493   3.097
  596SOL     OW 2571   3.231   4.674   3.522
  596SOL    HW1 2572   3.270   4.763   3.542
  596SOL    HW2 2573   3.241   4.654   3.425
  597SOL     OW 2574   2.533   4.188   3.131
  597SOL    HW1 2575   2.499   4.099   3.101
  597SOL    HW2 2576   2.559   4.242   3.051
  598SOL     OW 2577   2.792   5.402   3.327
  598SOL    HW1 2578   2.768   5.384   3.232
  598SOL    HW2 2579   2.822   5.496   3.337
  599SOL     OW 2580   3.588   3.859   2.385
  599SOL    HW1 2581   3.661   3.842   2.318
  599SOL    HW2 2582   3.557   3.772   2.423
  600SOL     OW 2583   2.692   4.997   3.284
  600SOL    HW1 2584   2.687   5.030   3.379
  600SOL    HW2 2585   2.606   5.016   3.238
  601SOL     OW 2586   2.452   5.211   2.353
  601SOL    HW1 2587   2.494   5.153   2.283
  601SOL    HW2 2588   2.408   5.290   2.309
  602SOL     OW 2589   1.937   4.069   1.895
  602SOL    HW1 2590   1.845   4.041   1.866
  602SOL    HW2 2591   1.968   4.146   1.839
  603SOL     OW 2592   2.721   5.098   1.878
  603SOL    HW1 2593   2.675   5.113   1.966
  603SOL    HW2 2594   2.765   5.183   1.848
  604SOL     OW 2595   2.523   5.514   2.815
  604SOL    HW1 2596   2.477   5.602   2.802
  604SOL    HW2 2597   2.622   5.526   2.808
  605SOL     OW 2598   2.083   5.038   3.706
  605SOL    HW1 2599   2.018   4.965   3.685
  605SOL    HW2 2600   2.087   5.052   3.804
  606SOL     OW 2601   2.092   4.352   3.837
  606SOL    HW1 2602   1.999   4.350   3.874
  606SOL    HW2 2603   2.093   4.313   3.745
  607SOL     OW 2604   2.087   3.999   4.720
  607SOL    HW1 2605   2.122   3.982   4.812
  607SOL    HW2 2606   1.999   3.954   4.708
  608SOL     OW 2607   1.881   4.092   4.371
  608SOL    HW1 2608   1.799   4.135   4.410
  608SOL    HW2 2609   1.853   4.019   4.308
  609SOL     OW 2610   2.197   5.159   4.785
  609SOL    HW1 2611   2.119   5.128   4.732
  609SOL    HW2 2612   2.255   5.217   4.728
  610SOL     OW 2613   2.482   5.510   5.163
  610SOL    HW1 2614   2.390   5.493   5.198
  610SOL    HW2 2615   2.510   5.602   5.189
  611SOL     OW 2616   1.975   4.461   5.321
  611SOL    HW1 2617   2.063   4.448   5.366
  611SOL    HW2 2618   1.962   4.558   5.299
  612SOL     OW 2619   2.671   3.728   4.226
  612SOL    HW1 2620   2.711   3.819   4.217
  612SOL    HW2 2621   2.571   3.736   4.232
  613SOL     OW 2622   2.179   3.975   5.525
  613SOL    HW1 2623   2.250   4.046   5.531
  613SOL    HW2 2624   2.091   4.014   5.553
  614SOL     OW 2625   3.438   5.386   4.031
  614SOL    HW1 2626   3.527   5.432   4.034
  614SOL    HW2 2627   3.417   5.362   3.936
  615SOL     OW 2628   2.870   5.180   4.201
  615SOL    HW1 2629   2.824   5.252   4.149
  615SOL    HW2 2630   2.866   5.200   4.299
  616SOL     OW 2631   2.111   5.509   4.965
  616SOL    HW1 2632   2.168   5.444   5.015
  616SOL    HW2 2633   2.095   5.476   4.872
  617SOL     OW 2634   2.665   5.126   4.648
  617SOL    HW1 2635   2.755   5.140   4.606
  617SOL    HW2 2636   2.594   5.128   4.577
  618SOL     OW 2637   3.526   5.004   4.381
  618SOL    HW1 2638   3.625   5.012   4.395
  618SOL    HW2 2639   3.481   5.088   4.412
  619SOL     OW 2640   3.134   5.169   4.866
  619SOL    HW1 2641   3.181   5.182   4.953
  619SOL    HW2 2642   3.068   5.095   4.875
  620SOL     OW 2643   3.071   4.249   3.999
  620SOL    HW1 2644   3.084   4.165   4.053
  620SOL    HW2 2645   3.042   4.323   4.059
  621SOL     OW 2646   1.899   5.034   5.006
  621SOL    HW1 2647   1.952   4.985   5.074
  621SOL    HW2 2648   1.921   5.132   5.011
  622SOL     OW 2649   2.594   4.358   4.788
  622SOL    HW1 2650   2.653   4.332   4.712
  622SOL    HW2 2651   2.566   4.454   4.777
  623SOL     OW 2652   3.721   5.242   5.329
  623SOL    HW1 2653   3.735   5.269   5.234
  623SOL    HW2 2654   3.804   5.264   5.382
  624SOL     OW 2655   2.212   4.622   5.528
  624SOL    HW1 2656   2.288   4.666   5.576
  624SOL    HW2 2657   2.247   4.575   5.446
  625SOL     OW 2658   2.864   4.520   4.962
  625SOL    HW1 2659   2.905   4.488   5.048
  625SOL    HW2 2660   2.768   4.493   4.959
  626SOL     OW 2661   2.677   4.296   4.049
  626SOL    HW1 2662   2.684   4.207   4.003
  626SOL    HW2 2663   2.583   4.330   4.041
  627SOL     OW 2664   3.209   4.783   4.958
  627SOL    HW1 2665   3.233   4.720   4.884
  627SOL    HW2 2666   3.119   4.823   4.940
  628SOL     OW 2667   3.621   5.471   4.878
  628SOL    HW1 2668   3.682   5.501   4.805
  628SOL    HW2 2669   3.583   5.382   4.856
  629SOL     OW 2670   2.684   4.726   5.096
  629SOL    HW1 2671   2.724   4.725   5.004
  629SOL    HW2 2672   2.694   4.818   5.136
  630SOL     OW 2673   2.234   5.012   5.214
  630SOL    HW1 2674   2.221   5.105   5.180
  630SOL    HW2 2675   2.150   4.960   5.201
  631SOL     OW 2676   2.475   4.566   5.155
  631SOL    HW1 2677   2.531   4.647   5.138
  631SOL    HW2 2678   2.534   4.486   5.158
  632SOL     OW 2679   3.723   5.293   4.575
  632SOL    HW1 2680   3.652   5.281   4.505
  632SOL    HW2 2681   3.724   5.214   4.635
  633SOL     OW 2682   2.290   4.148   4.244
  633SOL    HW1 2683   2.320   4.076   4.182
  633SOL    HW2 2684   2.251   4.108   4.327
  634SOL     OW 2685   2.863   3.758   4.878
  634SOL    HW1 2686   2.800   3.686   4.847
  634SOL    HW2 2687   2.956   3.722   4.878
  635SOL     OW 2688   3.455   3.945   4.606
  635SOL    HW1 2689   3.371   3.944   4.660
  635SOL    HW2 2690   3.457   4.028   4.550
  636SOL     OW 2691   2.159   3.759   5.757
  636SOL    HW1 2692   2.208   3.843   5.736
  636SOL    HW2 2693   2.221   3.694   5.802
  637SOL     OW 2694   2.350   5.109   5.760
  637SOL    HW1 2695   2.263   5.094   5.807
  637SOL    HW2 2696   2.333   5.135   5.665
  638SOL     OW 2697   3.165   4.562   5.628
  638SOL    HW1 2698   3.199   4.469   5.643
  638SOL    HW2 2699   3.183   4.589   5.533
  639SOL     OW 2700   2.677   4.296   5.911
  639SOL    HW1 2701   2.684   4.207   5.865
  639SOL    HW2 2702   2.583   4.330   5.903
  640SOL     OW 2703   3.588   3.859   6.109
  640SOL    HW1 2704   3.661   3.842   6.042
  640SOL    HW2 2705   3.557   3.772   6.147
  641SOL     OW 2706   1.937   4.069   5.619
  641SOL    HW1 2707   1.845   4.041   5.590
  641SOL    HW2 2708   1.968   4.146   5.563
  642SOL     OW 2709   3.214   3.776   5.754
  642SOL    HW1 2710   3.249   3.735   5.670
  642SOL    HW2 2711   3.124   3.738   5.774
  643SOL     OW 2712   2.300   5.978   1.499
  643SOL    HW1 2713   2.382   5.922   1.508
  643SOL    HW2 2714   2.219   5.920   1.503
  644SOL     OW 2715   2.412   5.782   0.885
  644SOL    HW1 2716   2.407   5.777   0.985
  644SOL    HW2 2717   2.414   5.878   0.856
  645SOL     OW 2718   2.476   5.708   0.117
  645SOL    HW1 2719   2.574   5.686   0.124
  645SOL    HW2 2720   2.445   5.691   0.024
  646SOL     OW 2721   3.136   5.972   1.262
  646SOL    HW1 2722   3.157   6.046   1.326
  646SOL    HW2 2723   3.047   5.989   1.219
  647SOL     OW 2724   3.402   5.860   0.125
  647SOL    HW1 2725   3.341   5.785   0.148
  647SOL    HW2 2726   3.424   5.912   0.208
  648SOL     OW 2727   3.456   5.700   3.342
  648SOL    HW1 2728   3.438   5.767   3.270
  648SOL    HW2 2729   3.453   5.746   3.431
  649SOL     OW 2730   3.143   5.931   2.806
  649SOL    HW1 2731   3.057   5.881   2.793
  649SOL    HW2 2732   3.205   5.877   2.862
  650SOL     OW 2733   2.389   5.842   2.190
  650SOL    HW1 2734   2.416   5.783   2.115
  650SOL    HW2 2735   2.389   5.937   2.159
  651SOL     OW 2736   2.169   5.799   3.093
  651SOL    HW1 2737   2.146   5.836   3.183
  651SOL    HW2 2738   2.139   5.704   3.087
  652SOL     OW 2739   2.169   5.649   2.480
  652SOL    HW1 2740   2.158   5.743   2.513
  652SOL    HW2 2741   2.164   5.586   2.557
  653SOL     OW 2742   2.534   5.789   3.351
  653SOL    HW1 2743   2.624   5.773   3.311
  653SOL    HW2 2744   2.542   5.794   3.450
  654SOL     OW 2745   3.617   6.193   3.955
  654SOL    HW1 2746   3.605   6.180   3.856
  654SOL    HW2 2747   3.587   6.112   4.004
  655SOL     OW 2748   2.671   5.590   4.226
  655SOL    HW1 2749   2.711   5.681   4.217
  655SOL    HW2 2750   2.571   5.598   4.232
  656SOL     OW 2751   2.727   5.934   3.919
  656SOL    HW1 2752   2.786   5.997   3.870
  656SOL    HW2 2753   2.746   5.840   3.890
  657SOL     OW 2754   2.412   5.782   4.609
  657SOL    HW1 2755   2.407   5.777   4.709
  657SOL    HW2 2756   2.414   5.878   4.580
  658SOL     OW 2757   2.401   5.650   4.236
  658SOL    HW1 2758   2.320   5.651   4.294
  658SOL    HW2 2759   2.404   5.733   4.181
  659SOL     OW 2760   2.423   5.808   4.871
  659SOL    HW1 2761   2.461   5.724   4.908
  659SOL    HW2 2762   2.335   5.827   4.915
  660SOL     OW 2763   3.136   5.972   4.986
  660SOL    HW1 2764   3.157   6.046   5.050
  660SOL    HW2 2765   3.047   5.989   4.943
  661SOL     OW 2766   3.455   5.807   4.606
  661SOL    HW1 2767   3.371   5.806   4.660
  661SOL    HW2 2768   3.457   5.890   4.550
  662SOL     OW 2769   3.617   6.193   5.817
  662SOL    HW1 2770   3.605   6.180   5.718
  662SOL    HW2 2771   3.587   6.112   5.866
  663SOL     OW 2772   3.954   0.628   0.113
  663SOL    HW1 2773   3.861   0.626   0.150
  663SOL    HW2 2774   3.955   0.589   0.021
  664SOL     OW 2775   5.479   0.607   0.231
  664SOL    HW1 2776   5.467   0.594   0.132
  664SOL    HW2 2777   5.449   0.526   0.280
  665SOL     OW 2778   5.184   1.505   1.339
  665SOL    HW1 2779   5.208   1.599   1.365
  665SOL    HW2 2780   5.168   1.451   1.421
  666SOL     OW 2781   4.533   0.004   0.502
  666SOL    HW1 2782   4.573   0.095   0.493
  666SOL    HW2 2783   4.433   0.012   0.508
  667SOL     OW 2784   5.391   1.714   0.572
  667SOL    HW1 2785   5.350   1.691   0.484
  667SOL    HW2 2786   5.373   1.640   0.637
  668SOL     OW 2787   5.519   1.066   0.873
  668SOL    HW1 2788   5.457   1.051   0.797
  668SOL    HW2 2789   5.467   1.077   0.958
  669SOL     OW 2790   4.185   1.266   1.727
  669SOL    HW1 2791   4.135   1.267   1.641
  669SOL    HW2 2792   4.122   1.248   1.803
  670SOL     OW 2793   3.926   0.285   1.498
  670SOL    HW1 2794   3.846   0.345   1.485
  670SOL    HW2 2795   3.916   0.236   1.584
  671SOL     OW 2796   5.124   0.107   0.426
  671SOL    HW1 2797   5.100   0.070   0.336
  671SOL    HW2 2798   5.223   0.123   0.430
  672SOL     OW 2799   4.338   0.122   0.117
  672SOL    HW1 2800   4.436   0.100   0.124
  672SOL    HW2 2801   4.307   0.105   0.024
  673SOL     OW 2802   4.285   0.222   1.147
  673SOL    HW1 2803   4.323   0.138   1.184
  673SOL    HW2 2804   4.197   0.241   1.191
  674SOL     OW 2805   4.741   0.039   0.753
  674SOL    HW1 2806   4.669   0.044   0.684
  674SOL    HW2 2807   4.717  -0.030   0.822
  675SOL     OW 2808   4.290   0.537   0.865
  675SOL    HW1 2809   4.302   0.603   0.791
  675SOL    HW2 2810   4.336   0.571   0.948
  676SOL     OW 2811   4.976   1.348   0.388
  676SOL    HW1 2812   5.026   1.425   0.428
  676SOL    HW2 2813   4.881   1.350   0.420
  677SOL     OW 2814   5.583   1.518   1.605
  677SOL    HW1 2815   5.597   1.545   1.510
  677SOL    HW2 2816   5.666   1.540   1.658
  678SOL     OW 2817   4.063   0.509   1.006
  678SOL    HW1 2818   4.011   0.426   0.989
  678SOL    HW2 2819   4.140   0.514   0.942
  679SOL     OW 2820   3.913   0.520   1.722
  679SOL    HW1 2821   3.972   0.480   1.652
  679SOL    HW2 2822   3.855   0.591   1.681
  680SOL     OW 2823   5.381   0.604   1.206
  680SOL    HW1 2824   5.343   0.535   1.268
  680SOL    HW2 2825   5.463   0.568   1.162
  681SOL     OW 2826   4.412   1.662   1.716
  681SOL    HW1 2827   4.356   1.743   1.725
  681SOL    HW2 2828   4.464   1.666   1.630
  682SOL     OW 2829   5.112   1.573   0.477
  682SOL    HW1 2830   5.179   1.585   0.403
  682SOL    HW2 2831   5.072   1.662   0.500
  683SOL     OW 2832   3.854   1.794   1.851
  683SOL    HW1 2833   3.813   1.720   1.904
  683SOL    HW2 2834   3.918   1.845   1.909
  684SOL     OW 2835   5.374   1.720   1.394
  684SOL    HW1 2836   5.427   1.730   1.310
  684SOL    HW2 2837   5.347   1.810   1.428
  685SOL     OW 2838   4.949   0.325   0.449
  685SOL    HW1 2839   5.014   0.251   0.438
  685SOL    HW2 2840   4.969   0.375   0.533
  686SOL     OW 2841   4.583   1.374   0.016
  686SOL    HW1 2842   4.537   1.389   0.104
  686SOL    HW2 2843   4.627   1.459  -0.014
  687SOL     OW 2844   3.945   1.314   1.844
  687SOL    HW1 2845   3.880   1.241   1.823
  687SOL    HW2 2846   3.949   1.328   1.942
  688SOL     OW 2847   4.041   0.547   1.280
  688SOL    HW1 2848   4.079   0.488   1.352
  688SOL    HW2 2849   4.081   0.521   1.192
  689SOL     OW 2850   4.059   1.435   2.923
  689SOL    HW1 2851   3.981   1.404   2.870
  689SOL    HW2 2852   4.117   1.493   2.866
  690SOL     OW 2853   3.955   1.713   2.345
  690SOL    HW1 2854   3.989   1.790   2.399
  690SOL    HW2 2855   3.999   1.713   2.255
  691SOL     OW 2856   3.954   1.434   2.400
  691SOL    HW1 2857   3.928   1.530   2.400
  691SOL    HW2 2858   3.883   1.380   2.445
  692SOL     OW 2859   5.566   1.767   2.221
  692SOL    HW1 2860   5.620   1.738   2.301
  692SOL    HW2 2861   5.596   1.857   2.192
  693SOL     OW 2862   5.017   1.228   3.285
  693SOL    HW1 2863   5.054   1.155   3.227
  693SOL    HW2 2864   5.069   1.233   3.370
  694SOL     OW 2865   4.715   0.410   3.104
  694SOL    HW1 2866   4.638   0.444   3.158
  694SOL    HW2 2867   4.681   0.359   3.025
  695SOL     OW 2868   4.589   0.348   2.057
  695SOL    HW1 2869   4.648   0.411   2.008
  695SOL    HW2 2870   4.608   0.254   2.028
  696SOL     OW 2871   5.443   0.585   3.693
  696SOL    HW1 2872   5.417   0.674   3.657
  696SOL    HW2 2873   5.441   0.517   3.620
  697SOL     OW 2874   4.075   1.801   2.715
  697SOL    HW1 2875   4.125   1.715   2.721
  697SOL    HW2 2876   4.140   1.878   2.712
  698SOL     OW 2877   5.182   0.735   2.590
  698SOL    HW1 2878   5.177   0.670   2.665
  698SOL    HW2 2879   5.262   0.794   2.603
  699SOL     OW 2880   5.356   1.377   1.943
  699SOL    HW1 2881   5.324   1.471   1.933
  699SOL    HW2 2882   5.280   1.314   1.931
  700SOL     OW 2883   3.973   1.785   3.103
  700SOL    HW1 2884   4.030   1.720   3.153
  700SOL    HW2 2885   3.957   1.752   3.010
  701SOL     OW 2886   4.664   1.698   2.766
  701SOL    HW1 2887   4.744   1.641   2.787
  701SOL    HW2 2888   4.615   1.658   2.689
  702SOL     OW 2889   4.285   0.222   3.009
  702SOL    HW1 2890   4.323   0.138   3.046
  702SOL    HW2 2891   4.197   0.241   3.053
  703SOL     OW 2892   4.788   1.347   3.202
  703SOL    HW1 2893   4.708   1.324   3.257
  703SOL    HW2 2894   4.871   1.321   3.251
  704SOL     OW 2895   4.704   1.116   3.581
  704SOL    HW1 2896   4.605   1.122   3.591
  704SOL    HW2 2897   4.727   1.036   3.525
  705SOL     OW 2898   4.996   1.445   3.004
  705SOL    HW1 2899   5.043   1.458   3.091
  705SOL    HW2 2900   4.930   1.371   3.013
  706SOL     OW 2901   3.764   0.544   2.976
  706SOL    HW1 2902   3.849   0.511   2.935
  706SOL    HW2 2903   3.777   0.559   3.074
  707SOL     OW 2904   3.976   1.564   3.606
  707SOL    HW1 2905   3.946   1.621   3.682
  707SOL    HW2 2906   3.969   1.467   3.632
  708SOL     OW 2907   4.546   1.002   3.234
  708SOL    HW1 2908   4.586   1.001   3.142
  708SOL    HW2 2909   4.556   1.094   3.274
  709SOL     OW 2910   4.096   1.288   3.352
  709SOL    HW1 2911   4.083   1.381   3.318
  709SOL    HW2 2912   4.012   1.236   3.339
  710SOL     OW 2913   5.164   0.856   3.260
  710SOL    HW1 2914   5.107   0.908   3.197
  710SOL    HW2 2915   5.260   0.868   3.236
  711SOL     OW 2916   4.583   1.374   1.878
  711SOL    HW1 2917   4.537   1.389   1.966
  711SOL    HW2 2918   4.627   1.459   1.848
  712SOL     OW 2919   4.807   0.984   1.949
  712SOL    HW1 2920   4.784   1.037   1.867
  712SOL    HW2 2921   4.888   0.928   1.930
  713SOL     OW 2922   4.396   1.391   3.486
  713SOL    HW1 2923   4.318   1.341   3.524
  713SOL    HW2 2924   4.393   1.486   3.517
  714SOL     OW 2925   3.949   0.275   4.720
  714SOL    HW1 2926   3.984   0.258   4.812
  714SOL    HW2 2927   3.861   0.230   4.708
  715SOL     OW 2928   4.293   1.275   4.889
  715SOL    HW1 2929   4.200   1.268   4.852
  715SOL    HW2 2930   4.304   1.364   4.933
  716SOL     OW 2931   4.859   0.703   4.441
  716SOL    HW1 2932   4.916   0.781   4.416
  716SOL    HW2 2933   4.799   0.729   4.517
  717SOL     OW 2934   3.964   1.091   4.610
  717SOL    HW1 2935   3.978   1.007   4.662
  717SOL    HW2 2936   3.909   1.155   4.665
  718SOL     OW 2937   5.566   1.767   4.083
  718SOL    HW1 2938   5.620   1.738   4.163
  718SOL    HW2 2939   5.596   1.857   4.054
  719SOL     OW 2940   4.533   0.004   4.226
  719SOL    HW1 2941   4.573   0.095   4.217
  719SOL    HW2 2942   4.433   0.012   4.232
  720SOL     OW 2943   4.041   0.251   5.525
  720SOL    HW1 2944   4.112   0.322   5.531
  720SOL    HW2 2945   3.953   0.290   5.553
  721SOL     OW 2946   5.005   0.345   4.668
  721SOL    HW1 2947   4.919   0.295   4.655
  721SOL    HW2 2948   5.067   0.291   4.724
  722SOL     OW 2949   4.274   0.196   4.609
  722SOL    HW1 2950   4.269   0.191   4.709
  722SOL    HW2 2951   4.276   0.292   4.580
  723SOL     OW 2952   4.045   0.943   3.966
  723SOL    HW1 2953   4.127   0.982   3.924
  723SOL    HW2 2954   4.018   0.861   3.917
  724SOL     OW 2955   5.271   0.222   5.453
  724SOL    HW1 2956   5.266   0.259   5.545
  724SOL    HW2 2957   5.199   0.153   5.441
  725SOL     OW 2958   4.995   1.797   4.315
  725SOL    HW1 2959   5.039   1.861   4.251
  725SOL    HW2 2960   4.945   1.849   4.385
  726SOL     OW 2961   5.388   1.280   4.381
  726SOL    HW1 2962   5.487   1.288   4.395
  726SOL    HW2 2963   5.343   1.364   4.412
  727SOL     OW 2964   4.639   0.089   5.126
  727SOL    HW1 2965   4.664   0.069   5.031
  727SOL    HW2 2966   4.711   0.145   5.168
  728SOL     OW 2967   4.126   0.751   5.322
  728SOL    HW1 2968   4.194   0.806   5.275
  728SOL    HW2 2969   4.166   0.663   5.349
  729SOL     OW 2970   4.456   0.634   4.788
  729SOL    HW1 2971   4.515   0.608   4.712
  729SOL    HW2 2972   4.428   0.730   4.777
  730SOL     OW 2973   4.704   1.573   5.424
  730SOL    HW1 2974   4.684   1.617   5.336
  730SOL    HW2 2975   4.743   1.482   5.408
  731SOL     OW 2976   4.074   0.898   5.528
  731SOL    HW1 2977   4.150   0.942   5.576
  731SOL    HW2 2978   4.109   0.851   5.446
  732SOL     OW 2979   4.726   0.796   4.962
  732SOL    HW1 2980   4.767   0.764   5.048
  732SOL    HW2 2981   4.630   0.769   4.959
  733SOL     OW 2982   3.976   1.564   5.468
  733SOL    HW1 2983   3.946   1.621   5.544
  733SOL    HW2 2984   3.969   1.467   5.494
  734SOL     OW 2985   3.883   1.137   5.190
  734SOL    HW1 2986   3.905   1.076   5.266
  734SOL    HW2 2987   3.893   1.088   5.104
  735SOL     OW 2988   4.412   1.662   5.440
  735SOL    HW1 2989   4.356   1.743   5.449
  735SOL    HW2 2990   4.464   1.666   5.354
  736SOL     OW 2991   5.565   0.175   4.687
  736SOL    HW1 2992   5.604   0.090   4.651
  736SOL    HW2 2993   5.467   0.177   4.668
  737SOL     OW 2994   4.640   0.910   4.015
  737SOL    HW1 2995   4.703   0.948   3.947
  737SOL    HW2 2996   4.680   0.827   4.054
  738SOL     OW 2997   3.979   1.348   4.014
  738SOL    HW1 2998   3.883   1.349   3.987
  738SOL    HW2 2999   3.991   1.401   4.098
  739SOL     OW 3000   3.829   1.013   5.450
  739SOL    HW1 3001   3.752   0.980   5.504
  739SOL    HW2 3002   3.914   0.983   5.492
  740SOL     OW 3003   4.337   0.842   5.155
  740SOL    HW1 3004   4.393   0.923   5.138
  740SOL    HW2 3005   4.396   0.762   5.158
  741SOL     OW 3006   4.807   0.984   3.811
  741SOL    HW1 3007   4.784   1.037   3.729
  741SOL    HW2 3008   4.888   0.928   3.792
  742SOL     OW 3009   4.152   0.424   4.244
  742SOL    HW1 3010   4.182   0.352   4.182
  742SOL    HW2 3011   4.113   0.384   4.327
  743SOL     OW 3012   4.725   0.034   4.878
  743SOL    HW1 3013   4.662  -0.038   4.847
  743SOL    HW2 3014   4.818  -0.002   4.878
  744SOL     OW 3015   4.599   1.646   4.061
  744SOL    HW1 3016   4.522   1.611   4.007
  744SOL    HW2 3017   4.567   1.717   4.123
  745SOL     OW 3018   4.045   0.943   5.828
  745SOL    HW1 3019   4.127   0.982   5.786
  745SOL    HW2 3020   4.018   0.861   5.779
  746SOL     OW 3021   4.835   1.776   5.823
  746SOL    HW1 3022   4.775   1.714   5.873
  746SOL    HW2 3023   4.866   1.732   5.738
  747SOL     OW 3024   5.158   1.188   5.627
  747SOL    HW1 3025   5.190   1.112   5.684
  747SOL    HW2 3026   5.066   1.215   5.657
  748SOL     OW 3027   4.021   0.035   5.757
  748SOL    HW1 3028   4.070   0.119   5.736
  748SOL    HW2 3029   4.083  -0.030   5.802
  749SOL     OW 3030   5.581   0.833   5.963
  749SOL    HW1 3031   5.623   0.769   6.027
  749SOL    HW2 3032   5.543   0.782   5.885
  750SOL     OW 3033   4.539   0.572   5.911
  750SOL    HW1 3034   4.546   0.483   5.865
  750SOL    HW2 3035   4.445   0.606   5.903
  751SOL     OW 3036   4.918   1.612   5.617
  751SOL    HW1 3037   4.924   1.519   5.654
  751SOL    HW2 3038   4.859   1.612   5.537
  752SOL     OW 3039   3.796   0.166   5.904
  752SOL    HW1 3040   3.779   0.249   5.850
  752SOL    HW2 3041   3.886   0.129   5.882
  753SOL     OW 3042   5.318   1.976   1.480
  753SOL    HW1 3043   5.300   2.043   1.408
  753SOL    HW2 3044   5.315   2.022   1.569
  754SOL     OW 3045   5.566   3.629   0.359
  754SOL    HW1 3046   5.620   3.600   0.439
  754SOL    HW2 3047   5.596   3.719   0.330
  755SOL     OW 3048   5.413   2.784   0.612
  755SOL    HW1 3049   5.508   2.755   0.620
  755SOL    HW2 3050   5.405   2.849   0.537
  756SOL     OW 3051   5.118   2.331   1.674
  756SOL    HW1 3052   5.098   2.374   1.762
  756SOL    HW2 3053   5.196   2.269   1.683
  757SOL     OW 3054   4.715   2.272   1.242
  757SOL    HW1 3055   4.638   2.306   1.296
  757SOL    HW2 3056   4.681   2.221   1.163
  758SOL     OW 3057   4.732   3.318   0.477
  758SOL    HW1 3058   4.686   3.390   0.425
  758SOL    HW2 3059   4.728   3.338   0.575
  759SOL     OW 3060   4.951   3.412   1.506
  759SOL    HW1 3061   4.957   3.335   1.570
  759SOL    HW2 3062   4.899   3.386   1.426
  760SOL     OW 3063   4.045   2.805   0.242
  760SOL    HW1 3064   4.127   2.844   0.200
  760SOL    HW2 3065   4.018   2.723   0.193
  761SOL     OW 3066   4.835   3.638   0.237
  761SOL    HW1 3067   4.775   3.576   0.287
  761SOL    HW2 3068   4.866   3.594   0.152
  762SOL     OW 3069   5.124   1.969   0.426
  762SOL    HW1 3070   5.100   1.932   0.336
  762SOL    HW2 3071   5.223   1.985   0.430
  763SOL     OW 3072   3.973   3.647   1.241
  763SOL    HW1 3073   4.030   3.582   1.291
  763SOL    HW2 3074   3.957   3.614   1.148
  764SOL     OW 3075   4.106   2.562   0.480
  764SOL    HW1 3076   4.151   2.472   0.477
  764SOL    HW2 3077   4.012   2.551   0.513
  765SOL     OW 3078   4.612   3.376   1.195
  765SOL    HW1 3079   4.589   3.351   1.101
  765SOL    HW2 3080   4.673   3.307   1.234
  766SOL     OW 3081   4.646   2.365   0.899
  766SOL    HW1 3082   4.621   2.356   0.803
  766SOL    HW2 3083   4.694   2.283   0.930
  767SOL     OW 3084   5.158   3.050   0.041
  767SOL    HW1 3085   5.190   2.974   0.098
  767SOL    HW2 3086   5.066   3.077   0.071
  768SOL     OW 3087   3.802   2.418   1.386
  768SOL    HW1 3088   3.894   2.417   1.345
  768SOL    HW2 3089   3.796   2.492   1.453
  769SOL     OW 3090   4.212   3.247   0.174
  769SOL    HW1 3091   4.125   3.232   0.221
  769SOL    HW2 3092   4.195   3.273   0.079
  770SOL     OW 3093   4.998   2.248   1.262
  770SOL    HW1 3094   5.019   2.322   1.326
  770SOL    HW2 3095   4.909   2.265   1.219
  771SOL     OW 3096   4.996   3.307   1.142
  771SOL    HW1 3097   5.043   3.320   1.229
  771SOL    HW2 3098   4.930   3.233   1.151
  772SOL     OW 3099   4.126   2.613   1.598
  772SOL    HW1 3100   4.194   2.668   1.551
  772SOL    HW2 3101   4.166   2.525   1.625
  773SOL     OW 3102   4.228   1.912   1.740
  773SOL    HW1 3103   4.186   1.855   1.670
  773SOL    HW2 3104   4.162   1.981   1.772
  774SOL     OW 3105   4.297   2.732   1.029
  774SOL    HW1 3106   4.341   2.821   1.020
  774SOL    HW2 3107   4.234   2.732   1.106
  775SOL     OW 3108   4.031   2.075   1.231
  775SOL    HW1 3109   4.008   2.112   1.321
  775SOL    HW2 3110   4.001   1.980   1.225
  776SOL     OW 3111   4.747   2.628   0.966
  776SOL    HW1 3112   4.762   2.649   1.062
  776SOL    HW2 3113   4.717   2.533   0.957
  777SOL     OW 3114   5.027   2.700   0.042
  777SOL    HW1 3115   5.061   2.607   0.057
  777SOL    HW2 3116   5.045   2.727  -0.053
  778SOL     OW 3117   4.043   2.672   0.949
  778SOL    HW1 3118   4.136   2.708   0.954
  778SOL    HW2 3119   4.037   2.587   1.001
  779SOL     OW 3120   3.732   3.188   0.200
  779SOL    HW1 3121   3.639   3.209   0.169
  779SOL    HW2 3122   3.742   3.089   0.213
  780SOL     OW 3123   4.726   2.658   1.238
  780SOL    HW1 3124   4.767   2.626   1.324
  780SOL    HW2 3125   4.630   2.631   1.235
  781SOL     OW 3126   4.412   3.524   1.716
  781SOL    HW1 3127   4.356   3.605   1.725
  781SOL    HW2 3128   4.464   3.528   1.630
  782SOL     OW 3129   3.987   2.188   0.720
  782SOL    HW1 3130   3.908   2.239   0.686
  782SOL    HW2 3131   3.978   2.173   0.818
  783SOL     OW 3132   5.338   3.154   1.289
  783SOL    HW1 3133   5.398   3.157   1.369
  783SOL    HW2 3134   5.263   3.218   1.302
  784SOL     OW 3135   3.979   3.210   0.290
  784SOL    HW1 3136   3.883   3.211   0.263
  784SOL    HW2 3137   3.991   3.263   0.374
  785SOL     OW 3138   4.807   2.846   0.087
  785SOL    HW1 3139   4.784   2.899   0.005
  785SOL    HW2 3140   4.888   2.790   0.068
  786SOL     OW 3141   5.429   3.349   1.104
  786SOL    HW1 3142   5.336   3.324   1.077
  786SOL    HW2 3143   5.455   3.299   1.186
  787SOL     OW 3144   4.041   2.409   1.280
  787SOL    HW1 3145   4.079   2.350   1.352
  787SOL    HW2 3146   4.081   2.383   1.192
  788SOL     OW 3147   4.725   1.896   1.154
  788SOL    HW1 3148   4.662   1.824   1.123
  788SOL    HW2 3149   4.818   1.860   1.154
  789SOL     OW 3150   5.024   2.315   0.691
  789SOL    HW1 3151   4.965   2.395   0.695
  789SOL    HW2 3152   5.039   2.280   0.784
  790SOL     OW 3153   4.293   3.137   3.027
  790SOL    HW1 3154   4.200   3.130   2.990
  790SOL    HW2 3155   4.304   3.226   3.071
  791SOL     OW 3156   5.279   3.373   2.565
  791SOL    HW1 3157   5.222   3.357   2.646
  791SOL    HW2 3158   5.220   3.383   2.485
  792SOL     OW 3159   5.184   3.367   3.201
  792SOL    HW1 3160   5.208   3.461   3.227
  792SOL    HW2 3161   5.168   3.313   3.283
  793SOL     OW 3162   3.964   2.953   2.748
  793SOL    HW1 3163   3.978   2.869   2.800
  793SOL    HW2 3164   3.909   3.017   2.803
  794SOL     OW 3165   5.318   1.976   3.342
  794SOL    HW1 3166   5.300   2.043   3.270
  794SOL    HW2 3167   5.315   2.022   3.431
  795SOL     OW 3168   3.846   2.505   2.425
  795SOL    HW1 3169   3.801   2.417   2.442
  795SOL    HW2 3170   3.845   2.559   2.509
  796SOL     OW 3171   4.322   2.591   2.132
  796SOL    HW1 3172   4.346   2.660   2.064
  796SOL    HW2 3173   4.244   2.624   2.186
  797SOL     OW 3174   5.356   3.239   1.943
  797SOL    HW1 3175   5.324   3.333   1.933
  797SOL    HW2 3176   5.280   3.176   1.931
  798SOL     OW 3177   3.973   3.647   3.103
  798SOL    HW1 3178   4.030   3.582   3.153
  798SOL    HW2 3179   3.957   3.614   3.010
  799SOL     OW 3180   4.646   2.365   2.761
  799SOL    HW1 3181   4.621   2.356   2.665
  799SOL    HW2 3182   4.694   2.283   2.792
  800SOL     OW 3183   4.800   2.545   3.326
  800SOL    HW1 3184   4.720   2.484   3.329
  800SOL    HW2 3185   4.881   2.492   3.302
  801SOL     OW 3186   5.153   3.035   2.729
  801SOL    HW1 3187   5.098   2.951   2.722
  801SOL    HW2 3188   5.179   3.064   2.637
  802SOL     OW 3189   5.388   3.142   2.519
  802SOL    HW1 3190   5.487   3.150   2.533
  802SOL    HW2 3191   5.343   3.226   2.550
  803SOL     OW 3192   4.228   1.912   3.602
  803SOL    HW1 3193   4.186   1.855   3.532
  803SOL    HW2 3194   4.162   1.981   3.634
  804SOL     OW 3195   5.583   3.380   3.467
  804SOL    HW1 3196   5.597   3.407   3.372
  804SOL    HW2 3197   5.666   3.402   3.520
  805SOL     OW 3198   4.792   3.195   2.711
  805SOL    HW1 3199   4.799   3.111   2.656
  805SOL    HW2 3200   4.854   3.264   2.675
  806SOL     OW 3201   4.395   2.326   3.131
  806SOL    HW1 3202   4.361   2.237   3.101
  806SOL    HW2 3203   4.421   2.380   3.051
  807SOL     OW 3204   4.197   2.362   2.053
  807SOL    HW1 3205   4.258   2.442   2.057
  807SOL    HW2 3206   4.102   2.393   2.060
  808SOL     OW 3207   5.450   1.997   2.385
  808SOL    HW1 3208   5.523   1.980   2.318
  808SOL    HW2 3209   5.419   1.910   2.423
  809SOL     OW 3210   4.918   3.474   1.893
  809SOL    HW1 3211   4.924   3.381   1.930
  809SOL    HW2 3212   4.859   3.474   1.813
  810SOL     OW 3213   4.640   2.772   2.153
  810SOL    HW1 3214   4.703   2.810   2.085
  810SOL    HW2 3215   4.680   2.689   2.192
  811SOL     OW 3216   5.228   3.469   1.906
  811SOL    HW1 3217   5.136   3.506   1.913
  811SOL    HW2 3218   5.266   3.489   1.816
  812SOL     OW 3219   5.164   2.718   3.260
  812SOL    HW1 3220   5.107   2.770   3.197
  812SOL    HW2 3221   5.260   2.730   3.236
  813SOL     OW 3222   5.174   3.082   3.495
  813SOL    HW1 3223   5.165   3.072   3.594
  813SOL    HW2 3224   5.270   3.075   3.469
  814SOL     OW 3225   5.501   2.204   3.504
  814SOL    HW1 3226   5.484   2.235   3.410
  814SOL    HW2 3227   5.417   2.167   3.542
  815SOL     OW 3228   4.041   2.409   3.142
  815SOL    HW1 3229   4.079   2.350   3.214
  815SOL    HW2 3230   4.081   2.383   3.054
  816SOL     OW 3231   5.148   2.076   2.974
  816SOL    HW1 3232   5.200   2.011   3.029
  816SOL    HW2 3233   5.099   2.139   3.035
  817SOL     OW 3234   4.342   3.429   3.146
  817SOL    HW1 3235   4.337   3.511   3.203
  817SOL    HW2 3236   4.431   3.426   3.101
  818SOL     OW 3237   5.566   3.629   4.083
  818SOL    HW1 3238   5.620   3.600   4.163
  818SOL    HW2 3239   5.596   3.719   4.054
  819SOL     OW 3240   3.837   2.599   5.321
  819SOL    HW1 3241   3.925   2.586   5.366
  819SOL    HW2 3242   3.824   2.696   5.299
  820SOL     OW 3243   5.005   2.207   4.668
  820SOL    HW1 3244   4.919   2.157   4.655
  820SOL    HW2 3245   5.067   2.153   4.724
  821SOL     OW 3246   5.118   2.331   5.398
  821SOL    HW1 3247   5.098   2.374   5.486
  821SOL    HW2 3248   5.196   2.269   5.407
  822SOL     OW 3249   4.589   2.210   3.919
  822SOL    HW1 3250   4.648   2.273   3.870
  822SOL    HW2 3251   4.608   2.116   3.890
  823SOL     OW 3252   3.926   2.147   5.222
  823SOL    HW1 3253   3.846   2.207   5.209
  823SOL    HW2 3254   3.916   2.098   5.308
  824SOL     OW 3255   4.612   3.376   4.919
  824SOL    HW1 3256   4.589   3.351   4.825
  824SOL    HW2 3257   4.673   3.307   4.958
  825SOL     OW 3258   4.212   3.247   3.898
  825SOL    HW1 3259   4.125   3.232   3.945
  825SOL    HW2 3260   4.195   3.273   3.803
  826SOL     OW 3261   4.429   2.912   4.092
  826SOL    HW1 3262   4.415   2.919   4.191
  826SOL    HW2 3263   4.513   2.861   4.074
  827SOL     OW 3264   4.998   2.248   4.986
  827SOL    HW1 3265   5.019   2.322   5.050
  827SOL    HW2 3266   4.909   2.265   4.943
  828SOL     OW 3267   4.290   2.399   4.589
  828SOL    HW1 3268   4.302   2.465   4.515
  828SOL    HW2 3269   4.336   2.433   4.672
  829SOL     OW 3270   4.126   2.613   5.322
  829SOL    HW1 3271   4.194   2.668   5.275
  829SOL    HW2 3272   4.166   2.525   5.349
  830SOL     OW 3273   4.031   2.075   4.955
  830SOL    HW1 3274   4.008   2.112   5.045
  830SOL    HW2 3275   4.001   1.980   4.949
  831SOL     OW 3276   5.027   2.700   3.766
  831SOL    HW1 3277   5.061   2.607   3.781
  831SOL    HW2 3278   5.045   2.727   3.671
  832SOL     OW 3279   4.792   3.195   4.573
  832SOL    HW1 3280   4.799   3.111   4.518
  832SOL    HW2 3281   4.854   3.264   4.537
  833SOL     OW 3282   4.862   2.242   5.402
  833SOL    HW1 3283   4.817   2.305   5.466
  833SOL    HW2 3284   4.955   2.273   5.385
  834SOL     OW 3285   4.228   3.430   4.634
  834SOL    HW1 3286   4.294   3.504   4.643
  834SOL    HW2 3287   4.272   3.351   4.592
  835SOL     OW 3288   3.976   3.426   5.468
  835SOL    HW1 3289   3.946   3.483   5.544
  835SOL    HW2 3290   3.969   3.329   5.494
  836SOL     OW 3291   4.654   3.540   5.189
  836SOL    HW1 3292   4.630   3.522   5.094
  836SOL    HW2 3293   4.684   3.634   5.199
  837SOL     OW 3294   5.483   3.609   4.878
  837SOL    HW1 3295   5.544   3.639   4.805
  837SOL    HW2 3296   5.445   3.520   4.856
  838SOL     OW 3297   5.374   3.582   5.118
  838SOL    HW1 3298   5.427   3.592   5.034
  838SOL    HW2 3299   5.347   3.672   5.152
  839SOL     OW 3300   4.546   2.864   5.096
  839SOL    HW1 3301   4.586   2.863   5.004
  839SOL    HW2 3302   4.556   2.956   5.136
  840SOL     OW 3303   5.398   2.745   4.978
  840SOL    HW1 3304   5.371   2.656   4.941
  840SOL    HW2 3305   5.399   2.813   4.905
  841SOL     OW 3306   4.583   2.818   4.585
  841SOL    HW1 3307   4.637   2.749   4.633
  841SOL    HW2 3308   4.551   2.887   4.651
  842SOL     OW 3309   4.835   3.638   5.823
  842SOL    HW1 3310   4.775   3.576   5.873
  842SOL    HW2 3311   4.866   3.594   5.738
  843SOL     OW 3312   5.581   2.695   5.963
  843SOL    HW1 3313   5.623   2.631   6.027
  843SOL    HW2 3314   5.543   2.644   5.885
  844SOL     OW 3315   5.027   2.700   5.628
  844SOL    HW1 3316   5.061   2.607   5.643
  844SOL    HW2 3317   5.045   2.727   5.533
  845SOL     OW 3318   4.396   3.478   5.740
  845SOL    HW1 3319   4.405   3.488   5.641
  845SOL    HW2 3320   4.356   3.389   5.761
  846SOL     OW 3321   3.743   4.092   0.647
  846SOL    HW1 3322   3.661   4.135   0.686
  846SOL    HW2 3323   3.715   4.019   0.584
  847SOL     OW 3324   4.859   4.427   0.717
  847SOL    HW1 3325   4.916   4.505   0.692
  847SOL    HW2 3326   4.799   4.453   0.793
  848SOL     OW 3327   5.327   4.171   0.737
  848SOL    HW1 3328   5.253   4.217   0.687
  848SOL    HW2 3329   5.378   4.239   0.790
  849SOL     OW 3330   3.955   5.437   0.483
  849SOL    HW1 3331   3.989   5.514   0.537
  849SOL    HW2 3332   3.999   5.437   0.393
  850SOL     OW 3333   5.413   4.646   0.612
  850SOL    HW1 3334   5.508   4.617   0.620
  850SOL    HW2 3335   5.405   4.711   0.537
  851SOL     OW 3336   3.837   4.461   1.597
  851SOL    HW1 3337   3.925   4.448   1.642
  851SOL    HW2 3338   3.824   4.558   1.575
  852SOL     OW 3339   5.017   4.952   1.423
  852SOL    HW1 3340   5.054   4.879   1.365
  852SOL    HW2 3341   5.069   4.957   1.508
  853SOL     OW 3342   5.300   5.386   0.307
  853SOL    HW1 3343   5.389   5.432   0.310
  853SOL    HW2 3344   5.279   5.362   0.212
  854SOL     OW 3345   5.118   4.193   1.674
  854SOL    HW1 3346   5.098   4.236   1.762
  854SOL    HW2 3347   5.196   4.131   1.683
  855SOL     OW 3348   3.800   4.535   0.789
  855SOL    HW1 3349   3.899   4.523   0.798
  855SOL    HW2 3350   3.776   4.630   0.810
  856SOL     OW 3351   4.274   3.920   0.885
  856SOL    HW1 3352   4.269   3.915   0.985
  856SOL    HW2 3353   4.276   4.016   0.856
  857SOL     OW 3354   4.951   5.274   1.506
  857SOL    HW1 3355   4.957   5.197   1.570
  857SOL    HW2 3356   4.899   5.248   1.426
  858SOL     OW 3357   4.835   5.500   0.237
  858SOL    HW1 3358   4.775   5.438   0.287
  858SOL    HW2 3359   4.866   5.456   0.152
  859SOL     OW 3360   3.926   4.009   1.498
  859SOL    HW1 3361   3.846   4.069   1.485
  859SOL    HW2 3362   3.916   3.960   1.584
  860SOL     OW 3363   5.356   5.101   0.081
  860SOL    HW1 3364   5.324   5.195   0.071
  860SOL    HW2 3365   5.280   5.038   0.069
  861SOL     OW 3366   3.973   5.509   1.241
  861SOL    HW1 3367   4.030   5.444   1.291
  861SOL    HW2 3368   3.957   5.476   1.148
  862SOL     OW 3369   4.338   3.846   0.117
  862SOL    HW1 3370   4.436   3.824   0.124
  862SOL    HW2 3371   4.307   3.829   0.024
  863SOL     OW 3372   4.646   4.227   0.899
  863SOL    HW1 3373   4.621   4.218   0.803
  863SOL    HW2 3374   4.694   4.145   0.930
  864SOL     OW 3375   4.263   3.788   0.512
  864SOL    HW1 3376   4.182   3.789   0.570
  864SOL    HW2 3377   4.266   3.871   0.457
  865SOL     OW 3378   4.800   4.407   1.464
  865SOL    HW1 3379   4.720   4.346   1.467
  865SOL    HW2 3380   4.881   4.354   1.440
  866SOL     OW 3381   4.251   3.980   0.328
  866SOL    HW1 3382   4.278   3.921   0.253
  866SOL    HW2 3383   4.251   4.075   0.297
  867SOL     OW 3384   5.316   5.353   1.625
  867SOL    HW1 3385   5.343   5.387   1.535
  867SOL    HW2 3386   5.395   5.315   1.671
  868SOL     OW 3387   5.362   4.823   1.079
  868SOL    HW1 3388   5.367   4.904   1.138
  868SOL    HW2 3389   5.276   4.825   1.028
  869SOL     OW 3390   4.704   4.840   1.719
  869SOL    HW1 3391   4.605   4.846   1.729
  869SOL    HW2 3392   4.727   4.760   1.663
  870SOL     OW 3393   4.290   4.261   0.865
  870SOL    HW1 3394   4.302   4.327   0.791
  870SOL    HW2 3395   4.336   4.295   0.948
  871SOL     OW 3396   4.976   5.072   0.388
  871SOL    HW1 3397   5.026   5.149   0.428
  871SOL    HW2 3398   4.881   5.074   0.420
  872SOL     OW 3399   4.078   5.234   1.329
  872SOL    HW1 3400   4.057   5.190   1.242
  872SOL    HW2 3401   4.175   5.260   1.332
  873SOL     OW 3402   5.084   4.586   1.045
  873SOL    HW1 3403   5.009   4.586   0.979
  873SOL    HW2 3404   5.121   4.494   1.054
  874SOL     OW 3405   4.063   4.233   1.006
  874SOL    HW1 3406   4.011   4.150   0.989
  874SOL    HW2 3407   4.140   4.238   0.942
  875SOL     OW 3408   4.884   3.931   1.477
  875SOL    HW1 3409   4.884   3.995   1.554
  875SOL    HW2 3410   4.912   3.979   1.394
  876SOL     OW 3411   3.913   4.244   1.722
  876SOL    HW1 3412   3.972   4.204   1.652
  876SOL    HW2 3413   3.855   4.315   1.681
  877SOL     OW 3414   4.654   5.402   1.465
  877SOL    HW1 3415   4.630   5.384   1.370
  877SOL    HW2 3416   4.684   5.496   1.475
  878SOL     OW 3417   5.071   4.783   1.234
  878SOL    HW1 3418   5.095   4.720   1.160
  878SOL    HW2 3419   4.981   4.823   1.216
  879SOL     OW 3420   4.976   5.455   1.128
  879SOL    HW1 3421   5.060   5.460   1.074
  879SOL    HW2 3422   4.953   5.359   1.146
  880SOL     OW 3423   5.228   5.331   0.044
  880SOL    HW1 3424   5.136   5.368   0.051
  880SOL    HW2 3425   5.266   5.351  -0.046
  881SOL     OW 3426   4.763   4.822   0.696
  881SOL    HW1 3427   4.693   4.775   0.750
  881SOL    HW2 3428   4.822   4.754   0.653
  882SOL     OW 3429   4.738   3.960   0.971
  882SOL    HW1 3430   4.730   3.924   0.878
  882SOL    HW2 3431   4.736   3.884   1.036
  883SOL     OW 3432   3.979   5.072   0.290
  883SOL    HW1 3433   3.883   5.073   0.263
  883SOL    HW2 3434   3.991   5.125   0.374
  884SOL     OW 3435   3.829   4.737   1.726
  884SOL    HW1 3436   3.752   4.704   1.780
  884SOL    HW2 3437   3.914   4.707   1.768
  885SOL     OW 3438   3.799   4.069   0.033
  885SOL    HW1 3439   3.707   4.041   0.004
  885SOL    HW2 3440   3.830   4.146  -0.023
  886SOL     OW 3441   4.907   5.059   0.119
  886SOL    HW1 3442   4.808   5.048   0.121
  886SOL    HW2 3443   4.941   5.074   0.212
  887SOL     OW 3444   5.217   5.491   0.959
  887SOL    HW1 3445   5.250   5.555   0.890
  887SOL    HW2 3446   5.283   5.485   1.034
  888SOL     OW 3447   3.945   5.038   1.844
  888SOL    HW1 3448   3.880   4.965   1.823
  888SOL    HW2 3449   3.949   5.052   1.942
  889SOL     OW 3450   4.152   4.148   0.520
  889SOL    HW1 3451   4.182   4.076   0.458
  889SOL    HW2 3452   4.113   4.108   0.603
  890SOL     OW 3453   5.317   3.945   0.882
  890SOL    HW1 3454   5.233   3.944   0.936
  890SOL    HW2 3455   5.319   4.028   0.826
  891SOL     OW 3456   3.763   4.801   0.300
  891SOL    HW1 3457   3.862   4.790   0.291
  891SOL    HW2 3458   3.723   4.715   0.332
  892SOL     OW 3459   4.599   5.370   0.337
  892SOL    HW1 3460   4.522   5.335   0.283
  892SOL    HW2 3461   4.567   5.441   0.399
  893SOL     OW 3462   5.479   4.331   2.093
  893SOL    HW1 3463   5.467   4.318   1.994
  893SOL    HW2 3464   5.449   4.250   2.142
  894SOL     OW 3465   5.365   4.832   2.294
  894SOL    HW1 3466   5.451   4.834   2.242
  894SOL    HW2 3467   5.379   4.879   2.382
  895SOL     OW 3468   4.337   5.089   2.588
  895SOL    HW1 3469   4.288   5.002   2.597
  895SOL    HW2 3470   4.314   5.132   2.501
  896SOL     OW 3471   4.041   3.975   3.663
  896SOL    HW1 3472   4.112   4.046   3.669
  896SOL    HW2 3473   3.953   4.014   3.691
  897SOL     OW 3474   5.190   5.141   2.815
  897SOL    HW1 3475   5.131   5.147   2.895
  897SOL    HW2 3476   5.175   5.053   2.769
  898SOL     OW 3477   5.391   5.438   2.434
  898SOL    HW1 3478   5.350   5.415   2.346
  898SOL    HW2 3479   5.373   5.364   2.499
  899SOL     OW 3480   4.322   4.453   2.132
  899SOL    HW1 3481   4.346   4.522   2.064
  899SOL    HW2 3482   4.244   4.486   2.186
  900SOL     OW 3483   4.531   4.329   3.327
  900SOL    HW1 3484   4.484   4.326   3.416
  900SOL    HW2 3485   4.480   4.274   3.261
  901SOL     OW 3486   4.697   4.614   3.434
  901SOL    HW1 3487   4.743   4.530   3.405
  901SOL    HW2 3488   4.641   4.648   3.359
  902SOL     OW 3489   4.715   4.134   3.104
  902SOL    HW1 3490   4.638   4.168   3.158
  902SOL    HW2 3491   4.681   4.083   3.025
  903SOL     OW 3492   4.765   4.425   2.291
  903SOL    HW1 3493   4.791   4.421   2.387
  903SOL    HW2 3494   4.680   4.374   2.277
  904SOL     OW 3495   5.443   4.309   3.693
  904SOL    HW1 3496   5.417   4.398   3.657
  904SOL    HW2 3497   5.441   4.241   3.620
  905SOL     OW 3498   4.185   4.990   3.589
  905SOL    HW1 3499   4.135   4.991   3.503
  905SOL    HW2 3500   4.122   4.972   3.665
  906SOL     OW 3501   3.926   4.009   3.360
  906SOL    HW1 3502   3.846   4.069   3.347
  906SOL    HW2 3503   3.916   3.960   3.446
  907SOL     OW 3504   4.664   5.422   2.766
  907SOL    HW1 3505   4.744   5.365   2.787
  907SOL    HW2 3506   4.615   5.382   2.689
  908SOL     OW 3507   4.505   3.988   3.611
  908SOL    HW1 3508   4.572   3.927   3.654
  908SOL    HW2 3509   4.432   4.007   3.676
  909SOL     OW 3510   4.612   5.238   3.057
  909SOL    HW1 3511   4.589   5.213   2.963
  909SOL    HW2 3512   4.673   5.169   3.096
  910SOL     OW 3513   5.158   4.912   1.903
  910SOL    HW1 3514   5.190   4.836   1.960
  910SOL    HW2 3515   5.066   4.939   1.933
  911SOL     OW 3516   5.478   4.947   3.450
  911SOL    HW1 3517   5.569   4.908   3.437
  911SOL    HW2 3518   5.486   5.043   3.474
  912SOL     OW 3519   5.316   5.353   3.487
  912SOL    HW1 3520   5.343   5.387   3.397
  912SOL    HW2 3521   5.395   5.315   3.533
  913SOL     OW 3522   4.228   3.774   3.602
  913SOL    HW1 3523   4.186   3.717   3.532
  913SOL    HW2 3524   4.162   3.843   3.634
  914SOL     OW 3525   4.862   4.104   3.540
  914SOL    HW1 3526   4.817   4.167   3.604
  914SOL    HW2 3527   4.955   4.135   3.523
  915SOL     OW 3528   4.228   5.292   2.772
  915SOL    HW1 3529   4.294   5.366   2.781
  915SOL    HW2 3530   4.272   5.213   2.730
  916SOL     OW 3531   5.374   5.444   3.256
  916SOL    HW1 3532   5.427   5.454   3.172
  916SOL    HW2 3533   5.347   5.534   3.290
  917SOL     OW 3534   4.546   4.726   3.234
  917SOL    HW1 3535   4.586   4.725   3.142
  917SOL    HW2 3536   4.556   4.818   3.274
  918SOL     OW 3537   4.907   5.059   1.981
  918SOL    HW1 3538   4.808   5.048   1.983
  918SOL    HW2 3539   4.941   5.074   2.074
  919SOL     OW 3540   4.152   4.148   2.382
  919SOL    HW1 3541   4.182   4.076   2.320
  919SOL    HW2 3542   4.113   4.108   2.465
  920SOL     OW 3543   5.429   5.211   2.966
  920SOL    HW1 3544   5.336   5.186   2.939
  920SOL    HW2 3545   5.455   5.161   3.048
  921SOL     OW 3546   4.494   5.054   2.163
  921SOL    HW1 3547   4.448   4.967   2.180
  921SOL    HW2 3548   4.585   5.051   2.204
  922SOL     OW 3549   4.599   5.370   2.199
  922SOL    HW1 3550   4.522   5.335   2.145
  922SOL    HW2 3551   4.567   5.441   2.261
  923SOL     OW 3552   3.954   4.352   3.837
  923SOL    HW1 3553   3.861   4.350   3.874
  923SOL    HW2 3554   3.955   4.313   3.745
  924SOL     OW 3555   5.279   5.235   4.427
  924SOL    HW1 3556   5.222   5.219   4.508
  924SOL    HW2 3557   5.220   5.245   4.347
  925SOL     OW 3558   4.409   4.736   4.389
  925SOL    HW1 3559   4.478   4.720   4.459
  925SOL    HW2 3560   4.336   4.793   4.427
  926SOL     OW 3561   5.184   5.229   5.063
  926SOL    HW1 3562   5.208   5.323   5.089
  926SOL    HW2 3563   5.168   5.175   5.145
  927SOL     OW 3564   4.162   4.116   5.223
  927SOL    HW1 3565   4.244   4.060   5.232
  927SOL    HW2 3566   4.081   4.058   5.227
  928SOL     OW 3567   3.955   5.437   4.207
  928SOL    HW1 3568   3.989   5.514   4.261
  928SOL    HW2 3569   3.999   5.437   4.117
  929SOL     OW 3570   3.846   4.367   4.287
  929SOL    HW1 3571   3.801   4.279   4.304
  929SOL    HW2 3572   3.845   4.421   4.371
  930SOL     OW 3573   3.837   4.461   5.321
  930SOL    HW1 3574   3.925   4.448   5.366
  930SOL    HW2 3575   3.824   4.558   5.299
  931SOL     OW 3576   4.337   5.089   4.450
  931SOL    HW1 3577   4.288   5.002   4.459
  931SOL    HW2 3578   4.314   5.132   4.363
  932SOL     OW 3579   3.921   4.700   4.988
  932SOL    HW1 3580   4.010   4.655   4.974
  932SOL    HW2 3581   3.848   4.635   4.969
  933SOL     OW 3582   5.249   4.723   3.914
  933SOL    HW1 3583   5.186   4.647   3.927
  933SOL    HW2 3584   5.297   4.741   4.000
  934SOL     OW 3585   4.715   4.134   4.966
  934SOL    HW1 3586   4.638   4.168   5.020
  934SOL    HW2 3587   4.681   4.083   4.887
  935SOL     OW 3588   3.854   5.545   5.295
  935SOL    HW1 3589   3.844   5.530   5.394
  935SOL    HW2 3590   3.768   5.581   5.259
  936SOL     OW 3591   4.951   5.274   5.230
  936SOL    HW1 3592   4.957   5.197   5.294
  936SOL    HW2 3593   4.899   5.248   5.150
  937SOL     OW 3594   4.185   4.990   5.451
  937SOL    HW1 3595   4.135   4.991   5.365
  937SOL    HW2 3596   4.122   4.972   5.527
  938SOL     OW 3597   4.021   3.759   3.895
  938SOL    HW1 3598   4.070   3.843   3.874
  938SOL    HW2 3599   4.083   3.694   3.940
  939SOL     OW 3600   5.114   4.299   3.802
  939SOL    HW1 3601   5.060   4.278   3.883
  939SOL    HW2 3602   5.205   4.258   3.811
  940SOL     OW 3603   4.639   3.813   5.126
  940SOL    HW1 3604   4.664   3.793   5.031
  940SOL    HW2 3605   4.711   3.869   5.168
  941SOL     OW 3606   4.998   4.110   4.986
  941SOL    HW1 3607   5.019   4.184   5.050
  941SOL    HW2 3608   4.909   4.127   4.943
  942SOL     OW 3609   4.290   4.261   4.589
  942SOL    HW1 3610   4.302   4.327   4.515
  942SOL    HW2 3611   4.336   4.295   4.672
  943SOL     OW 3612   4.228   3.774   5.464
  943SOL    HW1 3613   4.186   3.717   5.394
  943SOL    HW2 3614   4.162   3.843   5.496
  944SOL     OW 3615   3.761   5.034   5.006
  944SOL    HW1 3616   3.814   4.985   5.074
  944SOL    HW2 3617   3.783   5.132   5.011
  945SOL     OW 3618   4.063   4.233   4.730
  945SOL    HW1 3619   4.011   4.150   4.713
  945SOL    HW2 3620   4.140   4.238   4.666
  946SOL     OW 3621   3.812   5.525   4.651
  946SOL    HW1 3622   3.770   5.439   4.624
  946SOL    HW2 3623   3.906   5.528   4.617
  947SOL     OW 3624   4.395   4.188   4.993
  947SOL    HW1 3625   4.361   4.099   4.963
  947SOL    HW2 3626   4.421   4.242   4.913
  948SOL     OW 3627   5.450   3.859   4.247
  948SOL    HW1 3628   5.523   3.842   4.180
  948SOL    HW2 3629   5.419   3.772   4.285
  949SOL     OW 3630   4.640   4.634   4.015
  949SOL    HW1 3631   4.703   4.672   3.947
  949SOL    HW2 3632   4.680   4.551   4.054
  950SOL     OW 3633   5.454   4.658   5.241
  950SOL    HW1 3634   5.492   4.749   5.256
  950SOL    HW2 3635   5.446   4.641   5.142
  951SOL     OW 3636   5.429   5.211   4.828
  951SOL    HW1 3637   5.336   5.186   4.801
  951SOL    HW2 3638   5.455   5.161   4.910
  952SOL     OW 3639   4.536   5.310   4.411
  952SOL    HW1 3640   4.568   5.320   4.317
  952SOL    HW2 3641   4.457   5.248   4.413
  953SOL     OW 3642   4.835   5.500   5.823
  953SOL    HW1 3643   4.775   5.438   5.873
  953SOL    HW2 3644   4.866   5.456   5.738
  954SOL     OW 3645   5.228   5.331   5.630
  954SOL    HW1 3646   5.136   5.368   5.637
  954SOL    HW2 3647   5.266   5.351   5.540
  955SOL     OW 3648   3.763   4.801   5.886
  955SOL    HW1 3649   3.862   4.790   5.877
  955SOL    HW2 3650   3.723   4.715   5.918
  956SOL     OW 3651   3.949   5.861   0.996
  956SOL    HW1 3652   3.984   5.844   1.088
  956SOL    HW2 3653   3.861   5.816   0.984
  957SOL     OW 3654   4.533   5.590   0.502
  957SOL    HW1 3655   4.573   5.681   0.493
  957SOL    HW2 3656   4.433   5.598   0.508
  958SOL     OW 3657   4.741   5.625   0.753
  958SOL    HW1 3658   4.669   5.630   0.684
  958SOL    HW2 3659   4.717   5.556   0.822
  959SOL     OW 3660   4.998   5.972   1.262
  959SOL    HW1 3661   5.019   6.046   1.326
  959SOL    HW2 3662   4.909   5.989   1.219
  960SOL     OW 3663   5.450   5.721   0.523
  960SOL    HW1 3664   5.523   5.704   0.456
  960SOL    HW2 3665   5.419   5.634   0.561
  961SOL     OW 3666   3.743   5.954   2.509
  961SOL    HW1 3667   3.661   5.997   2.548
  961SOL    HW2 3668   3.715   5.881   2.446
  962SOL     OW 3669   5.005   5.931   2.806
  962SOL    HW1 3670   4.919   5.881   2.793
  962SOL    HW2 3671   5.067   5.877   2.862
  963SOL     OW 3672   5.124   5.693   2.288
  963SOL    HW1 3673   5.100   5.656   2.198
  963SOL    HW2 3674   5.223   5.709   2.292
  964SOL     OW 3675   5.271   5.808   3.591
  964SOL    HW1 3676   5.266   5.845   3.683
  964SOL    HW2 3677   5.199   5.739   3.579
  965SOL     OW 3678   4.251   5.842   2.190
  965SOL    HW1 3679   4.278   5.783   2.115
  965SOL    HW2 3680   4.251   5.937   2.159
  966SOL     OW 3681   4.031   5.649   2.480
  966SOL    HW1 3682   4.020   5.743   2.513
  966SOL    HW2 3683   4.026   5.586   2.557
  967SOL     OW 3684   4.627   5.672   1.995
  967SOL    HW1 3685   4.678   5.673   1.909
  967SOL    HW2 3686   4.683   5.630   2.066
  968SOL     OW 3687   5.450   5.721   2.385
  968SOL    HW1 3688   5.523   5.704   2.318
  968SOL    HW2 3689   5.419   5.634   2.423
  969SOL     OW 3690   3.949   5.861   4.720
  969SOL    HW1 3691   3.984   5.844   4.812
  969SOL    HW2 3692   3.861   5.816   4.708
  970SOL     OW 3693   3.743   5.954   4.371
  970SOL    HW1 3694   3.661   5.997   4.410
  970SOL    HW2 3695   3.715   5.881   4.308
  971SOL     OW 3696   4.274   5.782   4.609
  971SOL    HW1 3697   4.269   5.777   4.709
  971SOL    HW2 3698   4.276   5.878   4.580
  972SOL     OW 3699   5.124   5.693   4.150
  972SOL    HW1 3700   5.100   5.656   4.060
  972SOL    HW2 3701   5.223   5.709   4.154
  973SOL     OW 3702   4.338   5.708   3.841
  973SOL    HW1 3703   4.436   5.686   3.848
  973SOL    HW2 3704   4.307   5.691   3.748
  974SOL     OW 3705   4.505   5.850   5.473
  974SOL    HW1 3706   4.572   5.789   5.516
  974SOL    HW2 3707   4.432   5.869   5.538
  975SOL     OW 3708   4.021   5.621   3.895
  975SOL    HW1 3709   4.070   5.705   3.874
  975SOL    HW2 3710   4.083   5.556   3.940
  976SOL     OW 3711   4.998   5.972   4.986
  976SOL    HW1 3712   5.019   6.046   5.050
  976SOL    HW2 3713   4.909   5.989   4.943
  977SOL     OW 3714   4.031   5.799   4.955
  977SOL    HW1 3715   4.008   5.836   5.045
  977SOL    HW2 3716   4.001   5.704   4.949
  978SOL     OW 3717   4.627   5.672   3.857
  978SOL    HW1 3718   4.678   5.673   3.771
  978SOL    HW2 3719   4.683   5.630   3.928
  979SOL     OW 3720   3.799   5.931   5.619
  979SOL    HW1 3721   3.707   5.903   5.590
  979SOL    HW2 3722   3.830   6.008   5.563
  980SOL     OW 3723   5.921   1.435   1.061
  980SOL    HW1 3724   5.843   1.404   1.008
  980SOL    HW2 3725   5.979   1.493   1.004
  981SOL     OW 3726   5.613   1.596   0.117
  981SOL    HW1 3727   5.594   1.500   0.138
  981SOL    HW2 3728   5.580   1.654   0.192
  982SOL     OW 3729   5.699   0.737   1.597
  982SOL    HW1 3730   5.787   0.724   1.642
  982SOL    HW2 3731   5.686   0.834   1.575
  983SOL     OW 3732   5.664   0.556   1.386
  983SOL    HW1 3733   5.756   0.555   1.345
  983SOL    HW2 3734   5.658   0.630   1.453
  984SOL     OW 3735   5.650   1.564   1.331
  984SOL    HW1 3736   5.604   1.646   1.297
  984SOL    HW2 3737   5.748   1.583   1.340
  985SOL     OW 3738   5.623   1.310   1.282
  985SOL    HW1 3739   5.676   1.261   1.350
  985SOL    HW2 3740   5.645   1.408   1.287
  986SOL     OW 3741   5.775   0.520   1.722
  986SOL    HW1 3742   5.834   0.480   1.652
  986SOL    HW2 3743   5.717   0.591   1.681
  987SOL     OW 3744   5.745   1.137   1.466
  987SOL    HW1 3745   5.767   1.076   1.542
  987SOL    HW2 3746   5.755   1.088   1.380
  988SOL     OW 3747   5.658   0.166   0.318
  988SOL    HW1 3748   5.641   0.249   0.264
  988SOL    HW2 3749   5.748   0.129   0.296
  989SOL     OW 3750   5.625   1.077   0.300
  989SOL    HW1 3751   5.724   1.066   0.291
  989SOL    HW2 3752   5.585   0.991   0.332
  990SOL     OW 3753   5.816   0.628   1.975
  990SOL    HW1 3754   5.723   0.626   2.012
  990SOL    HW2 3755   5.817   0.589   1.883
  991SOL     OW 3756   5.816   1.434   2.400
  991SOL    HW1 3757   5.790   1.530   2.400
  991SOL    HW2 3758   5.745   1.380   2.445
  992SOL     OW 3759   5.838   1.564   3.606
  992SOL    HW1 3760   5.808   1.621   3.682
  992SOL    HW2 3761   5.831   1.467   3.632
  993SOL     OW 3762   5.811   0.275   4.720
  993SOL    HW1 3763   5.846   0.258   4.812
  993SOL    HW2 3764   5.723   0.230   4.708
  994SOL     OW 3765   5.817   1.713   4.207
  994SOL    HW1 3766   5.851   1.790   4.261
  994SOL    HW2 3767   5.861   1.713   4.117
  995SOL     OW 3768   5.716   1.821   5.295
  995SOL    HW1 3769   5.706   1.806   5.394
  995SOL    HW2 3770   5.630   1.857   5.259
  996SOL     OW 3771   5.664   0.556   5.110
  996SOL    HW1 3772   5.756   0.555   5.069
  996SOL    HW2 3773   5.658   0.630   5.177
  997SOL     OW 3774   6.090   1.568   4.634
  997SOL    HW1 3775   6.156   1.642   4.643
  997SOL    HW2 3776   6.134   1.489   4.592
  998SOL     OW 3777   5.669   1.258   4.746
  998SOL    HW1 3778   5.664   1.257   4.846
  998SOL    HW2 3779   5.586   1.217   4.708
  999SOL     OW 3780   5.665   1.240   4.377
  999SOL    HW1 3781   5.664   1.193   4.465
  999SOL    HW2 3782   5.747   1.212   4.326
 1000SOL     OW 3783   5.816   0.628   5.699
 1000SOL    HW1 3784   5.723   0.626   5.736
 1000SOL    HW2 3785   5.817   0.589   5.607
 1001SOL     OW 3786   5.699   2.599   1.597
 1001SOL    HW1 3787   5.787   2.586   1.642
 1001SOL    HW2 3788   5.686   2.696   1.575
 1002SOL     OW 3789   5.883   1.897   0.171
 1002SOL    HW1 3790   5.932   1.981   0.150
 1002SOL    HW2 3791   5.945   1.832   0.216
 1003SOL     OW 3792   5.664   2.418   1.386
 1003SOL    HW1 3793   5.756   2.417   1.345
 1003SOL    HW2 3794   5.658   2.492   1.453
 1004SOL     OW 3795   5.650   3.426   1.331
 1004SOL    HW1 3796   5.604   3.508   1.297
 1004SOL    HW2 3797   5.748   3.445   1.340
 1005SOL     OW 3798   5.953   2.962   0.501
 1005SOL    HW1 3799   5.946   3.045   0.445
 1005SOL    HW2 3800   5.957   2.882   0.441
 1006SOL     OW 3801   5.816   3.296   2.400
 1006SOL    HW1 3802   5.790   3.392   2.400
 1006SOL    HW2 3803   5.745   3.242   2.445
 1007SOL     OW 3804   5.662   2.673   2.651
 1007SOL    HW1 3805   5.761   2.661   2.660
 1007SOL    HW2 3806   5.638   2.768   2.672
 1008SOL     OW 3807   5.665   3.102   2.515
 1008SOL    HW1 3808   5.664   3.055   2.603
 1008SOL    HW2 3809   5.747   3.074   2.464
 1009SOL     OW 3810   5.811   2.137   4.720
 1009SOL    HW1 3811   5.846   2.120   4.812
 1009SOL    HW2 3812   5.723   2.092   4.708
 1010SOL     OW 3813   5.699   2.599   5.321
 1010SOL    HW1 3814   5.787   2.586   5.366
 1010SOL    HW2 3815   5.686   2.696   5.299
 1011SOL     OW 3816   5.838   3.426   5.468
 1011SOL    HW1 3817   5.808   3.483   5.544
 1011SOL    HW2 3818   5.831   3.329   5.494
 1012SOL     OW 3819   5.669   3.120   4.746
 1012SOL    HW1 3820   5.664   3.119   4.846
 1012SOL    HW2 3821   5.586   3.079   4.708
 1013SOL     OW 3822   5.716   3.656   5.575
 1013SOL    HW1 3823   5.675   3.582   5.628
 1013SOL    HW2 3824   5.780   3.707   5.633
 1014SOL     OW 3825   5.605   4.092   0.647
 1014SOL    HW1 3826   5.523   4.135   0.686
 1014SOL    HW2 3827   5.577   4.019   0.584
 1015SOL     OW 3828   5.708   4.367   0.563
 1015SOL    HW1 3829   5.663   4.279   0.580
 1015SOL    HW2 3830   5.707   4.421   0.647
 1016SOL     OW 3831   6.090   5.292   0.910
 1016SOL    HW1 3832   6.156   5.366   0.919
 1016SOL    HW2 3833   6.134   5.213   0.868
 1017SOL     OW 3834   5.716   5.545   3.433
 1017SOL    HW1 3835   5.706   5.530   3.532
 1017SOL    HW2 3836   5.630   5.581   3.397
 1018SOL     OW 3837   5.883   3.759   2.033
 1018SOL    HW1 3838   5.932   3.843   2.012
 1018SOL    HW2 3839   5.945   3.694   2.078
 1019SOL     OW 3840   5.661   4.069   1.895
 1019SOL    HW1 3841   5.569   4.041   1.866
 1019SOL    HW2 3842   5.692   4.146   1.839
 1020SOL     OW 3843   5.788   4.009   5.222
 1020SOL    HW1 3844   5.708   4.069   5.209
 1020SOL    HW2 3845   5.778   3.960   5.308
 1021SOL     OW 3846   5.664   4.280   5.110
 1021SOL    HW1 3847   5.756   4.279   5.069
 1021SOL    HW2 3848   5.658   4.354   5.177
 1022SOL     OW 3849   5.623   5.034   5.006
 1022SOL    HW1 3850   5.676   4.985   5.074
 1022SOL    HW2 3851   5.645   5.132   5.011
 1023SOL     OW 3852   5.665   4.964   4.377
 1023SOL    HW1 3853   5.664   4.917   4.465
 1023SOL    HW2 3854   5.747   4.936   4.326
 1024SOL     OW 3855   5.625   4.801   4.024
 1024SOL    HW1 3856   5.724   4.790   4.015
 1024SOL    HW2 3857   5.585   4.715   4.056
 1025SOL     OW 3858   6.113   3.980   5.914
 1025SOL    HW1 3859   6.140   3.921   5.839
 1025SOL    HW2 3860   6.113   4.075   5.883
 1026SOL     OW 3861   5.605   5.954   2.509
 1026SOL    HW1 3862   5.523   5.997   2.548
 1026SOL    HW2 3863   5.577   5.881   2.446
 1027SOL     OW 3864   5.788   5.871   3.360
 1027SOL    HW1 3865   5.708   5.931   3.347
 1027SOL    HW2 3866   5.778   5.822   3.446
 1028SOL     OW 3867   5.883   5.621   2.033
 1028SOL    HW1 3868   5.932   5.705   2.012
 1028SOL    HW2 3869   5.945   5.556   2.078
 1029SOL     OW 3870   5.605   5.954   4.371
 1029SOL    HW1 3871   5.523   5.997   4.410
 1029SOL    HW2 3872   5.577   5.881   4.308
 1030SOL     OW 3873   5.658   5.752   4.042
 1030SOL    HW1 3874   5.641   5.835   3.988
 1030SOL    HW2 3875   5.748   5.715   4.020
   5.88059   5.88059   5.88059
