
; Pre-Equilibration Parameters
; ----------------------------
; This MDP file is used for NPT pre-equilibration at 400 K.

; Run parameters
integrator              = md            ; Leap-frog integrator
nsteps                  = 100000        ; Number of steps (100 ps)
dt                      = 0.001         ; Time step (ps)

; Output control
nstxout-compressed      = 5000           ; Write compressed coordinates every 1 ps
nstenergy               = 5000           ; Write energies every 1 ps
nstlog                  = 5000           ; Write log file every 1 ps

; Bonded parameters
constraints             = h-bonds       ; Constrain bonds involving hydrogen
constraint_algorithm    = lincs         ; LINCS algorithm for constraints

; Nonbonded settings
cutoff-scheme           = Verlet        ; Buffered neighbor searching
rlist                   = 1.2           ; Short-range neighbor list cutoff (nm)
rvdw                    = 1.2           ; Short-range van der Waals cutoff (nm)

; Electrostatics settings
coulombtype             = PME           ; Particle Mesh Ewald for long-range electrostatics
rcoulomb                = 1.2           ; Short-range electrostatic cutoff (nm)

; Temperature coupling
tcoupl                  = V-rescale     ; Velocity-rescaling thermostat
tc-grps                 = System        ; Coupling group (entire system)
tau_t                   = 0.1           ; Time constant for temperature coupling (ps)
ref_t                   = 400           ; Reference temperature (K)

; Pressure coupling
pcoupl                  = Berendsen     ; Berendsen barostat
pcoupltype              = isotropic     ; Isotropic pressure coupling
tau_p                   = 2.0           ; Time constant for pressure coupling (ps)
ref_p                   = 1.0           ; Reference pressure (bar)
compressibility         = 4.5e-5        ; Compressibility of water (bar^-1)

; Periodic boundary conditions
pbc                     = xyz           ; Periodic boundary conditions in all directions

; Velocity generation
gen_vel                 = yes           ; Generate initial velocities
gen_temp                = 400           ; Temperature for Maxwell distribution (K)
gen_seed                = -1            ; Random seed for velocity generation
