;
;   File /Users/harish/Documents/Work_folder/MetaChem-workshops/polymermd-workshop/Day3-gen-polymer-solved/polymers/PEO25_PET25_block/topol.top  was generated
;   By user: harish (501)
;   On host:Mac 
;   At date:Mon. December  1 09:52:53 2025 
;
;   This is a standalone topology file
;
;   Created by:
;   ParmEd:       ipykernel_launcher.py, VERSION4.3.0 
;   Executable:   ipykernel_launcher.py
;   Library dir:  /Users/harish/miniconda3/envs/polymer_md/share/gromacs/top
;   Command line:
;     /Users/harish/miniconda3/envs/polymer_md/lib/python3.12/site-packages/ipykernel_launcher.py --f=/Users/harish/Library/Jupyter/runtime/kernel-v322f24bccc3f1cd820d1847e5d0c18409702f8398.json
;

[ defaults ]
; nbfunc        comb-rule       gen-pairs       fudgeLJ fudgeQQ
1               2               yes             0.5          0.83333333  

[ atomtypes ]
; name    at.num    mass    charge ptype  sigma      epsilon
c3             6  12.010000  0.00000000  A     0.33977095      0.4510352
h1             1   1.008000  0.00000000  A     0.24219973      0.0870272
os             8  16.000000  0.00000000  A     0.31560978      0.3037584
c              6  12.010000  0.00000000  A     0.33152123      0.4133792
o              8  16.000000  0.00000000  A     0.30481209      0.6121192
ca             6  12.010000  0.00000000  A     0.33152123      0.4133792
ha             1   1.008000  0.00000000  A     0.26254785      0.0673624
hc             1   1.008000  0.00000000  A      0.2600177      0.0870272
; Add the following lines to the [ atomtypes ] section of the topology file:
OW           8      16.00    0.0000  A   3.15061e-01  6.36386e-01
HW           1       1.008   0.0000  A   0.00000e+00  0.00000e+00
Na          11      22.99    0.0000  A   3.32840e-01  1.15897e-02
Cl          17      35.45    0.0000  A   4.40104e-01  4.18400e-01

; Include water topology:
#include "amber03.ff/tip3p.itp"

; Include topology for ions:
[ moleculetype ]
; molname       nrexcl
CL              1

[ atoms ]
; id    at type         res nr  residu name     at name  cg nr  charge
1       Cl              1       CL              CL       1      -1.00000

[ moleculetype ]
; molname       nrexcl
NA              1

[ atoms ]
; id    at type         res nr  residu name     at name  cg nr  charge
1       Na              1       NA              NA       1      1.00000


[ moleculetype ]
; Name            nrexcl
system1          3

[ atoms ]
;   nr       type  resnr residue  atom   cgnr    charge       mass  typeB    chargeB      massB
; residue    1 PEO rtp PEO q 0.0
    1         c3      1    PEO     C1      1 0.13484800  12.010000   ; qtot 0.134848
    2         h1      1    PEO     H3      2 0.02617500   1.008000   ; qtot 0.161023
    3         h1      1    PEO     H4      3 0.02617500   1.008000   ; qtot 0.187198
    4         os      1    PEO      O      4 -0.42067400  16.000000   ; qtot -0.233476
    5         c3      1    PEO     C2      5 0.12975600  12.010000   ; qtot -0.103720
    6         h1      1    PEO     H5      6 0.04043400   1.008000   ; qtot -0.063286
    7         h1      1    PEO     H6      7 0.04043400   1.008000   ; qtot -0.022852
    8         c3      1    PEO     C3      8 0.13281100  12.010000   ; qtot 0.109959
    9         h1      1    PEO     H7      9 0.04349000   1.008000   ; qtot 0.153449
   10         h1      1    PEO     H8     10 0.04349000   1.008000   ; qtot 0.196939
   11         os      1    PEO     O1     11 -0.42263700  16.000000   ; qtot -0.225698
   12         c3      1    PEO     C4     12 0.13281100  12.010000   ; qtot -0.092887
   13         h1      1    PEO     H9     13 0.04349000   1.008000   ; qtot -0.049397
   14         h1      1    PEO    H10     14 0.04349000   1.008000   ; qtot -0.005907
   15         c3      1    PEO     C5     15 0.13179300  12.010000   ; qtot 0.125886
   16         h1      1    PEO    H11     16 0.04247100   1.008000   ; qtot 0.168357
   17         h1      1    PEO    H12     17 0.04247100   1.008000   ; qtot 0.210828
   18         os      1    PEO     O2     18 -0.42165600  16.000000   ; qtot -0.210828
   19         c3      1    PEO     C6     19 0.13179300  12.010000   ; qtot -0.079035
   20         h1      1    PEO    H13     20 0.04247100   1.008000   ; qtot -0.036564
   21         h1      1    PEO    H14     21 0.04247100   1.008000   ; qtot 0.005907
   22         c3      1    PEO     C7     22 0.13281100  12.010000   ; qtot 0.138718
   23         h1      1    PEO    H15     23 0.04349000   1.008000   ; qtot 0.182208
   24         h1      1    PEO    H16     24 0.04349000   1.008000   ; qtot 0.225698
   25         os      1    PEO     O3     25 -0.42263700  16.000000   ; qtot -0.196939
   26         c3      1    PEO     C8     26 0.13281100  12.010000   ; qtot -0.064128
   27         h1      1    PEO    H17     27 0.04349000   1.008000   ; qtot -0.020638
   28         h1      1    PEO    H18     28 0.04349000   1.008000   ; qtot 0.022852
   29         c3      1    PEO     C9     29 0.12975600  12.010000   ; qtot 0.152608
   30         h1      1    PEO    H19     30 0.04043400   1.008000   ; qtot 0.193042
   31         h1      1    PEO    H20     31 0.04043400   1.008000   ; qtot 0.233476
   32         os      1    PEO     O4     32 -0.42067400  16.000000   ; qtot -0.187198
   33         c3      1    PEO    C10     33 0.13484800  12.010000   ; qtot -0.052350
   34         h1      1    PEO    H21     34 0.02617500   1.008000   ; qtot -0.026175
   35         h1      1    PEO    H22     35 0.02617500   1.008000   ; qtot 0.000000
; residue    2 PEO rtp PEO q 0.0
   36         c3      2    PEO     C1     36 0.13484800  12.010000   ; qtot 0.134848
   37         h1      2    PEO     H3     37 0.02617500   1.008000   ; qtot 0.161023
   38         h1      2    PEO     H4     38 0.02617500   1.008000   ; qtot 0.187198
   39         os      2    PEO      O     39 -0.42067400  16.000000   ; qtot -0.233476
   40         c3      2    PEO     C2     40 0.12975600  12.010000   ; qtot -0.103720
   41         h1      2    PEO     H5     41 0.04043400   1.008000   ; qtot -0.063286
   42         h1      2    PEO     H6     42 0.04043400   1.008000   ; qtot -0.022852
   43         c3      2    PEO     C3     43 0.13281100  12.010000   ; qtot 0.109959
   44         h1      2    PEO     H7     44 0.04349000   1.008000   ; qtot 0.153449
   45         h1      2    PEO     H8     45 0.04349000   1.008000   ; qtot 0.196939
   46         os      2    PEO     O1     46 -0.42263700  16.000000   ; qtot -0.225698
   47         c3      2    PEO     C4     47 0.13281100  12.010000   ; qtot -0.092887
   48         h1      2    PEO     H9     48 0.04349000   1.008000   ; qtot -0.049397
   49         h1      2    PEO    H10     49 0.04349000   1.008000   ; qtot -0.005907
   50         c3      2    PEO     C5     50 0.13179300  12.010000   ; qtot 0.125886
   51         h1      2    PEO    H11     51 0.04247100   1.008000   ; qtot 0.168357
   52         h1      2    PEO    H12     52 0.04247100   1.008000   ; qtot 0.210828
   53         os      2    PEO     O2     53 -0.42165600  16.000000   ; qtot -0.210828
   54         c3      2    PEO     C6     54 0.13179300  12.010000   ; qtot -0.079035
   55         h1      2    PEO    H13     55 0.04247100   1.008000   ; qtot -0.036564
   56         h1      2    PEO    H14     56 0.04247100   1.008000   ; qtot 0.005907
   57         c3      2    PEO     C7     57 0.13281100  12.010000   ; qtot 0.138718
   58         h1      2    PEO    H15     58 0.04349000   1.008000   ; qtot 0.182208
   59         h1      2    PEO    H16     59 0.04349000   1.008000   ; qtot 0.225698
   60         os      2    PEO     O3     60 -0.42263700  16.000000   ; qtot -0.196939
   61         c3      2    PEO     C8     61 0.13281100  12.010000   ; qtot -0.064128
   62         h1      2    PEO    H17     62 0.04349000   1.008000   ; qtot -0.020638
   63         h1      2    PEO    H18     63 0.04349000   1.008000   ; qtot 0.022852
   64         c3      2    PEO     C9     64 0.12975600  12.010000   ; qtot 0.152608
   65         h1      2    PEO    H19     65 0.04043400   1.008000   ; qtot 0.193042
   66         h1      2    PEO    H20     66 0.04043400   1.008000   ; qtot 0.233476
   67         os      2    PEO     O4     67 -0.42067400  16.000000   ; qtot -0.187198
   68         c3      2    PEO    C10     68 0.13484800  12.010000   ; qtot -0.052350
   69         h1      2    PEO    H21     69 0.02617500   1.008000   ; qtot -0.026175
   70         h1      2    PEO    H22     70 0.02617500   1.008000   ; qtot 0.000000
; residue    3 PEO rtp PEO q 0.0
   71         c3      3    PEO     C1     71 0.13484800  12.010000   ; qtot 0.134848
   72         h1      3    PEO     H3     72 0.02617500   1.008000   ; qtot 0.161023
   73         h1      3    PEO     H4     73 0.02617500   1.008000   ; qtot 0.187198
   74         os      3    PEO      O     74 -0.42067400  16.000000   ; qtot -0.233476
   75         c3      3    PEO     C2     75 0.12975600  12.010000   ; qtot -0.103720
   76         h1      3    PEO     H5     76 0.04043400   1.008000   ; qtot -0.063286
   77         h1      3    PEO     H6     77 0.04043400   1.008000   ; qtot -0.022852
   78         c3      3    PEO     C3     78 0.13281100  12.010000   ; qtot 0.109959
   79         h1      3    PEO     H7     79 0.04349000   1.008000   ; qtot 0.153449
   80         h1      3    PEO     H8     80 0.04349000   1.008000   ; qtot 0.196939
   81         os      3    PEO     O1     81 -0.42263700  16.000000   ; qtot -0.225698
   82         c3      3    PEO     C4     82 0.13281100  12.010000   ; qtot -0.092887
   83         h1      3    PEO     H9     83 0.04349000   1.008000   ; qtot -0.049397
   84         h1      3    PEO    H10     84 0.04349000   1.008000   ; qtot -0.005907
   85         c3      3    PEO     C5     85 0.13179300  12.010000   ; qtot 0.125886
   86         h1      3    PEO    H11     86 0.04247100   1.008000   ; qtot 0.168357
   87         h1      3    PEO    H12     87 0.04247100   1.008000   ; qtot 0.210828
   88         os      3    PEO     O2     88 -0.42165600  16.000000   ; qtot -0.210828
   89         c3      3    PEO     C6     89 0.13179300  12.010000   ; qtot -0.079035
   90         h1      3    PEO    H13     90 0.04247100   1.008000   ; qtot -0.036564
   91         h1      3    PEO    H14     91 0.04247100   1.008000   ; qtot 0.005907
   92         c3      3    PEO     C7     92 0.13281100  12.010000   ; qtot 0.138718
   93         h1      3    PEO    H15     93 0.04349000   1.008000   ; qtot 0.182208
   94         h1      3    PEO    H16     94 0.04349000   1.008000   ; qtot 0.225698
   95         os      3    PEO     O3     95 -0.42263700  16.000000   ; qtot -0.196939
   96         c3      3    PEO     C8     96 0.13281100  12.010000   ; qtot -0.064128
   97         h1      3    PEO    H17     97 0.04349000   1.008000   ; qtot -0.020638
   98         h1      3    PEO    H18     98 0.04349000   1.008000   ; qtot 0.022852
   99         c3      3    PEO     C9     99 0.12975600  12.010000   ; qtot 0.152608
  100         h1      3    PEO    H19    100 0.04043400   1.008000   ; qtot 0.193042
  101         h1      3    PEO    H20    101 0.04043400   1.008000   ; qtot 0.233476
  102         os      3    PEO     O4    102 -0.42067400  16.000000   ; qtot -0.187198
  103         c3      3    PEO    C10    103 0.13484800  12.010000   ; qtot -0.052350
  104         h1      3    PEO    H21    104 0.02617500   1.008000   ; qtot -0.026175
  105         h1      3    PEO    H22    105 0.02617500   1.008000   ; qtot 0.000000
; residue    4 PEO rtp PEO q 0.0
  106         c3      4    PEO     C1    106 0.13484800  12.010000   ; qtot 0.134848
  107         h1      4    PEO     H3    107 0.02617500   1.008000   ; qtot 0.161023
  108         h1      4    PEO     H4    108 0.02617500   1.008000   ; qtot 0.187198
  109         os      4    PEO      O    109 -0.42067400  16.000000   ; qtot -0.233476
  110         c3      4    PEO     C2    110 0.12975600  12.010000   ; qtot -0.103720
  111         h1      4    PEO     H5    111 0.04043400   1.008000   ; qtot -0.063286
  112         h1      4    PEO     H6    112 0.04043400   1.008000   ; qtot -0.022852
  113         c3      4    PEO     C3    113 0.13281100  12.010000   ; qtot 0.109959
  114         h1      4    PEO     H7    114 0.04349000   1.008000   ; qtot 0.153449
  115         h1      4    PEO     H8    115 0.04349000   1.008000   ; qtot 0.196939
  116         os      4    PEO     O1    116 -0.42263700  16.000000   ; qtot -0.225698
  117         c3      4    PEO     C4    117 0.13281100  12.010000   ; qtot -0.092887
  118         h1      4    PEO     H9    118 0.04349000   1.008000   ; qtot -0.049397
  119         h1      4    PEO    H10    119 0.04349000   1.008000   ; qtot -0.005907
  120         c3      4    PEO     C5    120 0.13179300  12.010000   ; qtot 0.125886
  121         h1      4    PEO    H11    121 0.04247100   1.008000   ; qtot 0.168357
  122         h1      4    PEO    H12    122 0.04247100   1.008000   ; qtot 0.210828
  123         os      4    PEO     O2    123 -0.42165600  16.000000   ; qtot -0.210828
  124         c3      4    PEO     C6    124 0.13179300  12.010000   ; qtot -0.079035
  125         h1      4    PEO    H13    125 0.04247100   1.008000   ; qtot -0.036564
  126         h1      4    PEO    H14    126 0.04247100   1.008000   ; qtot 0.005907
  127         c3      4    PEO     C7    127 0.13281100  12.010000   ; qtot 0.138718
  128         h1      4    PEO    H15    128 0.04349000   1.008000   ; qtot 0.182208
  129         h1      4    PEO    H16    129 0.04349000   1.008000   ; qtot 0.225698
  130         os      4    PEO     O3    130 -0.42263700  16.000000   ; qtot -0.196939
  131         c3      4    PEO     C8    131 0.13281100  12.010000   ; qtot -0.064128
  132         h1      4    PEO    H17    132 0.04349000   1.008000   ; qtot -0.020638
  133         h1      4    PEO    H18    133 0.04349000   1.008000   ; qtot 0.022852
  134         c3      4    PEO     C9    134 0.12975600  12.010000   ; qtot 0.152608
  135         h1      4    PEO    H19    135 0.04043400   1.008000   ; qtot 0.193042
  136         h1      4    PEO    H20    136 0.04043400   1.008000   ; qtot 0.233476
  137         os      4    PEO     O4    137 -0.42067400  16.000000   ; qtot -0.187198
  138         c3      4    PEO    C10    138 0.13484800  12.010000   ; qtot -0.052350
  139         h1      4    PEO    H21    139 0.02617500   1.008000   ; qtot -0.026175
  140         h1      4    PEO    H22    140 0.02617500   1.008000   ; qtot 0.000000
; residue    5 PEO rtp PEO q 0.0
  141         c3      5    PEO     C1    141 0.13484800  12.010000   ; qtot 0.134848
  142         h1      5    PEO     H3    142 0.02617500   1.008000   ; qtot 0.161023
  143         h1      5    PEO     H4    143 0.02617500   1.008000   ; qtot 0.187198
  144         os      5    PEO      O    144 -0.42067400  16.000000   ; qtot -0.233476
  145         c3      5    PEO     C2    145 0.12975600  12.010000   ; qtot -0.103720
  146         h1      5    PEO     H5    146 0.04043400   1.008000   ; qtot -0.063286
  147         h1      5    PEO     H6    147 0.04043400   1.008000   ; qtot -0.022852
  148         c3      5    PEO     C3    148 0.13281100  12.010000   ; qtot 0.109959
  149         h1      5    PEO     H7    149 0.04349000   1.008000   ; qtot 0.153449
  150         h1      5    PEO     H8    150 0.04349000   1.008000   ; qtot 0.196939
  151         os      5    PEO     O1    151 -0.42263700  16.000000   ; qtot -0.225698
  152         c3      5    PEO     C4    152 0.13281100  12.010000   ; qtot -0.092887
  153         h1      5    PEO     H9    153 0.04349000   1.008000   ; qtot -0.049397
  154         h1      5    PEO    H10    154 0.04349000   1.008000   ; qtot -0.005907
  155         c3      5    PEO     C5    155 0.13179300  12.010000   ; qtot 0.125886
  156         h1      5    PEO    H11    156 0.04247100   1.008000   ; qtot 0.168357
  157         h1      5    PEO    H12    157 0.04247100   1.008000   ; qtot 0.210828
  158         os      5    PEO     O2    158 -0.42165600  16.000000   ; qtot -0.210828
  159         c3      5    PEO     C6    159 0.13179300  12.010000   ; qtot -0.079035
  160         h1      5    PEO    H13    160 0.04247100   1.008000   ; qtot -0.036564
  161         h1      5    PEO    H14    161 0.04247100   1.008000   ; qtot 0.005907
  162         c3      5    PEO     C7    162 0.13281100  12.010000   ; qtot 0.138718
  163         h1      5    PEO    H15    163 0.04349000   1.008000   ; qtot 0.182208
  164         h1      5    PEO    H16    164 0.04349000   1.008000   ; qtot 0.225698
  165         os      5    PEO     O3    165 -0.42263700  16.000000   ; qtot -0.196939
  166         c3      5    PEO     C8    166 0.13281100  12.010000   ; qtot -0.064128
  167         h1      5    PEO    H17    167 0.04349000   1.008000   ; qtot -0.020638
  168         h1      5    PEO    H18    168 0.04349000   1.008000   ; qtot 0.022852
  169         c3      5    PEO     C9    169 0.12975600  12.010000   ; qtot 0.152608
  170         h1      5    PEO    H19    170 0.04043400   1.008000   ; qtot 0.193042
  171         h1      5    PEO    H20    171 0.04043400   1.008000   ; qtot 0.233476
  172         os      5    PEO     O4    172 -0.42067400  16.000000   ; qtot -0.187198
  173         c3      5    PEO    C10    173 0.13484800  12.010000   ; qtot -0.052350
  174         h1      5    PEO    H21    174 0.02617500   1.008000   ; qtot -0.026175
  175         h1      5    PEO    H22    175 0.02617500   1.008000   ; qtot 0.000000
; residue    6 PET rtp PET q 0.0
  176         c3      6    PET     C9    176 0.12984200  12.010000   ; qtot 0.129842
  177         h1      6    PET     H6    177 0.05392300   1.008000   ; qtot 0.183765
  178         h1      6    PET     H7    178 0.05392300   1.008000   ; qtot 0.237688
  179         os      6    PET     O2    179 -0.43055400  16.000000   ; qtot -0.192866
  180          c      6    PET     C8    180 0.65144800  12.010000   ; qtot 0.458582
  181          o      6    PET     O1    181 -0.52602500  16.000000   ; qtot -0.067443
  182         ca      6    PET     C4    182 -0.10087900  12.010000   ; qtot -0.168322
  183         ca      6    PET     C5    183 -0.08898200  12.010000   ; qtot -0.257304
  184         ca      6    PET     C6    184 -0.08898200  12.010000   ; qtot -0.346286
  185         ha      6    PET     H4    185 0.16624300   1.008000   ; qtot -0.180043
  186         ha      6    PET     H3    186 0.16573400   1.008000   ; qtot -0.014309
  187         ca      6    PET     C3    187 -0.08898200  12.010000   ; qtot -0.103291
  188         ha      6    PET     H2    188 0.16573400   1.008000   ; qtot 0.062443
  189         ca      6    PET     C2    189 -0.08898200  12.010000   ; qtot -0.026539
  190         ha      6    PET     H1    190 0.16624300   1.008000   ; qtot 0.139704
  191         ca      6    PET     C1    191 -0.10087900  12.010000   ; qtot 0.038825
  192          c      6    PET     C7    192 0.65348100  12.010000   ; qtot 0.692306
  193          o      6    PET     O3    193 -0.52897500  16.000000   ; qtot 0.163331
  194         os      6    PET     O4    194 -0.43055400  16.000000   ; qtot -0.267223
  195         c3      6    PET    C10    195 0.14275500  12.010000   ; qtot -0.124468
  196         h1      6    PET     H8    196 0.06629400   1.008000   ; qtot -0.058174
  197         h1      6    PET     H9    197 0.06629400   1.008000   ; qtot 0.008120
  198         c3      6    PET    C11    198 -0.10854800  12.010000   ; qtot -0.100428
  199         hc      6    PET    H10    199 0.05866800   1.008000   ; qtot -0.041760
  200         hc      6    PET    H11    200 0.05866800   1.008000   ; qtot 0.016908
  201         c3      6    PET    C12    201 -0.09153800  12.010000   ; qtot -0.074630
  202         hc      6    PET    H13    202 0.03731600   1.008000   ; qtot -0.037314
  203         hc      6    PET    H14    203 0.03731600   1.008000   ; qtot 0.000002
; residue    7 PET rtp PET q 0.0
  204         c3      7    PET     C9    204 0.12984200  12.010000   ; qtot 0.129844
  205         h1      7    PET     H6    205 0.05392300   1.008000   ; qtot 0.183767
  206         h1      7    PET     H7    206 0.05392300   1.008000   ; qtot 0.237690
  207         os      7    PET     O2    207 -0.43055400  16.000000   ; qtot -0.192864
  208          c      7    PET     C8    208 0.65144800  12.010000   ; qtot 0.458584
  209          o      7    PET     O1    209 -0.52602500  16.000000   ; qtot -0.067441
  210         ca      7    PET     C4    210 -0.10087900  12.010000   ; qtot -0.168320
  211         ca      7    PET     C5    211 -0.08898200  12.010000   ; qtot -0.257302
  212         ca      7    PET     C6    212 -0.08898200  12.010000   ; qtot -0.346284
  213         ha      7    PET     H4    213 0.16624300   1.008000   ; qtot -0.180041
  214         ha      7    PET     H3    214 0.16573400   1.008000   ; qtot -0.014307
  215         ca      7    PET     C3    215 -0.08898200  12.010000   ; qtot -0.103289
  216         ha      7    PET     H2    216 0.16573400   1.008000   ; qtot 0.062445
  217         ca      7    PET     C2    217 -0.08898200  12.010000   ; qtot -0.026537
  218         ha      7    PET     H1    218 0.16624300   1.008000   ; qtot 0.139706
  219         ca      7    PET     C1    219 -0.10087900  12.010000   ; qtot 0.038827
  220          c      7    PET     C7    220 0.65348100  12.010000   ; qtot 0.692308
  221          o      7    PET     O3    221 -0.52897500  16.000000   ; qtot 0.163333
  222         os      7    PET     O4    222 -0.43055400  16.000000   ; qtot -0.267221
  223         c3      7    PET    C10    223 0.14275500  12.010000   ; qtot -0.124466
  224         h1      7    PET     H8    224 0.06629400   1.008000   ; qtot -0.058172
  225         h1      7    PET     H9    225 0.06629400   1.008000   ; qtot 0.008122
  226         c3      7    PET    C11    226 -0.10854800  12.010000   ; qtot -0.100426
  227         hc      7    PET    H10    227 0.05866800   1.008000   ; qtot -0.041758
  228         hc      7    PET    H11    228 0.05866800   1.008000   ; qtot 0.016910
  229         c3      7    PET    C12    229 -0.09153800  12.010000   ; qtot -0.074628
  230         hc      7    PET    H13    230 0.03731600   1.008000   ; qtot -0.037312
  231         hc      7    PET    H14    231 0.03731600   1.008000   ; qtot 0.000004
; residue    8 PET rtp PET q 0.0
  232         c3      8    PET     C9    232 0.12984200  12.010000   ; qtot 0.129846
  233         h1      8    PET     H6    233 0.05392300   1.008000   ; qtot 0.183769
  234         h1      8    PET     H7    234 0.05392300   1.008000   ; qtot 0.237692
  235         os      8    PET     O2    235 -0.43055400  16.000000   ; qtot -0.192862
  236          c      8    PET     C8    236 0.65144800  12.010000   ; qtot 0.458586
  237          o      8    PET     O1    237 -0.52602500  16.000000   ; qtot -0.067439
  238         ca      8    PET     C4    238 -0.10087900  12.010000   ; qtot -0.168318
  239         ca      8    PET     C5    239 -0.08898200  12.010000   ; qtot -0.257300
  240         ca      8    PET     C6    240 -0.08898200  12.010000   ; qtot -0.346282
  241         ha      8    PET     H4    241 0.16624300   1.008000   ; qtot -0.180039
  242         ha      8    PET     H3    242 0.16573400   1.008000   ; qtot -0.014305
  243         ca      8    PET     C3    243 -0.08898200  12.010000   ; qtot -0.103287
  244         ha      8    PET     H2    244 0.16573400   1.008000   ; qtot 0.062447
  245         ca      8    PET     C2    245 -0.08898200  12.010000   ; qtot -0.026535
  246         ha      8    PET     H1    246 0.16624300   1.008000   ; qtot 0.139708
  247         ca      8    PET     C1    247 -0.10087900  12.010000   ; qtot 0.038829
  248          c      8    PET     C7    248 0.65348100  12.010000   ; qtot 0.692310
  249          o      8    PET     O3    249 -0.52897500  16.000000   ; qtot 0.163335
  250         os      8    PET     O4    250 -0.43055400  16.000000   ; qtot -0.267219
  251         c3      8    PET    C10    251 0.14275500  12.010000   ; qtot -0.124464
  252         h1      8    PET     H8    252 0.06629400   1.008000   ; qtot -0.058170
  253         h1      8    PET     H9    253 0.06629400   1.008000   ; qtot 0.008124
  254         c3      8    PET    C11    254 -0.10854800  12.010000   ; qtot -0.100424
  255         hc      8    PET    H10    255 0.05866800   1.008000   ; qtot -0.041756
  256         hc      8    PET    H11    256 0.05866800   1.008000   ; qtot 0.016912
  257         c3      8    PET    C12    257 -0.09153800  12.010000   ; qtot -0.074626
  258         hc      8    PET    H13    258 0.03731600   1.008000   ; qtot -0.037310
  259         hc      8    PET    H14    259 0.03731600   1.008000   ; qtot 0.000006
; residue    9 PET rtp PET q 0.0
  260         c3      9    PET     C9    260 0.12984200  12.010000   ; qtot 0.129848
  261         h1      9    PET     H6    261 0.05392300   1.008000   ; qtot 0.183771
  262         h1      9    PET     H7    262 0.05392300   1.008000   ; qtot 0.237694
  263         os      9    PET     O2    263 -0.43055400  16.000000   ; qtot -0.192860
  264          c      9    PET     C8    264 0.65144800  12.010000   ; qtot 0.458588
  265          o      9    PET     O1    265 -0.52602500  16.000000   ; qtot -0.067437
  266         ca      9    PET     C4    266 -0.10087900  12.010000   ; qtot -0.168316
  267         ca      9    PET     C5    267 -0.08898200  12.010000   ; qtot -0.257298
  268         ca      9    PET     C6    268 -0.08898200  12.010000   ; qtot -0.346280
  269         ha      9    PET     H4    269 0.16624300   1.008000   ; qtot -0.180037
  270         ha      9    PET     H3    270 0.16573400   1.008000   ; qtot -0.014303
  271         ca      9    PET     C3    271 -0.08898200  12.010000   ; qtot -0.103285
  272         ha      9    PET     H2    272 0.16573400   1.008000   ; qtot 0.062449
  273         ca      9    PET     C2    273 -0.08898200  12.010000   ; qtot -0.026533
  274         ha      9    PET     H1    274 0.16624300   1.008000   ; qtot 0.139710
  275         ca      9    PET     C1    275 -0.10087900  12.010000   ; qtot 0.038831
  276          c      9    PET     C7    276 0.65348100  12.010000   ; qtot 0.692312
  277          o      9    PET     O3    277 -0.52897500  16.000000   ; qtot 0.163337
  278         os      9    PET     O4    278 -0.43055400  16.000000   ; qtot -0.267217
  279         c3      9    PET    C10    279 0.14275500  12.010000   ; qtot -0.124462
  280         h1      9    PET     H8    280 0.06629400   1.008000   ; qtot -0.058168
  281         h1      9    PET     H9    281 0.06629400   1.008000   ; qtot 0.008126
  282         c3      9    PET    C11    282 -0.10854800  12.010000   ; qtot -0.100422
  283         hc      9    PET    H10    283 0.05866800   1.008000   ; qtot -0.041754
  284         hc      9    PET    H11    284 0.05866800   1.008000   ; qtot 0.016914
  285         c3      9    PET    C12    285 -0.09153800  12.010000   ; qtot -0.074624
  286         hc      9    PET    H13    286 0.03731600   1.008000   ; qtot -0.037308
  287         hc      9    PET    H14    287 0.03731600   1.008000   ; qtot 0.000008
; residue   10 PET rtp PET q 0.0
  288         c3     10    PET     C9    288 0.12984200  12.010000   ; qtot 0.129850
  289         h1     10    PET     H6    289 0.05392300   1.008000   ; qtot 0.183773
  290         h1     10    PET     H7    290 0.05392300   1.008000   ; qtot 0.237696
  291         os     10    PET     O2    291 -0.43055400  16.000000   ; qtot -0.192858
  292          c     10    PET     C8    292 0.65144800  12.010000   ; qtot 0.458590
  293          o     10    PET     O1    293 -0.52602500  16.000000   ; qtot -0.067435
  294         ca     10    PET     C4    294 -0.10087900  12.010000   ; qtot -0.168314
  295         ca     10    PET     C5    295 -0.08898200  12.010000   ; qtot -0.257296
  296         ca     10    PET     C6    296 -0.08898200  12.010000   ; qtot -0.346278
  297         ha     10    PET     H4    297 0.16624300   1.008000   ; qtot -0.180035
  298         ha     10    PET     H3    298 0.16573400   1.008000   ; qtot -0.014301
  299         ca     10    PET     C3    299 -0.08898200  12.010000   ; qtot -0.103283
  300         ha     10    PET     H2    300 0.16573400   1.008000   ; qtot 0.062451
  301         ca     10    PET     C2    301 -0.08898200  12.010000   ; qtot -0.026531
  302         ha     10    PET     H1    302 0.16624300   1.008000   ; qtot 0.139712
  303         ca     10    PET     C1    303 -0.10087900  12.010000   ; qtot 0.038833
  304          c     10    PET     C7    304 0.65348100  12.010000   ; qtot 0.692314
  305          o     10    PET     O3    305 -0.52897500  16.000000   ; qtot 0.163339
  306         os     10    PET     O4    306 -0.43055400  16.000000   ; qtot -0.267215
  307         c3     10    PET    C10    307 0.14275500  12.010000   ; qtot -0.124460
  308         h1     10    PET     H8    308 0.06629400   1.008000   ; qtot -0.058166
  309         h1     10    PET     H9    309 0.06629400   1.008000   ; qtot 0.008128
  310         c3     10    PET    C11    310 -0.10854800  12.010000   ; qtot -0.100420
  311         hc     10    PET    H10    311 0.05866800   1.008000   ; qtot -0.041752
  312         hc     10    PET    H11    312 0.05866800   1.008000   ; qtot 0.016916
  313         c3     10    PET    C12    313 -0.09153800  12.010000   ; qtot -0.074622
  314         hc     10    PET    H13    314 0.03731600   1.008000   ; qtot -0.037306
  315         hc     10    PET    H14    315 0.03731600   1.008000   ; qtot 0.000010
; residue   11 PET rtp PET q 0.0
  316         c3     11    PET     C9    316 0.12984200  12.010000   ; qtot 0.129852
  317         h1     11    PET     H6    317 0.05392300   1.008000   ; qtot 0.183775
  318         h1     11    PET     H7    318 0.05392300   1.008000   ; qtot 0.237698
  319         os     11    PET     O2    319 -0.43055400  16.000000   ; qtot -0.192856
  320          c     11    PET     C8    320 0.65144800  12.010000   ; qtot 0.458592
  321          o     11    PET     O1    321 -0.52602500  16.000000   ; qtot -0.067433
  322         ca     11    PET     C4    322 -0.10087900  12.010000   ; qtot -0.168312
  323         ca     11    PET     C5    323 -0.08898200  12.010000   ; qtot -0.257294
  324         ca     11    PET     C6    324 -0.08898200  12.010000   ; qtot -0.346276
  325         ha     11    PET     H4    325 0.16624300   1.008000   ; qtot -0.180033
  326         ha     11    PET     H3    326 0.16573400   1.008000   ; qtot -0.014299
  327         ca     11    PET     C3    327 -0.08898200  12.010000   ; qtot -0.103281
  328         ha     11    PET     H2    328 0.16573400   1.008000   ; qtot 0.062453
  329         ca     11    PET     C2    329 -0.08898200  12.010000   ; qtot -0.026529
  330         ha     11    PET     H1    330 0.16624300   1.008000   ; qtot 0.139714
  331         ca     11    PET     C1    331 -0.10087900  12.010000   ; qtot 0.038835
  332          c     11    PET     C7    332 0.65348100  12.010000   ; qtot 0.692316
  333          o     11    PET     O3    333 -0.52897500  16.000000   ; qtot 0.163341
  334         os     11    PET     O4    334 -0.43055400  16.000000   ; qtot -0.267213
  335         c3     11    PET    C10    335 0.14275500  12.010000   ; qtot -0.124458
  336         h1     11    PET     H8    336 0.06629400   1.008000   ; qtot -0.058164
  337         h1     11    PET     H9    337 0.06629400   1.008000   ; qtot 0.008130
  338         c3     11    PET    C11    338 -0.10854800  12.010000   ; qtot -0.100418
  339         hc     11    PET    H10    339 0.05866800   1.008000   ; qtot -0.041750
  340         hc     11    PET    H11    340 0.05866800   1.008000   ; qtot 0.016918
  341         c3     11    PET    C12    341 -0.09153800  12.010000   ; qtot -0.074620
  342         hc     11    PET    H13    342 0.03731600   1.008000   ; qtot -0.037304
  343         hc     11    PET    H14    343 0.03731600   1.008000   ; qtot 0.000012
; residue   12 PET rtp PET q 0.0
  344         c3     12    PET     C9    344 0.12984200  12.010000   ; qtot 0.129854
  345         h1     12    PET     H6    345 0.05392300   1.008000   ; qtot 0.183777
  346         h1     12    PET     H7    346 0.05392300   1.008000   ; qtot 0.237700
  347         os     12    PET     O2    347 -0.43055400  16.000000   ; qtot -0.192854
  348          c     12    PET     C8    348 0.65144800  12.010000   ; qtot 0.458594
  349          o     12    PET     O1    349 -0.52602500  16.000000   ; qtot -0.067431
  350         ca     12    PET     C4    350 -0.10087900  12.010000   ; qtot -0.168310
  351         ca     12    PET     C5    351 -0.08898200  12.010000   ; qtot -0.257292
  352         ca     12    PET     C6    352 -0.08898200  12.010000   ; qtot -0.346274
  353         ha     12    PET     H4    353 0.16624300   1.008000   ; qtot -0.180031
  354         ha     12    PET     H3    354 0.16573400   1.008000   ; qtot -0.014297
  355         ca     12    PET     C3    355 -0.08898200  12.010000   ; qtot -0.103279
  356         ha     12    PET     H2    356 0.16573400   1.008000   ; qtot 0.062455
  357         ca     12    PET     C2    357 -0.08898200  12.010000   ; qtot -0.026527
  358         ha     12    PET     H1    358 0.16624300   1.008000   ; qtot 0.139716
  359         ca     12    PET     C1    359 -0.10087900  12.010000   ; qtot 0.038837
  360          c     12    PET     C7    360 0.65348100  12.010000   ; qtot 0.692318
  361          o     12    PET     O3    361 -0.52897500  16.000000   ; qtot 0.163343
  362         os     12    PET     O4    362 -0.43055400  16.000000   ; qtot -0.267211
  363         c3     12    PET    C10    363 0.14275500  12.010000   ; qtot -0.124456
  364         h1     12    PET     H8    364 0.06629400   1.008000   ; qtot -0.058162
  365         h1     12    PET     H9    365 0.06629400   1.008000   ; qtot 0.008132
  366         c3     12    PET    C11    366 -0.10854800  12.010000   ; qtot -0.100416
  367         hc     12    PET    H10    367 0.05866800   1.008000   ; qtot -0.041748
  368         hc     12    PET    H11    368 0.05866800   1.008000   ; qtot 0.016920
  369         c3     12    PET    C12    369 -0.09153800  12.010000   ; qtot -0.074618
  370         hc     12    PET    H13    370 0.03731600   1.008000   ; qtot -0.037302
  371         hc     12    PET    H14    371 0.03731600   1.008000   ; qtot 0.000014
; residue   13 PET rtp PET q 0.0
  372         c3     13    PET     C9    372 0.12984200  12.010000   ; qtot 0.129856
  373         h1     13    PET     H6    373 0.05392300   1.008000   ; qtot 0.183779
  374         h1     13    PET     H7    374 0.05392300   1.008000   ; qtot 0.237702
  375         os     13    PET     O2    375 -0.43055400  16.000000   ; qtot -0.192852
  376          c     13    PET     C8    376 0.65144800  12.010000   ; qtot 0.458596
  377          o     13    PET     O1    377 -0.52602500  16.000000   ; qtot -0.067429
  378         ca     13    PET     C4    378 -0.10087900  12.010000   ; qtot -0.168308
  379         ca     13    PET     C5    379 -0.08898200  12.010000   ; qtot -0.257290
  380         ca     13    PET     C6    380 -0.08898200  12.010000   ; qtot -0.346272
  381         ha     13    PET     H4    381 0.16624300   1.008000   ; qtot -0.180029
  382         ha     13    PET     H3    382 0.16573400   1.008000   ; qtot -0.014295
  383         ca     13    PET     C3    383 -0.08898200  12.010000   ; qtot -0.103277
  384         ha     13    PET     H2    384 0.16573400   1.008000   ; qtot 0.062457
  385         ca     13    PET     C2    385 -0.08898200  12.010000   ; qtot -0.026525
  386         ha     13    PET     H1    386 0.16624300   1.008000   ; qtot 0.139718
  387         ca     13    PET     C1    387 -0.10087900  12.010000   ; qtot 0.038839
  388          c     13    PET     C7    388 0.65348100  12.010000   ; qtot 0.692320
  389          o     13    PET     O3    389 -0.52897500  16.000000   ; qtot 0.163345
  390         os     13    PET     O4    390 -0.43055400  16.000000   ; qtot -0.267209
  391         c3     13    PET    C10    391 0.14275500  12.010000   ; qtot -0.124454
  392         h1     13    PET     H8    392 0.06629400   1.008000   ; qtot -0.058160
  393         h1     13    PET     H9    393 0.06629400   1.008000   ; qtot 0.008134
  394         c3     13    PET    C11    394 -0.10854800  12.010000   ; qtot -0.100414
  395         hc     13    PET    H10    395 0.05866800   1.008000   ; qtot -0.041746
  396         hc     13    PET    H11    396 0.05866800   1.008000   ; qtot 0.016922
  397         c3     13    PET    C12    397 -0.09153800  12.010000   ; qtot -0.074616
  398         hc     13    PET    H13    398 0.03731600   1.008000   ; qtot -0.037300
  399         hc     13    PET    H14    399 0.03731600   1.008000   ; qtot 0.000016
; residue   14 PET rtp PET q 0.0
  400         c3     14    PET     C9    400 0.12984200  12.010000   ; qtot 0.129858
  401         h1     14    PET     H6    401 0.05392300   1.008000   ; qtot 0.183781
  402         h1     14    PET     H7    402 0.05392300   1.008000   ; qtot 0.237704
  403         os     14    PET     O2    403 -0.43055400  16.000000   ; qtot -0.192850
  404          c     14    PET     C8    404 0.65144800  12.010000   ; qtot 0.458598
  405          o     14    PET     O1    405 -0.52602500  16.000000   ; qtot -0.067427
  406         ca     14    PET     C4    406 -0.10087900  12.010000   ; qtot -0.168306
  407         ca     14    PET     C5    407 -0.08898200  12.010000   ; qtot -0.257288
  408         ca     14    PET     C6    408 -0.08898200  12.010000   ; qtot -0.346270
  409         ha     14    PET     H4    409 0.16624300   1.008000   ; qtot -0.180027
  410         ha     14    PET     H3    410 0.16573400   1.008000   ; qtot -0.014293
  411         ca     14    PET     C3    411 -0.08898200  12.010000   ; qtot -0.103275
  412         ha     14    PET     H2    412 0.16573400   1.008000   ; qtot 0.062459
  413         ca     14    PET     C2    413 -0.08898200  12.010000   ; qtot -0.026523
  414         ha     14    PET     H1    414 0.16624300   1.008000   ; qtot 0.139720
  415         ca     14    PET     C1    415 -0.10087900  12.010000   ; qtot 0.038841
  416          c     14    PET     C7    416 0.65348100  12.010000   ; qtot 0.692322
  417          o     14    PET     O3    417 -0.52897500  16.000000   ; qtot 0.163347
  418         os     14    PET     O4    418 -0.43055400  16.000000   ; qtot -0.267207
  419         c3     14    PET    C10    419 0.14275500  12.010000   ; qtot -0.124452
  420         h1     14    PET     H8    420 0.06629400   1.008000   ; qtot -0.058158
  421         h1     14    PET     H9    421 0.06629400   1.008000   ; qtot 0.008136
  422         c3     14    PET    C11    422 -0.10854800  12.010000   ; qtot -0.100412
  423         hc     14    PET    H10    423 0.05866800   1.008000   ; qtot -0.041744
  424         hc     14    PET    H11    424 0.05866800   1.008000   ; qtot 0.016924
  425         c3     14    PET    C12    425 -0.09153800  12.010000   ; qtot -0.074614
  426         hc     14    PET    H13    426 0.03731600   1.008000   ; qtot -0.037298
  427         hc     14    PET    H14    427 0.03731600   1.008000   ; qtot 0.000018
; residue   15 PET rtp PET q 0.0
  428         c3     15    PET     C9    428 0.12984200  12.010000   ; qtot 0.129860
  429         h1     15    PET     H6    429 0.05392300   1.008000   ; qtot 0.183783
  430         h1     15    PET     H7    430 0.05392300   1.008000   ; qtot 0.237706
  431         os     15    PET     O2    431 -0.43055400  16.000000   ; qtot -0.192848
  432          c     15    PET     C8    432 0.65144800  12.010000   ; qtot 0.458600
  433          o     15    PET     O1    433 -0.52602500  16.000000   ; qtot -0.067425
  434         ca     15    PET     C4    434 -0.10087900  12.010000   ; qtot -0.168304
  435         ca     15    PET     C5    435 -0.08898200  12.010000   ; qtot -0.257286
  436         ca     15    PET     C6    436 -0.08898200  12.010000   ; qtot -0.346268
  437         ha     15    PET     H4    437 0.16624300   1.008000   ; qtot -0.180025
  438         ha     15    PET     H3    438 0.16573400   1.008000   ; qtot -0.014291
  439         ca     15    PET     C3    439 -0.08898200  12.010000   ; qtot -0.103273
  440         ha     15    PET     H2    440 0.16573400   1.008000   ; qtot 0.062461
  441         ca     15    PET     C2    441 -0.08898200  12.010000   ; qtot -0.026521
  442         ha     15    PET     H1    442 0.16624300   1.008000   ; qtot 0.139722
  443         ca     15    PET     C1    443 -0.10087900  12.010000   ; qtot 0.038843
  444          c     15    PET     C7    444 0.65348100  12.010000   ; qtot 0.692324
  445          o     15    PET     O3    445 -0.52897500  16.000000   ; qtot 0.163349
  446         os     15    PET     O4    446 -0.43055400  16.000000   ; qtot -0.267205
  447         c3     15    PET    C10    447 0.14275500  12.010000   ; qtot -0.124450
  448         h1     15    PET     H8    448 0.06629400   1.008000   ; qtot -0.058156
  449         h1     15    PET     H9    449 0.06629400   1.008000   ; qtot 0.008138
  450         c3     15    PET    C11    450 -0.10854800  12.010000   ; qtot -0.100410
  451         hc     15    PET    H10    451 0.05866800   1.008000   ; qtot -0.041742
  452         hc     15    PET    H11    452 0.05866800   1.008000   ; qtot 0.016926
  453         c3     15    PET    C12    453 -0.09153800  12.010000   ; qtot -0.074612
  454         hc     15    PET    H13    454 0.03731600   1.008000   ; qtot -0.037296
  455         hc     15    PET    H14    455 0.03731600   1.008000   ; qtot 0.000020
; residue   16 PET rtp PET q 0.0
  456         c3     16    PET     C9    456 0.12984200  12.010000   ; qtot 0.129862
  457         h1     16    PET     H6    457 0.05392300   1.008000   ; qtot 0.183785
  458         h1     16    PET     H7    458 0.05392300   1.008000   ; qtot 0.237708
  459         os     16    PET     O2    459 -0.43055400  16.000000   ; qtot -0.192846
  460          c     16    PET     C8    460 0.65144800  12.010000   ; qtot 0.458602
  461          o     16    PET     O1    461 -0.52602500  16.000000   ; qtot -0.067423
  462         ca     16    PET     C4    462 -0.10087900  12.010000   ; qtot -0.168302
  463         ca     16    PET     C5    463 -0.08898200  12.010000   ; qtot -0.257284
  464         ca     16    PET     C6    464 -0.08898200  12.010000   ; qtot -0.346266
  465         ha     16    PET     H4    465 0.16624300   1.008000   ; qtot -0.180023
  466         ha     16    PET     H3    466 0.16573400   1.008000   ; qtot -0.014289
  467         ca     16    PET     C3    467 -0.08898200  12.010000   ; qtot -0.103271
  468         ha     16    PET     H2    468 0.16573400   1.008000   ; qtot 0.062463
  469         ca     16    PET     C2    469 -0.08898200  12.010000   ; qtot -0.026519
  470         ha     16    PET     H1    470 0.16624300   1.008000   ; qtot 0.139724
  471         ca     16    PET     C1    471 -0.10087900  12.010000   ; qtot 0.038845
  472          c     16    PET     C7    472 0.65348100  12.010000   ; qtot 0.692326
  473          o     16    PET     O3    473 -0.52897500  16.000000   ; qtot 0.163351
  474         os     16    PET     O4    474 -0.43055400  16.000000   ; qtot -0.267203
  475         c3     16    PET    C10    475 0.14275500  12.010000   ; qtot -0.124448
  476         h1     16    PET     H8    476 0.06629400   1.008000   ; qtot -0.058154
  477         h1     16    PET     H9    477 0.06629400   1.008000   ; qtot 0.008140
  478         c3     16    PET    C11    478 -0.10854800  12.010000   ; qtot -0.100408
  479         hc     16    PET    H10    479 0.05866800   1.008000   ; qtot -0.041740
  480         hc     16    PET    H11    480 0.05866800   1.008000   ; qtot 0.016928
  481         c3     16    PET    C12    481 -0.09153800  12.010000   ; qtot -0.074610
  482         hc     16    PET    H13    482 0.03731600   1.008000   ; qtot -0.037294
  483         hc     16    PET    H14    483 0.03731600   1.008000   ; qtot 0.000022
; residue   17 PET rtp PET q 0.0
  484         c3     17    PET     C9    484 0.12984200  12.010000   ; qtot 0.129864
  485         h1     17    PET     H6    485 0.05392300   1.008000   ; qtot 0.183787
  486         h1     17    PET     H7    486 0.05392300   1.008000   ; qtot 0.237710
  487         os     17    PET     O2    487 -0.43055400  16.000000   ; qtot -0.192844
  488          c     17    PET     C8    488 0.65144800  12.010000   ; qtot 0.458604
  489          o     17    PET     O1    489 -0.52602500  16.000000   ; qtot -0.067421
  490         ca     17    PET     C4    490 -0.10087900  12.010000   ; qtot -0.168300
  491         ca     17    PET     C5    491 -0.08898200  12.010000   ; qtot -0.257282
  492         ca     17    PET     C6    492 -0.08898200  12.010000   ; qtot -0.346264
  493         ha     17    PET     H4    493 0.16624300   1.008000   ; qtot -0.180021
  494         ha     17    PET     H3    494 0.16573400   1.008000   ; qtot -0.014287
  495         ca     17    PET     C3    495 -0.08898200  12.010000   ; qtot -0.103269
  496         ha     17    PET     H2    496 0.16573400   1.008000   ; qtot 0.062465
  497         ca     17    PET     C2    497 -0.08898200  12.010000   ; qtot -0.026517
  498         ha     17    PET     H1    498 0.16624300   1.008000   ; qtot 0.139726
  499         ca     17    PET     C1    499 -0.10087900  12.010000   ; qtot 0.038847
  500          c     17    PET     C7    500 0.65348100  12.010000   ; qtot 0.692328
  501          o     17    PET     O3    501 -0.52897500  16.000000   ; qtot 0.163353
  502         os     17    PET     O4    502 -0.43055400  16.000000   ; qtot -0.267201
  503         c3     17    PET    C10    503 0.14275500  12.010000   ; qtot -0.124446
  504         h1     17    PET     H8    504 0.06629400   1.008000   ; qtot -0.058152
  505         h1     17    PET     H9    505 0.06629400   1.008000   ; qtot 0.008142
  506         c3     17    PET    C11    506 -0.10854800  12.010000   ; qtot -0.100406
  507         hc     17    PET    H10    507 0.05866800   1.008000   ; qtot -0.041738
  508         hc     17    PET    H11    508 0.05866800   1.008000   ; qtot 0.016930
  509         c3     17    PET    C12    509 -0.09153800  12.010000   ; qtot -0.074608
  510         hc     17    PET    H13    510 0.03731600   1.008000   ; qtot -0.037292
  511         hc     17    PET    H14    511 0.03731600   1.008000   ; qtot 0.000024
; residue   18 PET rtp PET q 0.0
  512         c3     18    PET     C9    512 0.12984200  12.010000   ; qtot 0.129866
  513         h1     18    PET     H6    513 0.05392300   1.008000   ; qtot 0.183789
  514         h1     18    PET     H7    514 0.05392300   1.008000   ; qtot 0.237712
  515         os     18    PET     O2    515 -0.43055400  16.000000   ; qtot -0.192842
  516          c     18    PET     C8    516 0.65144800  12.010000   ; qtot 0.458606
  517          o     18    PET     O1    517 -0.52602500  16.000000   ; qtot -0.067419
  518         ca     18    PET     C4    518 -0.10087900  12.010000   ; qtot -0.168298
  519         ca     18    PET     C5    519 -0.08898200  12.010000   ; qtot -0.257280
  520         ca     18    PET     C6    520 -0.08898200  12.010000   ; qtot -0.346262
  521         ha     18    PET     H4    521 0.16624300   1.008000   ; qtot -0.180019
  522         ha     18    PET     H3    522 0.16573400   1.008000   ; qtot -0.014285
  523         ca     18    PET     C3    523 -0.08898200  12.010000   ; qtot -0.103267
  524         ha     18    PET     H2    524 0.16573400   1.008000   ; qtot 0.062467
  525         ca     18    PET     C2    525 -0.08898200  12.010000   ; qtot -0.026515
  526         ha     18    PET     H1    526 0.16624300   1.008000   ; qtot 0.139728
  527         ca     18    PET     C1    527 -0.10087900  12.010000   ; qtot 0.038849
  528          c     18    PET     C7    528 0.65348100  12.010000   ; qtot 0.692330
  529          o     18    PET     O3    529 -0.52897500  16.000000   ; qtot 0.163355
  530         os     18    PET     O4    530 -0.43055400  16.000000   ; qtot -0.267199
  531         c3     18    PET    C10    531 0.14275500  12.010000   ; qtot -0.124444
  532         h1     18    PET     H8    532 0.06629400   1.008000   ; qtot -0.058150
  533         h1     18    PET     H9    533 0.06629400   1.008000   ; qtot 0.008144
  534         c3     18    PET    C11    534 -0.10854800  12.010000   ; qtot -0.100404
  535         hc     18    PET    H10    535 0.05866800   1.008000   ; qtot -0.041736
  536         hc     18    PET    H11    536 0.05866800   1.008000   ; qtot 0.016932
  537         c3     18    PET    C12    537 -0.09153800  12.010000   ; qtot -0.074606
  538         hc     18    PET    H13    538 0.03731600   1.008000   ; qtot -0.037290
  539         hc     18    PET    H14    539 0.03731600   1.008000   ; qtot 0.000026
; residue   19 PET rtp PET q 0.0
  540         c3     19    PET     C9    540 0.12984200  12.010000   ; qtot 0.129868
  541         h1     19    PET     H6    541 0.05392300   1.008000   ; qtot 0.183791
  542         h1     19    PET     H7    542 0.05392300   1.008000   ; qtot 0.237714
  543         os     19    PET     O2    543 -0.43055400  16.000000   ; qtot -0.192840
  544          c     19    PET     C8    544 0.65144800  12.010000   ; qtot 0.458608
  545          o     19    PET     O1    545 -0.52602500  16.000000   ; qtot -0.067417
  546         ca     19    PET     C4    546 -0.10087900  12.010000   ; qtot -0.168296
  547         ca     19    PET     C5    547 -0.08898200  12.010000   ; qtot -0.257278
  548         ca     19    PET     C6    548 -0.08898200  12.010000   ; qtot -0.346260
  549         ha     19    PET     H4    549 0.16624300   1.008000   ; qtot -0.180017
  550         ha     19    PET     H3    550 0.16573400   1.008000   ; qtot -0.014283
  551         ca     19    PET     C3    551 -0.08898200  12.010000   ; qtot -0.103265
  552         ha     19    PET     H2    552 0.16573400   1.008000   ; qtot 0.062469
  553         ca     19    PET     C2    553 -0.08898200  12.010000   ; qtot -0.026513
  554         ha     19    PET     H1    554 0.16624300   1.008000   ; qtot 0.139730
  555         ca     19    PET     C1    555 -0.10087900  12.010000   ; qtot 0.038851
  556          c     19    PET     C7    556 0.65348100  12.010000   ; qtot 0.692332
  557          o     19    PET     O3    557 -0.52897500  16.000000   ; qtot 0.163357
  558         os     19    PET     O4    558 -0.43055400  16.000000   ; qtot -0.267197
  559         c3     19    PET    C10    559 0.14275500  12.010000   ; qtot -0.124442
  560         h1     19    PET     H8    560 0.06629400   1.008000   ; qtot -0.058148
  561         h1     19    PET     H9    561 0.06629400   1.008000   ; qtot 0.008146
  562         c3     19    PET    C11    562 -0.10854800  12.010000   ; qtot -0.100402
  563         hc     19    PET    H10    563 0.05866800   1.008000   ; qtot -0.041734
  564         hc     19    PET    H11    564 0.05866800   1.008000   ; qtot 0.016934
  565         c3     19    PET    C12    565 -0.09153800  12.010000   ; qtot -0.074604
  566         hc     19    PET    H13    566 0.03731600   1.008000   ; qtot -0.037288
  567         hc     19    PET    H14    567 0.03731600   1.008000   ; qtot 0.000028
; residue   20 PET rtp PET q 0.0
  568         c3     20    PET     C9    568 0.12984200  12.010000   ; qtot 0.129870
  569         h1     20    PET     H6    569 0.05392300   1.008000   ; qtot 0.183793
  570         h1     20    PET     H7    570 0.05392300   1.008000   ; qtot 0.237716
  571         os     20    PET     O2    571 -0.43055400  16.000000   ; qtot -0.192838
  572          c     20    PET     C8    572 0.65144800  12.010000   ; qtot 0.458610
  573          o     20    PET     O1    573 -0.52602500  16.000000   ; qtot -0.067415
  574         ca     20    PET     C4    574 -0.10087900  12.010000   ; qtot -0.168294
  575         ca     20    PET     C5    575 -0.08898200  12.010000   ; qtot -0.257276
  576         ca     20    PET     C6    576 -0.08898200  12.010000   ; qtot -0.346258
  577         ha     20    PET     H4    577 0.16624300   1.008000   ; qtot -0.180015
  578         ha     20    PET     H3    578 0.16573400   1.008000   ; qtot -0.014281
  579         ca     20    PET     C3    579 -0.08898200  12.010000   ; qtot -0.103263
  580         ha     20    PET     H2    580 0.16573400   1.008000   ; qtot 0.062471
  581         ca     20    PET     C2    581 -0.08898200  12.010000   ; qtot -0.026511
  582         ha     20    PET     H1    582 0.16624300   1.008000   ; qtot 0.139732
  583         ca     20    PET     C1    583 -0.10087900  12.010000   ; qtot 0.038853
  584          c     20    PET     C7    584 0.65348100  12.010000   ; qtot 0.692334
  585          o     20    PET     O3    585 -0.52897500  16.000000   ; qtot 0.163359
  586         os     20    PET     O4    586 -0.43055400  16.000000   ; qtot -0.267195
  587         c3     20    PET    C10    587 0.14275500  12.010000   ; qtot -0.124440
  588         h1     20    PET     H8    588 0.06629400   1.008000   ; qtot -0.058146
  589         h1     20    PET     H9    589 0.06629400   1.008000   ; qtot 0.008148
  590         c3     20    PET    C11    590 -0.10854800  12.010000   ; qtot -0.100400
  591         hc     20    PET    H10    591 0.05866800   1.008000   ; qtot -0.041732
  592         hc     20    PET    H11    592 0.05866800   1.008000   ; qtot 0.016936
  593         c3     20    PET    C12    593 -0.09153800  12.010000   ; qtot -0.074602
  594         hc     20    PET    H13    594 0.03731600   1.008000   ; qtot -0.037286
  595         hc     20    PET    H14    595 0.03731600   1.008000   ; qtot 0.000030
; residue   21 PET rtp PET q 0.0
  596         c3     21    PET     C9    596 0.12984200  12.010000   ; qtot 0.129872
  597         h1     21    PET     H6    597 0.05392300   1.008000   ; qtot 0.183795
  598         h1     21    PET     H7    598 0.05392300   1.008000   ; qtot 0.237718
  599         os     21    PET     O2    599 -0.43055400  16.000000   ; qtot -0.192836
  600          c     21    PET     C8    600 0.65144800  12.010000   ; qtot 0.458612
  601          o     21    PET     O1    601 -0.52602500  16.000000   ; qtot -0.067413
  602         ca     21    PET     C4    602 -0.10087900  12.010000   ; qtot -0.168292
  603         ca     21    PET     C5    603 -0.08898200  12.010000   ; qtot -0.257274
  604         ca     21    PET     C6    604 -0.08898200  12.010000   ; qtot -0.346256
  605         ha     21    PET     H4    605 0.16624300   1.008000   ; qtot -0.180013
  606         ha     21    PET     H3    606 0.16573400   1.008000   ; qtot -0.014279
  607         ca     21    PET     C3    607 -0.08898200  12.010000   ; qtot -0.103261
  608         ha     21    PET     H2    608 0.16573400   1.008000   ; qtot 0.062473
  609         ca     21    PET     C2    609 -0.08898200  12.010000   ; qtot -0.026509
  610         ha     21    PET     H1    610 0.16624300   1.008000   ; qtot 0.139734
  611         ca     21    PET     C1    611 -0.10087900  12.010000   ; qtot 0.038855
  612          c     21    PET     C7    612 0.65348100  12.010000   ; qtot 0.692336
  613          o     21    PET     O3    613 -0.52897500  16.000000   ; qtot 0.163361
  614         os     21    PET     O4    614 -0.43055400  16.000000   ; qtot -0.267193
  615         c3     21    PET    C10    615 0.14275500  12.010000   ; qtot -0.124438
  616         h1     21    PET     H8    616 0.06629400   1.008000   ; qtot -0.058144
  617         h1     21    PET     H9    617 0.06629400   1.008000   ; qtot 0.008150
  618         c3     21    PET    C11    618 -0.10854800  12.010000   ; qtot -0.100398
  619         hc     21    PET    H10    619 0.05866800   1.008000   ; qtot -0.041730
  620         hc     21    PET    H11    620 0.05866800   1.008000   ; qtot 0.016938
  621         c3     21    PET    C12    621 -0.09153800  12.010000   ; qtot -0.074600
  622         hc     21    PET    H13    622 0.03731600   1.008000   ; qtot -0.037284
  623         hc     21    PET    H14    623 0.03731600   1.008000   ; qtot 0.000032
; residue   22 PET rtp PET q 0.0
  624         c3     22    PET     C9    624 0.12984200  12.010000   ; qtot 0.129874
  625         h1     22    PET     H6    625 0.05392300   1.008000   ; qtot 0.183797
  626         h1     22    PET     H7    626 0.05392300   1.008000   ; qtot 0.237720
  627         os     22    PET     O2    627 -0.43055400  16.000000   ; qtot -0.192834
  628          c     22    PET     C8    628 0.65144800  12.010000   ; qtot 0.458614
  629          o     22    PET     O1    629 -0.52602500  16.000000   ; qtot -0.067411
  630         ca     22    PET     C4    630 -0.10087900  12.010000   ; qtot -0.168290
  631         ca     22    PET     C5    631 -0.08898200  12.010000   ; qtot -0.257272
  632         ca     22    PET     C6    632 -0.08898200  12.010000   ; qtot -0.346254
  633         ha     22    PET     H4    633 0.16624300   1.008000   ; qtot -0.180011
  634         ha     22    PET     H3    634 0.16573400   1.008000   ; qtot -0.014277
  635         ca     22    PET     C3    635 -0.08898200  12.010000   ; qtot -0.103259
  636         ha     22    PET     H2    636 0.16573400   1.008000   ; qtot 0.062475
  637         ca     22    PET     C2    637 -0.08898200  12.010000   ; qtot -0.026507
  638         ha     22    PET     H1    638 0.16624300   1.008000   ; qtot 0.139736
  639         ca     22    PET     C1    639 -0.10087900  12.010000   ; qtot 0.038857
  640          c     22    PET     C7    640 0.65348100  12.010000   ; qtot 0.692338
  641          o     22    PET     O3    641 -0.52897500  16.000000   ; qtot 0.163363
  642         os     22    PET     O4    642 -0.43055400  16.000000   ; qtot -0.267191
  643         c3     22    PET    C10    643 0.14275500  12.010000   ; qtot -0.124436
  644         h1     22    PET     H8    644 0.06629400   1.008000   ; qtot -0.058142
  645         h1     22    PET     H9    645 0.06629400   1.008000   ; qtot 0.008152
  646         c3     22    PET    C11    646 -0.10854800  12.010000   ; qtot -0.100396
  647         hc     22    PET    H10    647 0.05866800   1.008000   ; qtot -0.041728
  648         hc     22    PET    H11    648 0.05866800   1.008000   ; qtot 0.016940
  649         c3     22    PET    C12    649 -0.09153800  12.010000   ; qtot -0.074598
  650         hc     22    PET    H13    650 0.03731600   1.008000   ; qtot -0.037282
  651         hc     22    PET    H14    651 0.03731600   1.008000   ; qtot 0.000034
; residue   23 PET rtp PET q 0.0
  652         c3     23    PET     C9    652 0.12984200  12.010000   ; qtot 0.129876
  653         h1     23    PET     H6    653 0.05392300   1.008000   ; qtot 0.183799
  654         h1     23    PET     H7    654 0.05392300   1.008000   ; qtot 0.237722
  655         os     23    PET     O2    655 -0.43055400  16.000000   ; qtot -0.192832
  656          c     23    PET     C8    656 0.65144800  12.010000   ; qtot 0.458616
  657          o     23    PET     O1    657 -0.52602500  16.000000   ; qtot -0.067409
  658         ca     23    PET     C4    658 -0.10087900  12.010000   ; qtot -0.168288
  659         ca     23    PET     C5    659 -0.08898200  12.010000   ; qtot -0.257270
  660         ca     23    PET     C6    660 -0.08898200  12.010000   ; qtot -0.346252
  661         ha     23    PET     H4    661 0.16624300   1.008000   ; qtot -0.180009
  662         ha     23    PET     H3    662 0.16573400   1.008000   ; qtot -0.014275
  663         ca     23    PET     C3    663 -0.08898200  12.010000   ; qtot -0.103257
  664         ha     23    PET     H2    664 0.16573400   1.008000   ; qtot 0.062477
  665         ca     23    PET     C2    665 -0.08898200  12.010000   ; qtot -0.026505
  666         ha     23    PET     H1    666 0.16624300   1.008000   ; qtot 0.139738
  667         ca     23    PET     C1    667 -0.10087900  12.010000   ; qtot 0.038859
  668          c     23    PET     C7    668 0.65348100  12.010000   ; qtot 0.692340
  669          o     23    PET     O3    669 -0.52897500  16.000000   ; qtot 0.163365
  670         os     23    PET     O4    670 -0.43055400  16.000000   ; qtot -0.267189
  671         c3     23    PET    C10    671 0.14275500  12.010000   ; qtot -0.124434
  672         h1     23    PET     H8    672 0.06629400   1.008000   ; qtot -0.058140
  673         h1     23    PET     H9    673 0.06629400   1.008000   ; qtot 0.008154
  674         c3     23    PET    C11    674 -0.10854800  12.010000   ; qtot -0.100394
  675         hc     23    PET    H10    675 0.05866800   1.008000   ; qtot -0.041726
  676         hc     23    PET    H11    676 0.05866800   1.008000   ; qtot 0.016942
  677         c3     23    PET    C12    677 -0.09153800  12.010000   ; qtot -0.074596
  678         hc     23    PET    H13    678 0.03731600   1.008000   ; qtot -0.037280
  679         hc     23    PET    H14    679 0.03731600   1.008000   ; qtot 0.000036
; residue   24 PET rtp PET q 0.0
  680         c3     24    PET     C9    680 0.12984200  12.010000   ; qtot 0.129878
  681         h1     24    PET     H6    681 0.05392300   1.008000   ; qtot 0.183801
  682         h1     24    PET     H7    682 0.05392300   1.008000   ; qtot 0.237724
  683         os     24    PET     O2    683 -0.43055400  16.000000   ; qtot -0.192830
  684          c     24    PET     C8    684 0.65144800  12.010000   ; qtot 0.458618
  685          o     24    PET     O1    685 -0.52602500  16.000000   ; qtot -0.067407
  686         ca     24    PET     C4    686 -0.10087900  12.010000   ; qtot -0.168286
  687         ca     24    PET     C5    687 -0.08898200  12.010000   ; qtot -0.257268
  688         ca     24    PET     C6    688 -0.08898200  12.010000   ; qtot -0.346250
  689         ha     24    PET     H4    689 0.16624300   1.008000   ; qtot -0.180007
  690         ha     24    PET     H3    690 0.16573400   1.008000   ; qtot -0.014273
  691         ca     24    PET     C3    691 -0.08898200  12.010000   ; qtot -0.103255
  692         ha     24    PET     H2    692 0.16573400   1.008000   ; qtot 0.062479
  693         ca     24    PET     C2    693 -0.08898200  12.010000   ; qtot -0.026503
  694         ha     24    PET     H1    694 0.16624300   1.008000   ; qtot 0.139740
  695         ca     24    PET     C1    695 -0.10087900  12.010000   ; qtot 0.038861
  696          c     24    PET     C7    696 0.65348100  12.010000   ; qtot 0.692342
  697          o     24    PET     O3    697 -0.52897500  16.000000   ; qtot 0.163367
  698         os     24    PET     O4    698 -0.43055400  16.000000   ; qtot -0.267187
  699         c3     24    PET    C10    699 0.14275500  12.010000   ; qtot -0.124432
  700         h1     24    PET     H8    700 0.06629400   1.008000   ; qtot -0.058138
  701         h1     24    PET     H9    701 0.06629400   1.008000   ; qtot 0.008156
  702         c3     24    PET    C11    702 -0.10854800  12.010000   ; qtot -0.100392
  703         hc     24    PET    H10    703 0.05866800   1.008000   ; qtot -0.041724
  704         hc     24    PET    H11    704 0.05866800   1.008000   ; qtot 0.016944
  705         c3     24    PET    C12    705 -0.09153800  12.010000   ; qtot -0.074594
  706         hc     24    PET    H13    706 0.03731600   1.008000   ; qtot -0.037278
  707         hc     24    PET    H14    707 0.03731600   1.008000   ; qtot 0.000038
; residue   25 PET rtp PET q 0.0
  708         c3     25    PET     C9    708 0.12984200  12.010000   ; qtot 0.129880
  709         h1     25    PET     H6    709 0.05392300   1.008000   ; qtot 0.183803
  710         h1     25    PET     H7    710 0.05392300   1.008000   ; qtot 0.237726
  711         os     25    PET     O2    711 -0.43055400  16.000000   ; qtot -0.192828
  712          c     25    PET     C8    712 0.65144800  12.010000   ; qtot 0.458620
  713          o     25    PET     O1    713 -0.52602500  16.000000   ; qtot -0.067405
  714         ca     25    PET     C4    714 -0.10087900  12.010000   ; qtot -0.168284
  715         ca     25    PET     C5    715 -0.08898200  12.010000   ; qtot -0.257266
  716         ca     25    PET     C6    716 -0.08898200  12.010000   ; qtot -0.346248
  717         ha     25    PET     H4    717 0.16624300   1.008000   ; qtot -0.180005
  718         ha     25    PET     H3    718 0.16573400   1.008000   ; qtot -0.014271
  719         ca     25    PET     C3    719 -0.08898200  12.010000   ; qtot -0.103253
  720         ha     25    PET     H2    720 0.16573400   1.008000   ; qtot 0.062481
  721         ca     25    PET     C2    721 -0.08898200  12.010000   ; qtot -0.026501
  722         ha     25    PET     H1    722 0.16624300   1.008000   ; qtot 0.139742
  723         ca     25    PET     C1    723 -0.10087900  12.010000   ; qtot 0.038863
  724          c     25    PET     C7    724 0.65348100  12.010000   ; qtot 0.692344
  725          o     25    PET     O3    725 -0.52897500  16.000000   ; qtot 0.163369
  726         os     25    PET     O4    726 -0.43055400  16.000000   ; qtot -0.267185
  727         c3     25    PET    C10    727 0.14275500  12.010000   ; qtot -0.124430
  728         h1     25    PET     H8    728 0.06629400   1.008000   ; qtot -0.058136
  729         h1     25    PET     H9    729 0.06629400   1.008000   ; qtot 0.008158
  730         c3     25    PET    C11    730 -0.10854800  12.010000   ; qtot -0.100390
  731         hc     25    PET    H10    731 0.05866800   1.008000   ; qtot -0.041722
  732         hc     25    PET    H11    732 0.05866800   1.008000   ; qtot 0.016946
  733         c3     25    PET    C12    733 -0.09153800  12.010000   ; qtot -0.074592
  734         hc     25    PET    H13    734 0.03731600   1.008000   ; qtot -0.037276
  735         hc     25    PET    H14    735 0.03731600   1.008000   ; qtot 0.000040
; residue   26 PET rtp PET q 0.0
  736         c3     26    PET     C9    736 0.12984200  12.010000   ; qtot 0.129882
  737         h1     26    PET     H6    737 0.05392300   1.008000   ; qtot 0.183805
  738         h1     26    PET     H7    738 0.05392300   1.008000   ; qtot 0.237728
  739         os     26    PET     O2    739 -0.43055400  16.000000   ; qtot -0.192826
  740          c     26    PET     C8    740 0.65144800  12.010000   ; qtot 0.458622
  741          o     26    PET     O1    741 -0.52602500  16.000000   ; qtot -0.067403
  742         ca     26    PET     C4    742 -0.10087900  12.010000   ; qtot -0.168282
  743         ca     26    PET     C5    743 -0.08898200  12.010000   ; qtot -0.257264
  744         ca     26    PET     C6    744 -0.08898200  12.010000   ; qtot -0.346246
  745         ha     26    PET     H4    745 0.16624300   1.008000   ; qtot -0.180003
  746         ha     26    PET     H3    746 0.16573400   1.008000   ; qtot -0.014269
  747         ca     26    PET     C3    747 -0.08898200  12.010000   ; qtot -0.103251
  748         ha     26    PET     H2    748 0.16573400   1.008000   ; qtot 0.062483
  749         ca     26    PET     C2    749 -0.08898200  12.010000   ; qtot -0.026499
  750         ha     26    PET     H1    750 0.16624300   1.008000   ; qtot 0.139744
  751         ca     26    PET     C1    751 -0.10087900  12.010000   ; qtot 0.038865
  752          c     26    PET     C7    752 0.65348100  12.010000   ; qtot 0.692346
  753          o     26    PET     O3    753 -0.52897500  16.000000   ; qtot 0.163371
  754         os     26    PET     O4    754 -0.43055400  16.000000   ; qtot -0.267183
  755         c3     26    PET    C10    755 0.14275500  12.010000   ; qtot -0.124428
  756         h1     26    PET     H8    756 0.06629400   1.008000   ; qtot -0.058134
  757         h1     26    PET     H9    757 0.06629400   1.008000   ; qtot 0.008160
  758         c3     26    PET    C11    758 -0.10854800  12.010000   ; qtot -0.100388
  759         hc     26    PET    H10    759 0.05866800   1.008000   ; qtot -0.041720
  760         hc     26    PET    H11    760 0.05866800   1.008000   ; qtot 0.016948
  761         c3     26    PET    C12    761 -0.09153800  12.010000   ; qtot -0.074590
  762         hc     26    PET    H13    762 0.03731600   1.008000   ; qtot -0.037274
  763         hc     26    PET    H14    763 0.03731600   1.008000   ; qtot 0.000042
; residue   27 PET rtp PET q 0.0
  764         c3     27    PET     C9    764 0.12984200  12.010000   ; qtot 0.129884
  765         h1     27    PET     H6    765 0.05392300   1.008000   ; qtot 0.183807
  766         h1     27    PET     H7    766 0.05392300   1.008000   ; qtot 0.237730
  767         os     27    PET     O2    767 -0.43055400  16.000000   ; qtot -0.192824
  768          c     27    PET     C8    768 0.65144800  12.010000   ; qtot 0.458624
  769          o     27    PET     O1    769 -0.52602500  16.000000   ; qtot -0.067401
  770         ca     27    PET     C4    770 -0.10087900  12.010000   ; qtot -0.168280
  771         ca     27    PET     C5    771 -0.08898200  12.010000   ; qtot -0.257262
  772         ca     27    PET     C6    772 -0.08898200  12.010000   ; qtot -0.346244
  773         ha     27    PET     H4    773 0.16624300   1.008000   ; qtot -0.180001
  774         ha     27    PET     H3    774 0.16573400   1.008000   ; qtot -0.014267
  775         ca     27    PET     C3    775 -0.08898200  12.010000   ; qtot -0.103249
  776         ha     27    PET     H2    776 0.16573400   1.008000   ; qtot 0.062485
  777         ca     27    PET     C2    777 -0.08898200  12.010000   ; qtot -0.026497
  778         ha     27    PET     H1    778 0.16624300   1.008000   ; qtot 0.139746
  779         ca     27    PET     C1    779 -0.10087900  12.010000   ; qtot 0.038867
  780          c     27    PET     C7    780 0.65348100  12.010000   ; qtot 0.692348
  781          o     27    PET     O3    781 -0.52897500  16.000000   ; qtot 0.163373
  782         os     27    PET     O4    782 -0.43055400  16.000000   ; qtot -0.267181
  783         c3     27    PET    C10    783 0.14275500  12.010000   ; qtot -0.124426
  784         h1     27    PET     H8    784 0.06629400   1.008000   ; qtot -0.058132
  785         h1     27    PET     H9    785 0.06629400   1.008000   ; qtot 0.008162
  786         c3     27    PET    C11    786 -0.10854800  12.010000   ; qtot -0.100386
  787         hc     27    PET    H10    787 0.05866800   1.008000   ; qtot -0.041718
  788         hc     27    PET    H11    788 0.05866800   1.008000   ; qtot 0.016950
  789         c3     27    PET    C12    789 -0.09153800  12.010000   ; qtot -0.074588
  790         hc     27    PET    H13    790 0.03731600   1.008000   ; qtot -0.037272
  791         hc     27    PET    H14    791 0.03731600   1.008000   ; qtot 0.000044
; residue   28 PET rtp PET q 0.0
  792         c3     28    PET     C9    792 0.12984200  12.010000   ; qtot 0.129886
  793         h1     28    PET     H6    793 0.05392300   1.008000   ; qtot 0.183809
  794         h1     28    PET     H7    794 0.05392300   1.008000   ; qtot 0.237732
  795         os     28    PET     O2    795 -0.43055400  16.000000   ; qtot -0.192822
  796          c     28    PET     C8    796 0.65144800  12.010000   ; qtot 0.458626
  797          o     28    PET     O1    797 -0.52602500  16.000000   ; qtot -0.067399
  798         ca     28    PET     C4    798 -0.10087900  12.010000   ; qtot -0.168278
  799         ca     28    PET     C5    799 -0.08898200  12.010000   ; qtot -0.257260
  800         ca     28    PET     C6    800 -0.08898200  12.010000   ; qtot -0.346242
  801         ha     28    PET     H4    801 0.16624300   1.008000   ; qtot -0.179999
  802         ha     28    PET     H3    802 0.16573400   1.008000   ; qtot -0.014265
  803         ca     28    PET     C3    803 -0.08898200  12.010000   ; qtot -0.103247
  804         ha     28    PET     H2    804 0.16573400   1.008000   ; qtot 0.062487
  805         ca     28    PET     C2    805 -0.08898200  12.010000   ; qtot -0.026495
  806         ha     28    PET     H1    806 0.16624300   1.008000   ; qtot 0.139748
  807         ca     28    PET     C1    807 -0.10087900  12.010000   ; qtot 0.038869
  808          c     28    PET     C7    808 0.65348100  12.010000   ; qtot 0.692350
  809          o     28    PET     O3    809 -0.52897500  16.000000   ; qtot 0.163375
  810         os     28    PET     O4    810 -0.43055400  16.000000   ; qtot -0.267179
  811         c3     28    PET    C10    811 0.14275500  12.010000   ; qtot -0.124424
  812         h1     28    PET     H8    812 0.06629400   1.008000   ; qtot -0.058130
  813         h1     28    PET     H9    813 0.06629400   1.008000   ; qtot 0.008164
  814         c3     28    PET    C11    814 -0.10854800  12.010000   ; qtot -0.100384
  815         hc     28    PET    H10    815 0.05866800   1.008000   ; qtot -0.041716
  816         hc     28    PET    H11    816 0.05866800   1.008000   ; qtot 0.016952
  817         c3     28    PET    C12    817 -0.09153800  12.010000   ; qtot -0.074586
  818         hc     28    PET    H13    818 0.03731600   1.008000   ; qtot -0.037270
  819         hc     28    PET    H14    819 0.03731600   1.008000   ; qtot 0.000046
; residue   29 PET rtp PET q 0.0
  820         c3     29    PET     C9    820 0.12984200  12.010000   ; qtot 0.129888
  821         h1     29    PET     H6    821 0.05392300   1.008000   ; qtot 0.183811
  822         h1     29    PET     H7    822 0.05392300   1.008000   ; qtot 0.237734
  823         os     29    PET     O2    823 -0.43055400  16.000000   ; qtot -0.192820
  824          c     29    PET     C8    824 0.65144800  12.010000   ; qtot 0.458628
  825          o     29    PET     O1    825 -0.52602500  16.000000   ; qtot -0.067397
  826         ca     29    PET     C4    826 -0.10087900  12.010000   ; qtot -0.168276
  827         ca     29    PET     C5    827 -0.08898200  12.010000   ; qtot -0.257258
  828         ca     29    PET     C6    828 -0.08898200  12.010000   ; qtot -0.346240
  829         ha     29    PET     H4    829 0.16624300   1.008000   ; qtot -0.179997
  830         ha     29    PET     H3    830 0.16573400   1.008000   ; qtot -0.014263
  831         ca     29    PET     C3    831 -0.08898200  12.010000   ; qtot -0.103245
  832         ha     29    PET     H2    832 0.16573400   1.008000   ; qtot 0.062489
  833         ca     29    PET     C2    833 -0.08898200  12.010000   ; qtot -0.026493
  834         ha     29    PET     H1    834 0.16624300   1.008000   ; qtot 0.139750
  835         ca     29    PET     C1    835 -0.10087900  12.010000   ; qtot 0.038871
  836          c     29    PET     C7    836 0.65348100  12.010000   ; qtot 0.692352
  837          o     29    PET     O3    837 -0.52897500  16.000000   ; qtot 0.163377
  838         os     29    PET     O4    838 -0.43055400  16.000000   ; qtot -0.267177
  839         c3     29    PET    C10    839 0.14275500  12.010000   ; qtot -0.124422
  840         h1     29    PET     H8    840 0.06629400   1.008000   ; qtot -0.058128
  841         h1     29    PET     H9    841 0.06629400   1.008000   ; qtot 0.008166
  842         c3     29    PET    C11    842 -0.10854800  12.010000   ; qtot -0.100382
  843         hc     29    PET    H10    843 0.05866800   1.008000   ; qtot -0.041714
  844         hc     29    PET    H11    844 0.05866800   1.008000   ; qtot 0.016954
  845         c3     29    PET    C12    845 -0.09153800  12.010000   ; qtot -0.074584
  846         hc     29    PET    H13    846 0.03731600   1.008000   ; qtot -0.037268
  847         hc     29    PET    H14    847 0.03731600   1.008000   ; qtot 0.000048
; residue   30 PET rtp PET q 0.0
  848         c3     30    PET     C9    848 0.12984200  12.010000   ; qtot 0.129890
  849         h1     30    PET     H6    849 0.05392300   1.008000   ; qtot 0.183813
  850         h1     30    PET     H7    850 0.05392300   1.008000   ; qtot 0.237736
  851         os     30    PET     O2    851 -0.43055400  16.000000   ; qtot -0.192818
  852          c     30    PET     C8    852 0.65144800  12.010000   ; qtot 0.458630
  853          o     30    PET     O1    853 -0.52602500  16.000000   ; qtot -0.067395
  854         ca     30    PET     C4    854 -0.10087900  12.010000   ; qtot -0.168274
  855         ca     30    PET     C5    855 -0.08898200  12.010000   ; qtot -0.257256
  856         ca     30    PET     C6    856 -0.08898200  12.010000   ; qtot -0.346238
  857         ha     30    PET     H4    857 0.16624300   1.008000   ; qtot -0.179995
  858         ha     30    PET     H3    858 0.16573400   1.008000   ; qtot -0.014261
  859         ca     30    PET     C3    859 -0.08898200  12.010000   ; qtot -0.103243
  860         ha     30    PET     H2    860 0.16573400   1.008000   ; qtot 0.062491
  861         ca     30    PET     C2    861 -0.08898200  12.010000   ; qtot -0.026491
  862         ha     30    PET     H1    862 0.16624300   1.008000   ; qtot 0.139752
  863         ca     30    PET     C1    863 -0.10087900  12.010000   ; qtot 0.038873
  864          c     30    PET     C7    864 0.65348100  12.010000   ; qtot 0.692354
  865          o     30    PET     O3    865 -0.52897500  16.000000   ; qtot 0.163379
  866         os     30    PET     O4    866 -0.43055400  16.000000   ; qtot -0.267175
  867         c3     30    PET    C10    867 0.14275500  12.010000   ; qtot -0.124420
  868         h1     30    PET     H8    868 0.06629400   1.008000   ; qtot -0.058126
  869         h1     30    PET     H9    869 0.06629400   1.008000   ; qtot 0.008168
  870         c3     30    PET    C11    870 -0.10854800  12.010000   ; qtot -0.100380
  871         hc     30    PET    H10    871 0.05866800   1.008000   ; qtot -0.041712
  872         hc     30    PET    H11    872 0.05866800   1.008000   ; qtot 0.016956
  873         c3     30    PET    C12    873 -0.09153800  12.010000   ; qtot -0.074582
  874         hc     30    PET    H13    874 0.03731600   1.008000   ; qtot -0.037266
  875         hc     30    PET    H14    875 0.03731600   1.008000   ; qtot 0.000050

[ bonds ]
;    ai     aj funct         c0         c1         c2         c3
     33     36     1   0.15354 191535.152000
     32     33     1   0.14273 236203.536000
     29     32     1   0.14273 236203.536000
     26     29     1   0.15354 191535.152000
     25     26     1   0.14273 236203.536000
     22     25     1   0.14273 236203.536000
     19     22     1   0.15354 191535.152000
     18     19     1   0.14273 236203.536000
     15     18     1   0.14273 236203.536000
     12     15     1   0.15354 191535.152000
     11     12     1   0.14273 236203.536000
      8     11     1   0.14273 236203.536000
      5      8     1   0.15354 191535.152000
      4      5     1   0.14273 236203.536000
      1      4     1   0.14273 236203.536000
     68     71     1   0.15354 191535.152000
     67     68     1   0.14273 236203.536000
     64     67     1   0.14273 236203.536000
     61     64     1   0.15354 191535.152000
     60     61     1   0.14273 236203.536000
     57     60     1   0.14273 236203.536000
     54     57     1   0.15354 191535.152000
     53     54     1   0.14273 236203.536000
     50     53     1   0.14273 236203.536000
     47     50     1   0.15354 191535.152000
     46     47     1   0.14273 236203.536000
     43     46     1   0.14273 236203.536000
     40     43     1   0.15354 191535.152000
     39     40     1   0.14273 236203.536000
     36     39     1   0.14273 236203.536000
    103    106     1   0.15354 191535.152000
    102    103     1   0.14273 236203.536000
     99    102     1   0.14273 236203.536000
     96     99     1   0.15354 191535.152000
     95     96     1   0.14273 236203.536000
     92     95     1   0.14273 236203.536000
     89     92     1   0.15354 191535.152000
     88     89     1   0.14273 236203.536000
     85     88     1   0.14273 236203.536000
     82     85     1   0.15354 191535.152000
     81     82     1   0.14273 236203.536000
     78     81     1   0.14273 236203.536000
     75     78     1   0.15354 191535.152000
     74     75     1   0.14273 236203.536000
     71     74     1   0.14273 236203.536000
    138    141     1   0.15354 191535.152000
    137    138     1   0.14273 236203.536000
    134    137     1   0.14273 236203.536000
    131    134     1   0.15354 191535.152000
    130    131     1   0.14273 236203.536000
    127    130     1   0.14273 236203.536000
    124    127     1   0.15354 191535.152000
    123    124     1   0.14273 236203.536000
    120    123     1   0.14273 236203.536000
    117    120     1   0.15354 191535.152000
    116    117     1   0.14273 236203.536000
    113    116     1   0.14273 236203.536000
    110    113     1   0.15354 191535.152000
    109    110     1   0.14273 236203.536000
    106    109     1   0.14273 236203.536000
    173    176     1   0.15354 191535.152000
    172    173     1   0.14273 236203.536000
    169    172     1   0.14273 236203.536000
    166    169     1   0.15354 191535.152000
    165    166     1   0.14273 236203.536000
    162    165     1   0.14273 236203.536000
    159    162     1   0.15354 191535.152000
    158    159     1   0.14273 236203.536000
    155    158     1   0.14273 236203.536000
    152    155     1   0.15354 191535.152000
    151    152     1   0.14273 236203.536000
    148    151     1   0.14273 236203.536000
    145    148     1   0.15354 191535.152000
    144    145     1   0.14273 236203.536000
    141    144     1   0.14273 236203.536000
    201    204     1   0.15354 191535.152000
    198    201     1   0.15354 191535.152000
    195    198     1   0.15354 191535.152000
    194    195     1   0.14273 236203.536000
    192    193     1   0.12190 494214.080000
    192    194     1   0.13621 293976.208000
    191    192     1   0.14907 219944.512000
    189    191     1   0.13986 296436.400000
    187    189     1   0.13986 296436.400000
    184    191     1   0.13986 296436.400000
    183    184     1   0.13986 296436.400000
    182    183     1   0.13986 296436.400000
    182    187     1   0.13986 296436.400000
    180    181     1   0.12190 494214.080000
    180    182     1   0.14907 219944.512000
    179    180     1   0.13621 293976.208000
    176    179     1   0.14273 236203.536000
    229    232     1   0.15354 191535.152000
    226    229     1   0.15354 191535.152000
    223    226     1   0.15354 191535.152000
    222    223     1   0.14273 236203.536000
    220    221     1   0.12190 494214.080000
    220    222     1   0.13621 293976.208000
    219    220     1   0.14907 219944.512000
    217    219     1   0.13986 296436.400000
    215    217     1   0.13986 296436.400000
    212    219     1   0.13986 296436.400000
    211    212     1   0.13986 296436.400000
    210    211     1   0.13986 296436.400000
    210    215     1   0.13986 296436.400000
    208    209     1   0.12190 494214.080000
    208    210     1   0.14907 219944.512000
    207    208     1   0.13621 293976.208000
    204    207     1   0.14273 236203.536000
    257    260     1   0.15354 191535.152000
    254    257     1   0.15354 191535.152000
    251    254     1   0.15354 191535.152000
    250    251     1   0.14273 236203.536000
    248    249     1   0.12190 494214.080000
    248    250     1   0.13621 293976.208000
    247    248     1   0.14907 219944.512000
    245    247     1   0.13986 296436.400000
    243    245     1   0.13986 296436.400000
    240    247     1   0.13986 296436.400000
    239    240     1   0.13986 296436.400000
    238    239     1   0.13986 296436.400000
    238    243     1   0.13986 296436.400000
    236    237     1   0.12190 494214.080000
    236    238     1   0.14907 219944.512000
    235    236     1   0.13621 293976.208000
    232    235     1   0.14273 236203.536000
    285    288     1   0.15354 191535.152000
    282    285     1   0.15354 191535.152000
    279    282     1   0.15354 191535.152000
    278    279     1   0.14273 236203.536000
    276    277     1   0.12190 494214.080000
    276    278     1   0.13621 293976.208000
    275    276     1   0.14907 219944.512000
    273    275     1   0.13986 296436.400000
    271    273     1   0.13986 296436.400000
    268    275     1   0.13986 296436.400000
    267    268     1   0.13986 296436.400000
    266    267     1   0.13986 296436.400000
    266    271     1   0.13986 296436.400000
    264    265     1   0.12190 494214.080000
    264    266     1   0.14907 219944.512000
    263    264     1   0.13621 293976.208000
    260    263     1   0.14273 236203.536000
    313    316     1   0.15354 191535.152000
    310    313     1   0.15354 191535.152000
    307    310     1   0.15354 191535.152000
    306    307     1   0.14273 236203.536000
    304    305     1   0.12190 494214.080000
    304    306     1   0.13621 293976.208000
    303    304     1   0.14907 219944.512000
    301    303     1   0.13986 296436.400000
    299    301     1   0.13986 296436.400000
    296    303     1   0.13986 296436.400000
    295    296     1   0.13986 296436.400000
    294    295     1   0.13986 296436.400000
    294    299     1   0.13986 296436.400000
    292    293     1   0.12190 494214.080000
    292    294     1   0.14907 219944.512000
    291    292     1   0.13621 293976.208000
    288    291     1   0.14273 236203.536000
    341    344     1   0.15354 191535.152000
    338    341     1   0.15354 191535.152000
    335    338     1   0.15354 191535.152000
    334    335     1   0.14273 236203.536000
    332    333     1   0.12190 494214.080000
    332    334     1   0.13621 293976.208000
    331    332     1   0.14907 219944.512000
    329    331     1   0.13986 296436.400000
    327    329     1   0.13986 296436.400000
    324    331     1   0.13986 296436.400000
    323    324     1   0.13986 296436.400000
    322    323     1   0.13986 296436.400000
    322    327     1   0.13986 296436.400000
    320    321     1   0.12190 494214.080000
    320    322     1   0.14907 219944.512000
    319    320     1   0.13621 293976.208000
    316    319     1   0.14273 236203.536000
    369    372     1   0.15354 191535.152000
    366    369     1   0.15354 191535.152000
    363    366     1   0.15354 191535.152000
    362    363     1   0.14273 236203.536000
    360    361     1   0.12190 494214.080000
    360    362     1   0.13621 293976.208000
    359    360     1   0.14907 219944.512000
    357    359     1   0.13986 296436.400000
    355    357     1   0.13986 296436.400000
    352    359     1   0.13986 296436.400000
    351    352     1   0.13986 296436.400000
    350    351     1   0.13986 296436.400000
    350    355     1   0.13986 296436.400000
    348    349     1   0.12190 494214.080000
    348    350     1   0.14907 219944.512000
    347    348     1   0.13621 293976.208000
    344    347     1   0.14273 236203.536000
    397    400     1   0.15354 191535.152000
    394    397     1   0.15354 191535.152000
    391    394     1   0.15354 191535.152000
    390    391     1   0.14273 236203.536000
    388    389     1   0.12190 494214.080000
    388    390     1   0.13621 293976.208000
    387    388     1   0.14907 219944.512000
    385    387     1   0.13986 296436.400000
    383    385     1   0.13986 296436.400000
    380    387     1   0.13986 296436.400000
    379    380     1   0.13986 296436.400000
    378    379     1   0.13986 296436.400000
    378    383     1   0.13986 296436.400000
    376    377     1   0.12190 494214.080000
    376    378     1   0.14907 219944.512000
    375    376     1   0.13621 293976.208000
    372    375     1   0.14273 236203.536000
    425    428     1   0.15354 191535.152000
    422    425     1   0.15354 191535.152000
    419    422     1   0.15354 191535.152000
    418    419     1   0.14273 236203.536000
    416    417     1   0.12190 494214.080000
    416    418     1   0.13621 293976.208000
    415    416     1   0.14907 219944.512000
    413    415     1   0.13986 296436.400000
    411    413     1   0.13986 296436.400000
    408    415     1   0.13986 296436.400000
    407    408     1   0.13986 296436.400000
    406    407     1   0.13986 296436.400000
    406    411     1   0.13986 296436.400000
    404    405     1   0.12190 494214.080000
    404    406     1   0.14907 219944.512000
    403    404     1   0.13621 293976.208000
    400    403     1   0.14273 236203.536000
    453    456     1   0.15354 191535.152000
    450    453     1   0.15354 191535.152000
    447    450     1   0.15354 191535.152000
    446    447     1   0.14273 236203.536000
    444    445     1   0.12190 494214.080000
    444    446     1   0.13621 293976.208000
    443    444     1   0.14907 219944.512000
    441    443     1   0.13986 296436.400000
    439    441     1   0.13986 296436.400000
    436    443     1   0.13986 296436.400000
    435    436     1   0.13986 296436.400000
    434    435     1   0.13986 296436.400000
    434    439     1   0.13986 296436.400000
    432    433     1   0.12190 494214.080000
    432    434     1   0.14907 219944.512000
    431    432     1   0.13621 293976.208000
    428    431     1   0.14273 236203.536000
    481    484     1   0.15354 191535.152000
    478    481     1   0.15354 191535.152000
    475    478     1   0.15354 191535.152000
    474    475     1   0.14273 236203.536000
    472    473     1   0.12190 494214.080000
    472    474     1   0.13621 293976.208000
    471    472     1   0.14907 219944.512000
    469    471     1   0.13986 296436.400000
    467    469     1   0.13986 296436.400000
    464    471     1   0.13986 296436.400000
    463    464     1   0.13986 296436.400000
    462    463     1   0.13986 296436.400000
    462    467     1   0.13986 296436.400000
    460    461     1   0.12190 494214.080000
    460    462     1   0.14907 219944.512000
    459    460     1   0.13621 293976.208000
    456    459     1   0.14273 236203.536000
    509    512     1   0.15354 191535.152000
    506    509     1   0.15354 191535.152000
    503    506     1   0.15354 191535.152000
    502    503     1   0.14273 236203.536000
    500    501     1   0.12190 494214.080000
    500    502     1   0.13621 293976.208000
    499    500     1   0.14907 219944.512000
    497    499     1   0.13986 296436.400000
    495    497     1   0.13986 296436.400000
    492    499     1   0.13986 296436.400000
    491    492     1   0.13986 296436.400000
    490    491     1   0.13986 296436.400000
    490    495     1   0.13986 296436.400000
    488    489     1   0.12190 494214.080000
    488    490     1   0.14907 219944.512000
    487    488     1   0.13621 293976.208000
    484    487     1   0.14273 236203.536000
    537    540     1   0.15354 191535.152000
    534    537     1   0.15354 191535.152000
    531    534     1   0.15354 191535.152000
    530    531     1   0.14273 236203.536000
    528    529     1   0.12190 494214.080000
    528    530     1   0.13621 293976.208000
    527    528     1   0.14907 219944.512000
    525    527     1   0.13986 296436.400000
    523    525     1   0.13986 296436.400000
    520    527     1   0.13986 296436.400000
    519    520     1   0.13986 296436.400000
    518    519     1   0.13986 296436.400000
    518    523     1   0.13986 296436.400000
    516    517     1   0.12190 494214.080000
    516    518     1   0.14907 219944.512000
    515    516     1   0.13621 293976.208000
    512    515     1   0.14273 236203.536000
    565    568     1   0.15354 191535.152000
    562    565     1   0.15354 191535.152000
    559    562     1   0.15354 191535.152000
    558    559     1   0.14273 236203.536000
    556    557     1   0.12190 494214.080000
    556    558     1   0.13621 293976.208000
    555    556     1   0.14907 219944.512000
    553    555     1   0.13986 296436.400000
    551    553     1   0.13986 296436.400000
    548    555     1   0.13986 296436.400000
    547    548     1   0.13986 296436.400000
    546    547     1   0.13986 296436.400000
    546    551     1   0.13986 296436.400000
    544    545     1   0.12190 494214.080000
    544    546     1   0.14907 219944.512000
    543    544     1   0.13621 293976.208000
    540    543     1   0.14273 236203.536000
    593    596     1   0.15354 191535.152000
    590    593     1   0.15354 191535.152000
    587    590     1   0.15354 191535.152000
    586    587     1   0.14273 236203.536000
    584    585     1   0.12190 494214.080000
    584    586     1   0.13621 293976.208000
    583    584     1   0.14907 219944.512000
    581    583     1   0.13986 296436.400000
    579    581     1   0.13986 296436.400000
    576    583     1   0.13986 296436.400000
    575    576     1   0.13986 296436.400000
    574    575     1   0.13986 296436.400000
    574    579     1   0.13986 296436.400000
    572    573     1   0.12190 494214.080000
    572    574     1   0.14907 219944.512000
    571    572     1   0.13621 293976.208000
    568    571     1   0.14273 236203.536000
    621    624     1   0.15354 191535.152000
    618    621     1   0.15354 191535.152000
    615    618     1   0.15354 191535.152000
    614    615     1   0.14273 236203.536000
    612    613     1   0.12190 494214.080000
    612    614     1   0.13621 293976.208000
    611    612     1   0.14907 219944.512000
    609    611     1   0.13986 296436.400000
    607    609     1   0.13986 296436.400000
    604    611     1   0.13986 296436.400000
    603    604     1   0.13986 296436.400000
    602    603     1   0.13986 296436.400000
    602    607     1   0.13986 296436.400000
    600    601     1   0.12190 494214.080000
    600    602     1   0.14907 219944.512000
    599    600     1   0.13621 293976.208000
    596    599     1   0.14273 236203.536000
    649    652     1   0.15354 191535.152000
    646    649     1   0.15354 191535.152000
    643    646     1   0.15354 191535.152000
    642    643     1   0.14273 236203.536000
    640    641     1   0.12190 494214.080000
    640    642     1   0.13621 293976.208000
    639    640     1   0.14907 219944.512000
    637    639     1   0.13986 296436.400000
    635    637     1   0.13986 296436.400000
    632    639     1   0.13986 296436.400000
    631    632     1   0.13986 296436.400000
    630    631     1   0.13986 296436.400000
    630    635     1   0.13986 296436.400000
    628    629     1   0.12190 494214.080000
    628    630     1   0.14907 219944.512000
    627    628     1   0.13621 293976.208000
    624    627     1   0.14273 236203.536000
    677    680     1   0.15354 191535.152000
    674    677     1   0.15354 191535.152000
    671    674     1   0.15354 191535.152000
    670    671     1   0.14273 236203.536000
    668    669     1   0.12190 494214.080000
    668    670     1   0.13621 293976.208000
    667    668     1   0.14907 219944.512000
    665    667     1   0.13986 296436.400000
    663    665     1   0.13986 296436.400000
    660    667     1   0.13986 296436.400000
    659    660     1   0.13986 296436.400000
    658    659     1   0.13986 296436.400000
    658    663     1   0.13986 296436.400000
    656    657     1   0.12190 494214.080000
    656    658     1   0.14907 219944.512000
    655    656     1   0.13621 293976.208000
    652    655     1   0.14273 236203.536000
    705    708     1   0.15354 191535.152000
    702    705     1   0.15354 191535.152000
    699    702     1   0.15354 191535.152000
    698    699     1   0.14273 236203.536000
    696    697     1   0.12190 494214.080000
    696    698     1   0.13621 293976.208000
    695    696     1   0.14907 219944.512000
    693    695     1   0.13986 296436.400000
    691    693     1   0.13986 296436.400000
    688    695     1   0.13986 296436.400000
    687    688     1   0.13986 296436.400000
    686    687     1   0.13986 296436.400000
    686    691     1   0.13986 296436.400000
    684    685     1   0.12190 494214.080000
    684    686     1   0.14907 219944.512000
    683    684     1   0.13621 293976.208000
    680    683     1   0.14273 236203.536000
    733    736     1   0.15354 191535.152000
    730    733     1   0.15354 191535.152000
    727    730     1   0.15354 191535.152000
    726    727     1   0.14273 236203.536000
    724    725     1   0.12190 494214.080000
    724    726     1   0.13621 293976.208000
    723    724     1   0.14907 219944.512000
    721    723     1   0.13986 296436.400000
    719    721     1   0.13986 296436.400000
    716    723     1   0.13986 296436.400000
    715    716     1   0.13986 296436.400000
    714    715     1   0.13986 296436.400000
    714    719     1   0.13986 296436.400000
    712    713     1   0.12190 494214.080000
    712    714     1   0.14907 219944.512000
    711    712     1   0.13621 293976.208000
    708    711     1   0.14273 236203.536000
    761    764     1   0.15354 191535.152000
    758    761     1   0.15354 191535.152000
    755    758     1   0.15354 191535.152000
    754    755     1   0.14273 236203.536000
    752    753     1   0.12190 494214.080000
    752    754     1   0.13621 293976.208000
    751    752     1   0.14907 219944.512000
    749    751     1   0.13986 296436.400000
    747    749     1   0.13986 296436.400000
    744    751     1   0.13986 296436.400000
    743    744     1   0.13986 296436.400000
    742    743     1   0.13986 296436.400000
    742    747     1   0.13986 296436.400000
    740    741     1   0.12190 494214.080000
    740    742     1   0.14907 219944.512000
    739    740     1   0.13621 293976.208000
    736    739     1   0.14273 236203.536000
    789    792     1   0.15354 191535.152000
    786    789     1   0.15354 191535.152000
    783    786     1   0.15354 191535.152000
    782    783     1   0.14273 236203.536000
    780    781     1   0.12190 494214.080000
    780    782     1   0.13621 293976.208000
    779    780     1   0.14907 219944.512000
    777    779     1   0.13986 296436.400000
    775    777     1   0.13986 296436.400000
    772    779     1   0.13986 296436.400000
    771    772     1   0.13986 296436.400000
    770    771     1   0.13986 296436.400000
    770    775     1   0.13986 296436.400000
    768    769     1   0.12190 494214.080000
    768    770     1   0.14907 219944.512000
    767    768     1   0.13621 293976.208000
    764    767     1   0.14273 236203.536000
    817    820     1   0.15354 191535.152000
    814    817     1   0.15354 191535.152000
    811    814     1   0.15354 191535.152000
    810    811     1   0.14273 236203.536000
    808    809     1   0.12190 494214.080000
    808    810     1   0.13621 293976.208000
    807    808     1   0.14907 219944.512000
    805    807     1   0.13986 296436.400000
    803    805     1   0.13986 296436.400000
    800    807     1   0.13986 296436.400000
    799    800     1   0.13986 296436.400000
    798    799     1   0.13986 296436.400000
    798    803     1   0.13986 296436.400000
    796    797     1   0.12190 494214.080000
    796    798     1   0.14907 219944.512000
    795    796     1   0.13621 293976.208000
    792    795     1   0.14273 236203.536000
    845    848     1   0.15354 191535.152000
    842    845     1   0.15354 191535.152000
    839    842     1   0.15354 191535.152000
    838    839     1   0.14273 236203.536000
    836    837     1   0.12190 494214.080000
    836    838     1   0.13621 293976.208000
    835    836     1   0.14907 219944.512000
    833    835     1   0.13986 296436.400000
    831    833     1   0.13986 296436.400000
    828    835     1   0.13986 296436.400000
    827    828     1   0.13986 296436.400000
    826    827     1   0.13986 296436.400000
    826    831     1   0.13986 296436.400000
    824    825     1   0.12190 494214.080000
    824    826     1   0.14907 219944.512000
    823    824     1   0.13621 293976.208000
    820    823     1   0.14273 236203.536000
    870    873     1   0.15354 191535.152000
    867    870     1   0.15354 191535.152000
    866    867     1   0.14273 236203.536000
    864    865     1   0.12190 494214.080000
    864    866     1   0.13621 293976.208000
    863    864     1   0.14907 219944.512000
    861    863     1   0.13986 296436.400000
    859    861     1   0.13986 296436.400000
    856    863     1   0.13986 296436.400000
    855    856     1   0.13986 296436.400000
    854    855     1   0.13986 296436.400000
    854    859     1   0.13986 296436.400000
    852    853     1   0.12190 494214.080000
    852    854     1   0.14907 219944.512000
    851    852     1   0.13621 293976.208000
    848    851     1   0.14273 236203.536000
     33     34     1   0.10969 288043.296000
     33     35     1   0.10969 288043.296000
     29     30     1   0.10969 288043.296000
     29     31     1   0.10969 288043.296000
     26     27     1   0.10969 288043.296000
     26     28     1   0.10969 288043.296000
     22     23     1   0.10969 288043.296000
     22     24     1   0.10969 288043.296000
     19     20     1   0.10969 288043.296000
     19     21     1   0.10969 288043.296000
     15     16     1   0.10969 288043.296000
     15     17     1   0.10969 288043.296000
     12     13     1   0.10969 288043.296000
     12     14     1   0.10969 288043.296000
      8      9     1   0.10969 288043.296000
      8     10     1   0.10969 288043.296000
      5      6     1   0.10969 288043.296000
      5      7     1   0.10969 288043.296000
      1      2     1   0.10969 288043.296000
      1      3     1   0.10969 288043.296000
     68     69     1   0.10969 288043.296000
     68     70     1   0.10969 288043.296000
     64     65     1   0.10969 288043.296000
     64     66     1   0.10969 288043.296000
     61     62     1   0.10969 288043.296000
     61     63     1   0.10969 288043.296000
     57     58     1   0.10969 288043.296000
     57     59     1   0.10969 288043.296000
     54     55     1   0.10969 288043.296000
     54     56     1   0.10969 288043.296000
     50     51     1   0.10969 288043.296000
     50     52     1   0.10969 288043.296000
     47     48     1   0.10969 288043.296000
     47     49     1   0.10969 288043.296000
     43     44     1   0.10969 288043.296000
     43     45     1   0.10969 288043.296000
     40     41     1   0.10969 288043.296000
     40     42     1   0.10969 288043.296000
     36     37     1   0.10969 288043.296000
     36     38     1   0.10969 288043.296000
    103    104     1   0.10969 288043.296000
    103    105     1   0.10969 288043.296000
     99    100     1   0.10969 288043.296000
     99    101     1   0.10969 288043.296000
     96     97     1   0.10969 288043.296000
     96     98     1   0.10969 288043.296000
     92     93     1   0.10969 288043.296000
     92     94     1   0.10969 288043.296000
     89     90     1   0.10969 288043.296000
     89     91     1   0.10969 288043.296000
     85     86     1   0.10969 288043.296000
     85     87     1   0.10969 288043.296000
     82     83     1   0.10969 288043.296000
     82     84     1   0.10969 288043.296000
     78     79     1   0.10969 288043.296000
     78     80     1   0.10969 288043.296000
     75     76     1   0.10969 288043.296000
     75     77     1   0.10969 288043.296000
     71     72     1   0.10969 288043.296000
     71     73     1   0.10969 288043.296000
    138    139     1   0.10969 288043.296000
    138    140     1   0.10969 288043.296000
    134    135     1   0.10969 288043.296000
    134    136     1   0.10969 288043.296000
    131    132     1   0.10969 288043.296000
    131    133     1   0.10969 288043.296000
    127    128     1   0.10969 288043.296000
    127    129     1   0.10969 288043.296000
    124    125     1   0.10969 288043.296000
    124    126     1   0.10969 288043.296000
    120    121     1   0.10969 288043.296000
    120    122     1   0.10969 288043.296000
    117    118     1   0.10969 288043.296000
    117    119     1   0.10969 288043.296000
    113    114     1   0.10969 288043.296000
    113    115     1   0.10969 288043.296000
    110    111     1   0.10969 288043.296000
    110    112     1   0.10969 288043.296000
    106    107     1   0.10969 288043.296000
    106    108     1   0.10969 288043.296000
    173    174     1   0.10969 288043.296000
    173    175     1   0.10969 288043.296000
    169    170     1   0.10969 288043.296000
    169    171     1   0.10969 288043.296000
    166    167     1   0.10969 288043.296000
    166    168     1   0.10969 288043.296000
    162    163     1   0.10969 288043.296000
    162    164     1   0.10969 288043.296000
    159    160     1   0.10969 288043.296000
    159    161     1   0.10969 288043.296000
    155    156     1   0.10969 288043.296000
    155    157     1   0.10969 288043.296000
    152    153     1   0.10969 288043.296000
    152    154     1   0.10969 288043.296000
    148    149     1   0.10969 288043.296000
    148    150     1   0.10969 288043.296000
    145    146     1   0.10969 288043.296000
    145    147     1   0.10969 288043.296000
    141    142     1   0.10969 288043.296000
    141    143     1   0.10969 288043.296000
    201    202     1   0.10962 288905.200000
    201    203     1   0.10962 288905.200000
    198    199     1   0.10962 288905.200000
    198    200     1   0.10962 288905.200000
    195    196     1   0.10969 288043.296000
    195    197     1   0.10969 288043.296000
    189    190     1   0.10860 301825.392000
    187    188     1   0.10860 301825.392000
    184    185     1   0.10860 301825.392000
    183    186     1   0.10860 301825.392000
    176    177     1   0.10969 288043.296000
    176    178     1   0.10969 288043.296000
    229    230     1   0.10962 288905.200000
    229    231     1   0.10962 288905.200000
    226    227     1   0.10962 288905.200000
    226    228     1   0.10962 288905.200000
    223    224     1   0.10969 288043.296000
    223    225     1   0.10969 288043.296000
    217    218     1   0.10860 301825.392000
    215    216     1   0.10860 301825.392000
    212    213     1   0.10860 301825.392000
    211    214     1   0.10860 301825.392000
    204    205     1   0.10969 288043.296000
    204    206     1   0.10969 288043.296000
    257    258     1   0.10962 288905.200000
    257    259     1   0.10962 288905.200000
    254    255     1   0.10962 288905.200000
    254    256     1   0.10962 288905.200000
    251    252     1   0.10969 288043.296000
    251    253     1   0.10969 288043.296000
    245    246     1   0.10860 301825.392000
    243    244     1   0.10860 301825.392000
    240    241     1   0.10860 301825.392000
    239    242     1   0.10860 301825.392000
    232    233     1   0.10969 288043.296000
    232    234     1   0.10969 288043.296000
    285    286     1   0.10962 288905.200000
    285    287     1   0.10962 288905.200000
    282    283     1   0.10962 288905.200000
    282    284     1   0.10962 288905.200000
    279    280     1   0.10969 288043.296000
    279    281     1   0.10969 288043.296000
    273    274     1   0.10860 301825.392000
    271    272     1   0.10860 301825.392000
    268    269     1   0.10860 301825.392000
    267    270     1   0.10860 301825.392000
    260    261     1   0.10969 288043.296000
    260    262     1   0.10969 288043.296000
    313    314     1   0.10962 288905.200000
    313    315     1   0.10962 288905.200000
    310    311     1   0.10962 288905.200000
    310    312     1   0.10962 288905.200000
    307    308     1   0.10969 288043.296000
    307    309     1   0.10969 288043.296000
    301    302     1   0.10860 301825.392000
    299    300     1   0.10860 301825.392000
    296    297     1   0.10860 301825.392000
    295    298     1   0.10860 301825.392000
    288    289     1   0.10969 288043.296000
    288    290     1   0.10969 288043.296000
    341    342     1   0.10962 288905.200000
    341    343     1   0.10962 288905.200000
    338    339     1   0.10962 288905.200000
    338    340     1   0.10962 288905.200000
    335    336     1   0.10969 288043.296000
    335    337     1   0.10969 288043.296000
    329    330     1   0.10860 301825.392000
    327    328     1   0.10860 301825.392000
    324    325     1   0.10860 301825.392000
    323    326     1   0.10860 301825.392000
    316    317     1   0.10969 288043.296000
    316    318     1   0.10969 288043.296000
    369    370     1   0.10962 288905.200000
    369    371     1   0.10962 288905.200000
    366    367     1   0.10962 288905.200000
    366    368     1   0.10962 288905.200000
    363    364     1   0.10969 288043.296000
    363    365     1   0.10969 288043.296000
    357    358     1   0.10860 301825.392000
    355    356     1   0.10860 301825.392000
    352    353     1   0.10860 301825.392000
    351    354     1   0.10860 301825.392000
    344    345     1   0.10969 288043.296000
    344    346     1   0.10969 288043.296000
    397    398     1   0.10962 288905.200000
    397    399     1   0.10962 288905.200000
    394    395     1   0.10962 288905.200000
    394    396     1   0.10962 288905.200000
    391    392     1   0.10969 288043.296000
    391    393     1   0.10969 288043.296000
    385    386     1   0.10860 301825.392000
    383    384     1   0.10860 301825.392000
    380    381     1   0.10860 301825.392000
    379    382     1   0.10860 301825.392000
    372    373     1   0.10969 288043.296000
    372    374     1   0.10969 288043.296000
    425    426     1   0.10962 288905.200000
    425    427     1   0.10962 288905.200000
    422    423     1   0.10962 288905.200000
    422    424     1   0.10962 288905.200000
    419    420     1   0.10969 288043.296000
    419    421     1   0.10969 288043.296000
    413    414     1   0.10860 301825.392000
    411    412     1   0.10860 301825.392000
    408    409     1   0.10860 301825.392000
    407    410     1   0.10860 301825.392000
    400    401     1   0.10969 288043.296000
    400    402     1   0.10969 288043.296000
    453    454     1   0.10962 288905.200000
    453    455     1   0.10962 288905.200000
    450    451     1   0.10962 288905.200000
    450    452     1   0.10962 288905.200000
    447    448     1   0.10969 288043.296000
    447    449     1   0.10969 288043.296000
    441    442     1   0.10860 301825.392000
    439    440     1   0.10860 301825.392000
    436    437     1   0.10860 301825.392000
    435    438     1   0.10860 301825.392000
    428    429     1   0.10969 288043.296000
    428    430     1   0.10969 288043.296000
    481    482     1   0.10962 288905.200000
    481    483     1   0.10962 288905.200000
    478    479     1   0.10962 288905.200000
    478    480     1   0.10962 288905.200000
    475    476     1   0.10969 288043.296000
    475    477     1   0.10969 288043.296000
    469    470     1   0.10860 301825.392000
    467    468     1   0.10860 301825.392000
    464    465     1   0.10860 301825.392000
    463    466     1   0.10860 301825.392000
    456    457     1   0.10969 288043.296000
    456    458     1   0.10969 288043.296000
    509    510     1   0.10962 288905.200000
    509    511     1   0.10962 288905.200000
    506    507     1   0.10962 288905.200000
    506    508     1   0.10962 288905.200000
    503    504     1   0.10969 288043.296000
    503    505     1   0.10969 288043.296000
    497    498     1   0.10860 301825.392000
    495    496     1   0.10860 301825.392000
    492    493     1   0.10860 301825.392000
    491    494     1   0.10860 301825.392000
    484    485     1   0.10969 288043.296000
    484    486     1   0.10969 288043.296000
    537    538     1   0.10962 288905.200000
    537    539     1   0.10962 288905.200000
    534    535     1   0.10962 288905.200000
    534    536     1   0.10962 288905.200000
    531    532     1   0.10969 288043.296000
    531    533     1   0.10969 288043.296000
    525    526     1   0.10860 301825.392000
    523    524     1   0.10860 301825.392000
    520    521     1   0.10860 301825.392000
    519    522     1   0.10860 301825.392000
    512    513     1   0.10969 288043.296000
    512    514     1   0.10969 288043.296000
    565    566     1   0.10962 288905.200000
    565    567     1   0.10962 288905.200000
    562    563     1   0.10962 288905.200000
    562    564     1   0.10962 288905.200000
    559    560     1   0.10969 288043.296000
    559    561     1   0.10969 288043.296000
    553    554     1   0.10860 301825.392000
    551    552     1   0.10860 301825.392000
    548    549     1   0.10860 301825.392000
    547    550     1   0.10860 301825.392000
    540    541     1   0.10969 288043.296000
    540    542     1   0.10969 288043.296000
    593    594     1   0.10962 288905.200000
    593    595     1   0.10962 288905.200000
    590    591     1   0.10962 288905.200000
    590    592     1   0.10962 288905.200000
    587    588     1   0.10969 288043.296000
    587    589     1   0.10969 288043.296000
    581    582     1   0.10860 301825.392000
    579    580     1   0.10860 301825.392000
    576    577     1   0.10860 301825.392000
    575    578     1   0.10860 301825.392000
    568    569     1   0.10969 288043.296000
    568    570     1   0.10969 288043.296000
    621    622     1   0.10962 288905.200000
    621    623     1   0.10962 288905.200000
    618    619     1   0.10962 288905.200000
    618    620     1   0.10962 288905.200000
    615    616     1   0.10969 288043.296000
    615    617     1   0.10969 288043.296000
    609    610     1   0.10860 301825.392000
    607    608     1   0.10860 301825.392000
    604    605     1   0.10860 301825.392000
    603    606     1   0.10860 301825.392000
    596    597     1   0.10969 288043.296000
    596    598     1   0.10969 288043.296000
    649    650     1   0.10962 288905.200000
    649    651     1   0.10962 288905.200000
    646    647     1   0.10962 288905.200000
    646    648     1   0.10962 288905.200000
    643    644     1   0.10969 288043.296000
    643    645     1   0.10969 288043.296000
    637    638     1   0.10860 301825.392000
    635    636     1   0.10860 301825.392000
    632    633     1   0.10860 301825.392000
    631    634     1   0.10860 301825.392000
    624    625     1   0.10969 288043.296000
    624    626     1   0.10969 288043.296000
    677    678     1   0.10962 288905.200000
    677    679     1   0.10962 288905.200000
    674    675     1   0.10962 288905.200000
    674    676     1   0.10962 288905.200000
    671    672     1   0.10969 288043.296000
    671    673     1   0.10969 288043.296000
    665    666     1   0.10860 301825.392000
    663    664     1   0.10860 301825.392000
    660    661     1   0.10860 301825.392000
    659    662     1   0.10860 301825.392000
    652    653     1   0.10969 288043.296000
    652    654     1   0.10969 288043.296000
    705    706     1   0.10962 288905.200000
    705    707     1   0.10962 288905.200000
    702    703     1   0.10962 288905.200000
    702    704     1   0.10962 288905.200000
    699    700     1   0.10969 288043.296000
    699    701     1   0.10969 288043.296000
    693    694     1   0.10860 301825.392000
    691    692     1   0.10860 301825.392000
    688    689     1   0.10860 301825.392000
    687    690     1   0.10860 301825.392000
    680    681     1   0.10969 288043.296000
    680    682     1   0.10969 288043.296000
    733    734     1   0.10962 288905.200000
    733    735     1   0.10962 288905.200000
    730    731     1   0.10962 288905.200000
    730    732     1   0.10962 288905.200000
    727    728     1   0.10969 288043.296000
    727    729     1   0.10969 288043.296000
    721    722     1   0.10860 301825.392000
    719    720     1   0.10860 301825.392000
    716    717     1   0.10860 301825.392000
    715    718     1   0.10860 301825.392000
    708    709     1   0.10969 288043.296000
    708    710     1   0.10969 288043.296000
    761    762     1   0.10962 288905.200000
    761    763     1   0.10962 288905.200000
    758    759     1   0.10962 288905.200000
    758    760     1   0.10962 288905.200000
    755    756     1   0.10969 288043.296000
    755    757     1   0.10969 288043.296000
    749    750     1   0.10860 301825.392000
    747    748     1   0.10860 301825.392000
    744    745     1   0.10860 301825.392000
    743    746     1   0.10860 301825.392000
    736    737     1   0.10969 288043.296000
    736    738     1   0.10969 288043.296000
    789    790     1   0.10962 288905.200000
    789    791     1   0.10962 288905.200000
    786    787     1   0.10962 288905.200000
    786    788     1   0.10962 288905.200000
    783    784     1   0.10969 288043.296000
    783    785     1   0.10969 288043.296000
    777    778     1   0.10860 301825.392000
    775    776     1   0.10860 301825.392000
    772    773     1   0.10860 301825.392000
    771    774     1   0.10860 301825.392000
    764    765     1   0.10969 288043.296000
    764    766     1   0.10969 288043.296000
    817    818     1   0.10962 288905.200000
    817    819     1   0.10962 288905.200000
    814    815     1   0.10962 288905.200000
    814    816     1   0.10962 288905.200000
    811    812     1   0.10969 288043.296000
    811    813     1   0.10969 288043.296000
    805    806     1   0.10860 301825.392000
    803    804     1   0.10860 301825.392000
    800    801     1   0.10860 301825.392000
    799    802     1   0.10860 301825.392000
    792    793     1   0.10969 288043.296000
    792    794     1   0.10969 288043.296000
    845    846     1   0.10962 288905.200000
    845    847     1   0.10962 288905.200000
    842    843     1   0.10962 288905.200000
    842    844     1   0.10962 288905.200000
    839    840     1   0.10969 288043.296000
    839    841     1   0.10969 288043.296000
    833    834     1   0.10860 301825.392000
    831    832     1   0.10860 301825.392000
    828    829     1   0.10860 301825.392000
    827    830     1   0.10860 301825.392000
    820    821     1   0.10969 288043.296000
    820    822     1   0.10969 288043.296000
    873    874     1   0.10962 288905.200000
    873    875     1   0.10962 288905.200000
    870    871     1   0.10962 288905.200000
    870    872     1   0.10962 288905.200000
    867    868     1   0.10969 288043.296000
    867    869     1   0.10969 288043.296000
    861    862     1   0.10860 301825.392000
    859    860     1   0.10860 301825.392000
    856    857     1   0.10860 301825.392000
    855    858     1   0.10860 301825.392000
    848    849     1   0.10969 288043.296000
    848    850     1   0.10969 288043.296000

[ pairs ]
;    ai     aj funct         c0         c1         c2         c3
     33     40     1
     32     39     1
     29     36     1
     26     33     1
     25     32     1
     22     29     1
     19     26     1
     18     25     1
     15     22     1
     12     19     1
     11     18     1
      8     15     1
      5     12     1
      4     11     1
      1      8     1
     68     75     1
     67     74     1
     64     71     1
     61     68     1
     60     67     1
     57     64     1
     54     61     1
     53     60     1
     50     57     1
     47     54     1
     46     53     1
     43     50     1
     40     47     1
     39     46     1
     36     43     1
    103    110     1
    102    109     1
     99    106     1
     96    103     1
     95    102     1
     92     99     1
     89     96     1
     88     95     1
     85     92     1
     82     89     1
     81     88     1
     78     85     1
     75     82     1
     74     81     1
     71     78     1
    138    145     1
    137    144     1
    134    141     1
    131    138     1
    130    137     1
    127    134     1
    124    131     1
    123    130     1
    120    127     1
    117    124     1
    116    123     1
    113    120     1
    110    117     1
    109    116     1
    106    113     1
    173    180     1
    172    179     1
    169    176     1
    166    173     1
    165    172     1
    162    169     1
    159    166     1
    158    165     1
    155    162     1
    152    159     1
    151    158     1
    148    155     1
    145    152     1
    144    151     1
    141    148     1
    201    208     1
    198    207     1
    195    204     1
    194    201     1
    193    195     1
    192    198     1
    191    195     1
    189    193     1
    189    194     1
    187    192     1
    184    187     1
    184    193     1
    184    194     1
    183    189     1
    183    192     1
    182    191     1
    181    183     1
    181    187     1
    180    184     1
    180    189     1
    179    183     1
    179    187     1
    176    181     1
    176    182     1
    229    236     1
    226    235     1
    223    232     1
    222    229     1
    221    223     1
    220    226     1
    219    223     1
    217    221     1
    217    222     1
    215    220     1
    212    215     1
    212    221     1
    212    222     1
    211    217     1
    211    220     1
    210    219     1
    209    211     1
    209    215     1
    208    212     1
    208    217     1
    207    211     1
    207    215     1
    204    209     1
    204    210     1
    257    264     1
    254    263     1
    251    260     1
    250    257     1
    249    251     1
    248    254     1
    247    251     1
    245    249     1
    245    250     1
    243    248     1
    240    243     1
    240    249     1
    240    250     1
    239    245     1
    239    248     1
    238    247     1
    237    239     1
    237    243     1
    236    240     1
    236    245     1
    235    239     1
    235    243     1
    232    237     1
    232    238     1
    285    292     1
    282    291     1
    279    288     1
    278    285     1
    277    279     1
    276    282     1
    275    279     1
    273    277     1
    273    278     1
    271    276     1
    268    271     1
    268    277     1
    268    278     1
    267    273     1
    267    276     1
    266    275     1
    265    267     1
    265    271     1
    264    268     1
    264    273     1
    263    267     1
    263    271     1
    260    265     1
    260    266     1
    313    320     1
    310    319     1
    307    316     1
    306    313     1
    305    307     1
    304    310     1
    303    307     1
    301    305     1
    301    306     1
    299    304     1
    296    299     1
    296    305     1
    296    306     1
    295    301     1
    295    304     1
    294    303     1
    293    295     1
    293    299     1
    292    296     1
    292    301     1
    291    295     1
    291    299     1
    288    293     1
    288    294     1
    341    348     1
    338    347     1
    335    344     1
    334    341     1
    333    335     1
    332    338     1
    331    335     1
    329    333     1
    329    334     1
    327    332     1
    324    327     1
    324    333     1
    324    334     1
    323    329     1
    323    332     1
    322    331     1
    321    323     1
    321    327     1
    320    324     1
    320    329     1
    319    323     1
    319    327     1
    316    321     1
    316    322     1
    369    376     1
    366    375     1
    363    372     1
    362    369     1
    361    363     1
    360    366     1
    359    363     1
    357    361     1
    357    362     1
    355    360     1
    352    355     1
    352    361     1
    352    362     1
    351    357     1
    351    360     1
    350    359     1
    349    351     1
    349    355     1
    348    352     1
    348    357     1
    347    351     1
    347    355     1
    344    349     1
    344    350     1
    397    404     1
    394    403     1
    391    400     1
    390    397     1
    389    391     1
    388    394     1
    387    391     1
    385    389     1
    385    390     1
    383    388     1
    380    383     1
    380    389     1
    380    390     1
    379    385     1
    379    388     1
    378    387     1
    377    379     1
    377    383     1
    376    380     1
    376    385     1
    375    379     1
    375    383     1
    372    377     1
    372    378     1
    425    432     1
    422    431     1
    419    428     1
    418    425     1
    417    419     1
    416    422     1
    415    419     1
    413    417     1
    413    418     1
    411    416     1
    408    411     1
    408    417     1
    408    418     1
    407    413     1
    407    416     1
    406    415     1
    405    407     1
    405    411     1
    404    408     1
    404    413     1
    403    407     1
    403    411     1
    400    405     1
    400    406     1
    453    460     1
    450    459     1
    447    456     1
    446    453     1
    445    447     1
    444    450     1
    443    447     1
    441    445     1
    441    446     1
    439    444     1
    436    439     1
    436    445     1
    436    446     1
    435    441     1
    435    444     1
    434    443     1
    433    435     1
    433    439     1
    432    436     1
    432    441     1
    431    435     1
    431    439     1
    428    433     1
    428    434     1
    481    488     1
    478    487     1
    475    484     1
    474    481     1
    473    475     1
    472    478     1
    471    475     1
    469    473     1
    469    474     1
    467    472     1
    464    467     1
    464    473     1
    464    474     1
    463    469     1
    463    472     1
    462    471     1
    461    463     1
    461    467     1
    460    464     1
    460    469     1
    459    463     1
    459    467     1
    456    461     1
    456    462     1
    509    516     1
    506    515     1
    503    512     1
    502    509     1
    501    503     1
    500    506     1
    499    503     1
    497    501     1
    497    502     1
    495    500     1
    492    495     1
    492    501     1
    492    502     1
    491    497     1
    491    500     1
    490    499     1
    489    491     1
    489    495     1
    488    492     1
    488    497     1
    487    491     1
    487    495     1
    484    489     1
    484    490     1
    537    544     1
    534    543     1
    531    540     1
    530    537     1
    529    531     1
    528    534     1
    527    531     1
    525    529     1
    525    530     1
    523    528     1
    520    523     1
    520    529     1
    520    530     1
    519    525     1
    519    528     1
    518    527     1
    517    519     1
    517    523     1
    516    520     1
    516    525     1
    515    519     1
    515    523     1
    512    517     1
    512    518     1
    565    572     1
    562    571     1
    559    568     1
    558    565     1
    557    559     1
    556    562     1
    555    559     1
    553    557     1
    553    558     1
    551    556     1
    548    551     1
    548    557     1
    548    558     1
    547    553     1
    547    556     1
    546    555     1
    545    547     1
    545    551     1
    544    548     1
    544    553     1
    543    547     1
    543    551     1
    540    545     1
    540    546     1
    593    600     1
    590    599     1
    587    596     1
    586    593     1
    585    587     1
    584    590     1
    583    587     1
    581    585     1
    581    586     1
    579    584     1
    576    579     1
    576    585     1
    576    586     1
    575    581     1
    575    584     1
    574    583     1
    573    575     1
    573    579     1
    572    576     1
    572    581     1
    571    575     1
    571    579     1
    568    573     1
    568    574     1
    621    628     1
    618    627     1
    615    624     1
    614    621     1
    613    615     1
    612    618     1
    611    615     1
    609    613     1
    609    614     1
    607    612     1
    604    607     1
    604    613     1
    604    614     1
    603    609     1
    603    612     1
    602    611     1
    601    603     1
    601    607     1
    600    604     1
    600    609     1
    599    603     1
    599    607     1
    596    601     1
    596    602     1
    649    656     1
    646    655     1
    643    652     1
    642    649     1
    641    643     1
    640    646     1
    639    643     1
    637    641     1
    637    642     1
    635    640     1
    632    635     1
    632    641     1
    632    642     1
    631    637     1
    631    640     1
    630    639     1
    629    631     1
    629    635     1
    628    632     1
    628    637     1
    627    631     1
    627    635     1
    624    629     1
    624    630     1
    677    684     1
    674    683     1
    671    680     1
    670    677     1
    669    671     1
    668    674     1
    667    671     1
    665    669     1
    665    670     1
    663    668     1
    660    663     1
    660    669     1
    660    670     1
    659    665     1
    659    668     1
    658    667     1
    657    659     1
    657    663     1
    656    660     1
    656    665     1
    655    659     1
    655    663     1
    652    657     1
    652    658     1
    705    712     1
    702    711     1
    699    708     1
    698    705     1
    697    699     1
    696    702     1
    695    699     1
    693    697     1
    693    698     1
    691    696     1
    688    691     1
    688    697     1
    688    698     1
    687    693     1
    687    696     1
    686    695     1
    685    687     1
    685    691     1
    684    688     1
    684    693     1
    683    687     1
    683    691     1
    680    685     1
    680    686     1
    733    740     1
    730    739     1
    727    736     1
    726    733     1
    725    727     1
    724    730     1
    723    727     1
    721    725     1
    721    726     1
    719    724     1
    716    719     1
    716    725     1
    716    726     1
    715    721     1
    715    724     1
    714    723     1
    713    715     1
    713    719     1
    712    716     1
    712    721     1
    711    715     1
    711    719     1
    708    713     1
    708    714     1
    761    768     1
    758    767     1
    755    764     1
    754    761     1
    753    755     1
    752    758     1
    751    755     1
    749    753     1
    749    754     1
    747    752     1
    744    747     1
    744    753     1
    744    754     1
    743    749     1
    743    752     1
    742    751     1
    741    743     1
    741    747     1
    740    744     1
    740    749     1
    739    743     1
    739    747     1
    736    741     1
    736    742     1
    789    796     1
    786    795     1
    783    792     1
    782    789     1
    781    783     1
    780    786     1
    779    783     1
    777    781     1
    777    782     1
    775    780     1
    772    775     1
    772    781     1
    772    782     1
    771    777     1
    771    780     1
    770    779     1
    769    771     1
    769    775     1
    768    772     1
    768    777     1
    767    771     1
    767    775     1
    764    769     1
    764    770     1
    817    824     1
    814    823     1
    811    820     1
    810    817     1
    809    811     1
    808    814     1
    807    811     1
    805    809     1
    805    810     1
    803    808     1
    800    803     1
    800    809     1
    800    810     1
    799    805     1
    799    808     1
    798    807     1
    797    799     1
    797    803     1
    796    800     1
    796    805     1
    795    799     1
    795    803     1
    792    797     1
    792    798     1
    845    852     1
    842    851     1
    839    848     1
    838    845     1
    837    839     1
    836    842     1
    835    839     1
    833    837     1
    833    838     1
    831    836     1
    828    831     1
    828    837     1
    828    838     1
    827    833     1
    827    836     1
    826    835     1
    825    827     1
    825    831     1
    824    828     1
    824    833     1
    823    827     1
    823    831     1
    820    825     1
    820    826     1
    866    873     1
    865    867     1
    864    870     1
    863    867     1
    861    865     1
    861    866     1
    859    864     1
    856    859     1
    856    865     1
    856    866     1
    855    861     1
    855    864     1
    854    863     1
    853    855     1
    853    859     1
    852    856     1
    852    861     1
    851    855     1
    851    859     1
    848    853     1
    848    854     1
     35     37     1
     35     38     1
     35     39     1
     34     37     1
     34     38     1
     34     39     1
     32     37     1
     32     38     1
     31     33     1
     30     33     1
     29     34     1
     29     35     1
     28     30     1
     28     31     1
     28     32     1
     27     30     1
     27     31     1
     27     32     1
     25     30     1
     25     31     1
     24     26     1
     23     26     1
     22     27     1
     22     28     1
     21     23     1
     21     24     1
     21     25     1
     20     23     1
     20     24     1
     20     25     1
     18     23     1
     18     24     1
     17     19     1
     16     19     1
     15     20     1
     15     21     1
     14     16     1
     14     17     1
     14     18     1
     13     16     1
     13     17     1
     13     18     1
     11     16     1
     11     17     1
     10     12     1
      9     12     1
      8     13     1
      8     14     1
      7      9     1
      7     10     1
      7     11     1
      6      9     1
      6     10     1
      6     11     1
      4      9     1
      4     10     1
      3      5     1
      2      5     1
      1      6     1
      1      7     1
     70     72     1
     70     73     1
     70     74     1
     69     72     1
     69     73     1
     69     74     1
     67     72     1
     67     73     1
     66     68     1
     65     68     1
     64     69     1
     64     70     1
     63     65     1
     63     66     1
     63     67     1
     62     65     1
     62     66     1
     62     67     1
     60     65     1
     60     66     1
     59     61     1
     58     61     1
     57     62     1
     57     63     1
     56     58     1
     56     59     1
     56     60     1
     55     58     1
     55     59     1
     55     60     1
     53     58     1
     53     59     1
     52     54     1
     51     54     1
     50     55     1
     50     56     1
     49     51     1
     49     52     1
     49     53     1
     48     51     1
     48     52     1
     48     53     1
     46     51     1
     46     52     1
     45     47     1
     44     47     1
     43     48     1
     43     49     1
     42     44     1
     42     45     1
     42     46     1
     41     44     1
     41     45     1
     41     46     1
     39     44     1
     39     45     1
     38     40     1
     37     40     1
     36     41     1
     36     42     1
    105    107     1
    105    108     1
    105    109     1
    104    107     1
    104    108     1
    104    109     1
    102    107     1
    102    108     1
    101    103     1
    100    103     1
     99    104     1
     99    105     1
     98    100     1
     98    101     1
     98    102     1
     97    100     1
     97    101     1
     97    102     1
     95    100     1
     95    101     1
     94     96     1
     93     96     1
     92     97     1
     92     98     1
     91     93     1
     91     94     1
     91     95     1
     90     93     1
     90     94     1
     90     95     1
     88     93     1
     88     94     1
     87     89     1
     86     89     1
     85     90     1
     85     91     1
     84     86     1
     84     87     1
     84     88     1
     83     86     1
     83     87     1
     83     88     1
     81     86     1
     81     87     1
     80     82     1
     79     82     1
     78     83     1
     78     84     1
     77     79     1
     77     80     1
     77     81     1
     76     79     1
     76     80     1
     76     81     1
     74     79     1
     74     80     1
     73     75     1
     72     75     1
     71     76     1
     71     77     1
    140    142     1
    140    143     1
    140    144     1
    139    142     1
    139    143     1
    139    144     1
    137    142     1
    137    143     1
    136    138     1
    135    138     1
    134    139     1
    134    140     1
    133    135     1
    133    136     1
    133    137     1
    132    135     1
    132    136     1
    132    137     1
    130    135     1
    130    136     1
    129    131     1
    128    131     1
    127    132     1
    127    133     1
    126    128     1
    126    129     1
    126    130     1
    125    128     1
    125    129     1
    125    130     1
    123    128     1
    123    129     1
    122    124     1
    121    124     1
    120    125     1
    120    126     1
    119    121     1
    119    122     1
    119    123     1
    118    121     1
    118    122     1
    118    123     1
    116    121     1
    116    122     1
    115    117     1
    114    117     1
    113    118     1
    113    119     1
    112    114     1
    112    115     1
    112    116     1
    111    114     1
    111    115     1
    111    116     1
    109    114     1
    109    115     1
    108    110     1
    107    110     1
    106    111     1
    106    112     1
    175    177     1
    175    178     1
    175    179     1
    174    177     1
    174    178     1
    174    179     1
    172    177     1
    172    178     1
    171    173     1
    170    173     1
    169    174     1
    169    175     1
    168    170     1
    168    171     1
    168    172     1
    167    170     1
    167    171     1
    167    172     1
    165    170     1
    165    171     1
    164    166     1
    163    166     1
    162    167     1
    162    168     1
    161    163     1
    161    164     1
    161    165     1
    160    163     1
    160    164     1
    160    165     1
    158    163     1
    158    164     1
    157    159     1
    156    159     1
    155    160     1
    155    161     1
    154    156     1
    154    157     1
    154    158     1
    153    156     1
    153    157     1
    153    158     1
    151    156     1
    151    157     1
    150    152     1
    149    152     1
    148    153     1
    148    154     1
    147    149     1
    147    150     1
    147    151     1
    146    149     1
    146    150     1
    146    151     1
    144    149     1
    144    150     1
    143    145     1
    142    145     1
    141    146     1
    141    147     1
    203    205     1
    203    206     1
    203    207     1
    202    205     1
    202    206     1
    202    207     1
    200    202     1
    200    203     1
    200    204     1
    199    202     1
    199    203     1
    199    204     1
    198    205     1
    198    206     1
    197    199     1
    197    200     1
    197    201     1
    196    199     1
    196    200     1
    196    201     1
    195    202     1
    195    203     1
    194    199     1
    194    200     1
    192    196     1
    192    197     1
    190    192     1
    188    190     1
    188    191     1
    186    187     1
    186    191     1
    185    186     1
    185    189     1
    185    192     1
    184    190     1
    183    188     1
    182    185     1
    182    190     1
    180    186     1
    180    188     1
    178    180     1
    177    180     1
    231    233     1
    231    234     1
    231    235     1
    230    233     1
    230    234     1
    230    235     1
    228    230     1
    228    231     1
    228    232     1
    227    230     1
    227    231     1
    227    232     1
    226    233     1
    226    234     1
    225    227     1
    225    228     1
    225    229     1
    224    227     1
    224    228     1
    224    229     1
    223    230     1
    223    231     1
    222    227     1
    222    228     1
    220    224     1
    220    225     1
    218    220     1
    216    218     1
    216    219     1
    214    215     1
    214    219     1
    213    214     1
    213    217     1
    213    220     1
    212    218     1
    211    216     1
    210    213     1
    210    218     1
    208    214     1
    208    216     1
    206    208     1
    205    208     1
    259    261     1
    259    262     1
    259    263     1
    258    261     1
    258    262     1
    258    263     1
    256    258     1
    256    259     1
    256    260     1
    255    258     1
    255    259     1
    255    260     1
    254    261     1
    254    262     1
    253    255     1
    253    256     1
    253    257     1
    252    255     1
    252    256     1
    252    257     1
    251    258     1
    251    259     1
    250    255     1
    250    256     1
    248    252     1
    248    253     1
    246    248     1
    244    246     1
    244    247     1
    242    243     1
    242    247     1
    241    242     1
    241    245     1
    241    248     1
    240    246     1
    239    244     1
    238    241     1
    238    246     1
    236    242     1
    236    244     1
    234    236     1
    233    236     1
    287    289     1
    287    290     1
    287    291     1
    286    289     1
    286    290     1
    286    291     1
    284    286     1
    284    287     1
    284    288     1
    283    286     1
    283    287     1
    283    288     1
    282    289     1
    282    290     1
    281    283     1
    281    284     1
    281    285     1
    280    283     1
    280    284     1
    280    285     1
    279    286     1
    279    287     1
    278    283     1
    278    284     1
    276    280     1
    276    281     1
    274    276     1
    272    274     1
    272    275     1
    270    271     1
    270    275     1
    269    270     1
    269    273     1
    269    276     1
    268    274     1
    267    272     1
    266    269     1
    266    274     1
    264    270     1
    264    272     1
    262    264     1
    261    264     1
    315    317     1
    315    318     1
    315    319     1
    314    317     1
    314    318     1
    314    319     1
    312    314     1
    312    315     1
    312    316     1
    311    314     1
    311    315     1
    311    316     1
    310    317     1
    310    318     1
    309    311     1
    309    312     1
    309    313     1
    308    311     1
    308    312     1
    308    313     1
    307    314     1
    307    315     1
    306    311     1
    306    312     1
    304    308     1
    304    309     1
    302    304     1
    300    302     1
    300    303     1
    298    299     1
    298    303     1
    297    298     1
    297    301     1
    297    304     1
    296    302     1
    295    300     1
    294    297     1
    294    302     1
    292    298     1
    292    300     1
    290    292     1
    289    292     1
    343    345     1
    343    346     1
    343    347     1
    342    345     1
    342    346     1
    342    347     1
    340    342     1
    340    343     1
    340    344     1
    339    342     1
    339    343     1
    339    344     1
    338    345     1
    338    346     1
    337    339     1
    337    340     1
    337    341     1
    336    339     1
    336    340     1
    336    341     1
    335    342     1
    335    343     1
    334    339     1
    334    340     1
    332    336     1
    332    337     1
    330    332     1
    328    330     1
    328    331     1
    326    327     1
    326    331     1
    325    326     1
    325    329     1
    325    332     1
    324    330     1
    323    328     1
    322    325     1
    322    330     1
    320    326     1
    320    328     1
    318    320     1
    317    320     1
    371    373     1
    371    374     1
    371    375     1
    370    373     1
    370    374     1
    370    375     1
    368    370     1
    368    371     1
    368    372     1
    367    370     1
    367    371     1
    367    372     1
    366    373     1
    366    374     1
    365    367     1
    365    368     1
    365    369     1
    364    367     1
    364    368     1
    364    369     1
    363    370     1
    363    371     1
    362    367     1
    362    368     1
    360    364     1
    360    365     1
    358    360     1
    356    358     1
    356    359     1
    354    355     1
    354    359     1
    353    354     1
    353    357     1
    353    360     1
    352    358     1
    351    356     1
    350    353     1
    350    358     1
    348    354     1
    348    356     1
    346    348     1
    345    348     1
    399    401     1
    399    402     1
    399    403     1
    398    401     1
    398    402     1
    398    403     1
    396    398     1
    396    399     1
    396    400     1
    395    398     1
    395    399     1
    395    400     1
    394    401     1
    394    402     1
    393    395     1
    393    396     1
    393    397     1
    392    395     1
    392    396     1
    392    397     1
    391    398     1
    391    399     1
    390    395     1
    390    396     1
    388    392     1
    388    393     1
    386    388     1
    384    386     1
    384    387     1
    382    383     1
    382    387     1
    381    382     1
    381    385     1
    381    388     1
    380    386     1
    379    384     1
    378    381     1
    378    386     1
    376    382     1
    376    384     1
    374    376     1
    373    376     1
    427    429     1
    427    430     1
    427    431     1
    426    429     1
    426    430     1
    426    431     1
    424    426     1
    424    427     1
    424    428     1
    423    426     1
    423    427     1
    423    428     1
    422    429     1
    422    430     1
    421    423     1
    421    424     1
    421    425     1
    420    423     1
    420    424     1
    420    425     1
    419    426     1
    419    427     1
    418    423     1
    418    424     1
    416    420     1
    416    421     1
    414    416     1
    412    414     1
    412    415     1
    410    411     1
    410    415     1
    409    410     1
    409    413     1
    409    416     1
    408    414     1
    407    412     1
    406    409     1
    406    414     1
    404    410     1
    404    412     1
    402    404     1
    401    404     1
    455    457     1
    455    458     1
    455    459     1
    454    457     1
    454    458     1
    454    459     1
    452    454     1
    452    455     1
    452    456     1
    451    454     1
    451    455     1
    451    456     1
    450    457     1
    450    458     1
    449    451     1
    449    452     1
    449    453     1
    448    451     1
    448    452     1
    448    453     1
    447    454     1
    447    455     1
    446    451     1
    446    452     1
    444    448     1
    444    449     1
    442    444     1
    440    442     1
    440    443     1
    438    439     1
    438    443     1
    437    438     1
    437    441     1
    437    444     1
    436    442     1
    435    440     1
    434    437     1
    434    442     1
    432    438     1
    432    440     1
    430    432     1
    429    432     1
    483    485     1
    483    486     1
    483    487     1
    482    485     1
    482    486     1
    482    487     1
    480    482     1
    480    483     1
    480    484     1
    479    482     1
    479    483     1
    479    484     1
    478    485     1
    478    486     1
    477    479     1
    477    480     1
    477    481     1
    476    479     1
    476    480     1
    476    481     1
    475    482     1
    475    483     1
    474    479     1
    474    480     1
    472    476     1
    472    477     1
    470    472     1
    468    470     1
    468    471     1
    466    467     1
    466    471     1
    465    466     1
    465    469     1
    465    472     1
    464    470     1
    463    468     1
    462    465     1
    462    470     1
    460    466     1
    460    468     1
    458    460     1
    457    460     1
    511    513     1
    511    514     1
    511    515     1
    510    513     1
    510    514     1
    510    515     1
    508    510     1
    508    511     1
    508    512     1
    507    510     1
    507    511     1
    507    512     1
    506    513     1
    506    514     1
    505    507     1
    505    508     1
    505    509     1
    504    507     1
    504    508     1
    504    509     1
    503    510     1
    503    511     1
    502    507     1
    502    508     1
    500    504     1
    500    505     1
    498    500     1
    496    498     1
    496    499     1
    494    495     1
    494    499     1
    493    494     1
    493    497     1
    493    500     1
    492    498     1
    491    496     1
    490    493     1
    490    498     1
    488    494     1
    488    496     1
    486    488     1
    485    488     1
    539    541     1
    539    542     1
    539    543     1
    538    541     1
    538    542     1
    538    543     1
    536    538     1
    536    539     1
    536    540     1
    535    538     1
    535    539     1
    535    540     1
    534    541     1
    534    542     1
    533    535     1
    533    536     1
    533    537     1
    532    535     1
    532    536     1
    532    537     1
    531    538     1
    531    539     1
    530    535     1
    530    536     1
    528    532     1
    528    533     1
    526    528     1
    524    526     1
    524    527     1
    522    523     1
    522    527     1
    521    522     1
    521    525     1
    521    528     1
    520    526     1
    519    524     1
    518    521     1
    518    526     1
    516    522     1
    516    524     1
    514    516     1
    513    516     1
    567    569     1
    567    570     1
    567    571     1
    566    569     1
    566    570     1
    566    571     1
    564    566     1
    564    567     1
    564    568     1
    563    566     1
    563    567     1
    563    568     1
    562    569     1
    562    570     1
    561    563     1
    561    564     1
    561    565     1
    560    563     1
    560    564     1
    560    565     1
    559    566     1
    559    567     1
    558    563     1
    558    564     1
    556    560     1
    556    561     1
    554    556     1
    552    554     1
    552    555     1
    550    551     1
    550    555     1
    549    550     1
    549    553     1
    549    556     1
    548    554     1
    547    552     1
    546    549     1
    546    554     1
    544    550     1
    544    552     1
    542    544     1
    541    544     1
    595    597     1
    595    598     1
    595    599     1
    594    597     1
    594    598     1
    594    599     1
    592    594     1
    592    595     1
    592    596     1
    591    594     1
    591    595     1
    591    596     1
    590    597     1
    590    598     1
    589    591     1
    589    592     1
    589    593     1
    588    591     1
    588    592     1
    588    593     1
    587    594     1
    587    595     1
    586    591     1
    586    592     1
    584    588     1
    584    589     1
    582    584     1
    580    582     1
    580    583     1
    578    579     1
    578    583     1
    577    578     1
    577    581     1
    577    584     1
    576    582     1
    575    580     1
    574    577     1
    574    582     1
    572    578     1
    572    580     1
    570    572     1
    569    572     1
    623    625     1
    623    626     1
    623    627     1
    622    625     1
    622    626     1
    622    627     1
    620    622     1
    620    623     1
    620    624     1
    619    622     1
    619    623     1
    619    624     1
    618    625     1
    618    626     1
    617    619     1
    617    620     1
    617    621     1
    616    619     1
    616    620     1
    616    621     1
    615    622     1
    615    623     1
    614    619     1
    614    620     1
    612    616     1
    612    617     1
    610    612     1
    608    610     1
    608    611     1
    606    607     1
    606    611     1
    605    606     1
    605    609     1
    605    612     1
    604    610     1
    603    608     1
    602    605     1
    602    610     1
    600    606     1
    600    608     1
    598    600     1
    597    600     1
    651    653     1
    651    654     1
    651    655     1
    650    653     1
    650    654     1
    650    655     1
    648    650     1
    648    651     1
    648    652     1
    647    650     1
    647    651     1
    647    652     1
    646    653     1
    646    654     1
    645    647     1
    645    648     1
    645    649     1
    644    647     1
    644    648     1
    644    649     1
    643    650     1
    643    651     1
    642    647     1
    642    648     1
    640    644     1
    640    645     1
    638    640     1
    636    638     1
    636    639     1
    634    635     1
    634    639     1
    633    634     1
    633    637     1
    633    640     1
    632    638     1
    631    636     1
    630    633     1
    630    638     1
    628    634     1
    628    636     1
    626    628     1
    625    628     1
    679    681     1
    679    682     1
    679    683     1
    678    681     1
    678    682     1
    678    683     1
    676    678     1
    676    679     1
    676    680     1
    675    678     1
    675    679     1
    675    680     1
    674    681     1
    674    682     1
    673    675     1
    673    676     1
    673    677     1
    672    675     1
    672    676     1
    672    677     1
    671    678     1
    671    679     1
    670    675     1
    670    676     1
    668    672     1
    668    673     1
    666    668     1
    664    666     1
    664    667     1
    662    663     1
    662    667     1
    661    662     1
    661    665     1
    661    668     1
    660    666     1
    659    664     1
    658    661     1
    658    666     1
    656    662     1
    656    664     1
    654    656     1
    653    656     1
    707    709     1
    707    710     1
    707    711     1
    706    709     1
    706    710     1
    706    711     1
    704    706     1
    704    707     1
    704    708     1
    703    706     1
    703    707     1
    703    708     1
    702    709     1
    702    710     1
    701    703     1
    701    704     1
    701    705     1
    700    703     1
    700    704     1
    700    705     1
    699    706     1
    699    707     1
    698    703     1
    698    704     1
    696    700     1
    696    701     1
    694    696     1
    692    694     1
    692    695     1
    690    691     1
    690    695     1
    689    690     1
    689    693     1
    689    696     1
    688    694     1
    687    692     1
    686    689     1
    686    694     1
    684    690     1
    684    692     1
    682    684     1
    681    684     1
    735    737     1
    735    738     1
    735    739     1
    734    737     1
    734    738     1
    734    739     1
    732    734     1
    732    735     1
    732    736     1
    731    734     1
    731    735     1
    731    736     1
    730    737     1
    730    738     1
    729    731     1
    729    732     1
    729    733     1
    728    731     1
    728    732     1
    728    733     1
    727    734     1
    727    735     1
    726    731     1
    726    732     1
    724    728     1
    724    729     1
    722    724     1
    720    722     1
    720    723     1
    718    719     1
    718    723     1
    717    718     1
    717    721     1
    717    724     1
    716    722     1
    715    720     1
    714    717     1
    714    722     1
    712    718     1
    712    720     1
    710    712     1
    709    712     1
    763    765     1
    763    766     1
    763    767     1
    762    765     1
    762    766     1
    762    767     1
    760    762     1
    760    763     1
    760    764     1
    759    762     1
    759    763     1
    759    764     1
    758    765     1
    758    766     1
    757    759     1
    757    760     1
    757    761     1
    756    759     1
    756    760     1
    756    761     1
    755    762     1
    755    763     1
    754    759     1
    754    760     1
    752    756     1
    752    757     1
    750    752     1
    748    750     1
    748    751     1
    746    747     1
    746    751     1
    745    746     1
    745    749     1
    745    752     1
    744    750     1
    743    748     1
    742    745     1
    742    750     1
    740    746     1
    740    748     1
    738    740     1
    737    740     1
    791    793     1
    791    794     1
    791    795     1
    790    793     1
    790    794     1
    790    795     1
    788    790     1
    788    791     1
    788    792     1
    787    790     1
    787    791     1
    787    792     1
    786    793     1
    786    794     1
    785    787     1
    785    788     1
    785    789     1
    784    787     1
    784    788     1
    784    789     1
    783    790     1
    783    791     1
    782    787     1
    782    788     1
    780    784     1
    780    785     1
    778    780     1
    776    778     1
    776    779     1
    774    775     1
    774    779     1
    773    774     1
    773    777     1
    773    780     1
    772    778     1
    771    776     1
    770    773     1
    770    778     1
    768    774     1
    768    776     1
    766    768     1
    765    768     1
    819    821     1
    819    822     1
    819    823     1
    818    821     1
    818    822     1
    818    823     1
    816    818     1
    816    819     1
    816    820     1
    815    818     1
    815    819     1
    815    820     1
    814    821     1
    814    822     1
    813    815     1
    813    816     1
    813    817     1
    812    815     1
    812    816     1
    812    817     1
    811    818     1
    811    819     1
    810    815     1
    810    816     1
    808    812     1
    808    813     1
    806    808     1
    804    806     1
    804    807     1
    802    803     1
    802    807     1
    801    802     1
    801    805     1
    801    808     1
    800    806     1
    799    804     1
    798    801     1
    798    806     1
    796    802     1
    796    804     1
    794    796     1
    793    796     1
    847    849     1
    847    850     1
    847    851     1
    846    849     1
    846    850     1
    846    851     1
    844    846     1
    844    847     1
    844    848     1
    843    846     1
    843    847     1
    843    848     1
    842    849     1
    842    850     1
    841    843     1
    841    844     1
    841    845     1
    840    843     1
    840    844     1
    840    845     1
    839    846     1
    839    847     1
    838    843     1
    838    844     1
    836    840     1
    836    841     1
    834    836     1
    832    834     1
    832    835     1
    830    831     1
    830    835     1
    829    830     1
    829    833     1
    829    836     1
    828    834     1
    827    832     1
    826    829     1
    826    834     1
    824    830     1
    824    832     1
    822    824     1
    821    824     1
    872    874     1
    872    875     1
    871    874     1
    871    875     1
    869    871     1
    869    872     1
    869    873     1
    868    871     1
    868    872     1
    868    873     1
    867    874     1
    867    875     1
    866    871     1
    866    872     1
    864    868     1
    864    869     1
    862    864     1
    860    862     1
    860    863     1
    858    859     1
    858    863     1
    857    858     1
    857    861     1
    857    864     1
    856    862     1
    855    860     1
    854    857     1
    854    862     1
    852    858     1
    852    860     1
    850    852     1
    849    852     1

[ angles ]
;    ai     aj     ak funct         c0         c1         c2         c3
     33     36     39     1   107.6200464 648.017920
     32     33     36     1   107.6200464 648.017920
     29     32     33     1   113.6000487 739.145440
     26     29     32     1   107.6200464 648.017920
     25     26     29     1   107.6200464 648.017920
     22     25     26     1   113.6000487 739.145440
     19     22     25     1   107.6200464 648.017920
     18     19     22     1   107.6200464 648.017920
     15     18     19     1   113.6000487 739.145440
     12     15     18     1   107.6200464 648.017920
     11     12     15     1   107.6200464 648.017920
      8     11     12     1   113.6000487 739.145440
      5      8     11     1   107.6200464 648.017920
      4      5      8     1   107.6200464 648.017920
      1      4      5     1   113.6000487 739.145440
     68     71     74     1   107.6200464 648.017920
     67     68     71     1   107.6200464 648.017920
     64     67     68     1   113.6000487 739.145440
     61     64     67     1   107.6200464 648.017920
     60     61     64     1   107.6200464 648.017920
     57     60     61     1   113.6000487 739.145440
     54     57     60     1   107.6200464 648.017920
     53     54     57     1   107.6200464 648.017920
     50     53     54     1   113.6000487 739.145440
     47     50     53     1   107.6200464 648.017920
     46     47     50     1   107.6200464 648.017920
     43     46     47     1   113.6000487 739.145440
     40     43     46     1   107.6200464 648.017920
     39     40     43     1   107.6200464 648.017920
     36     39     40     1   113.6000487 739.145440
    103    106    109     1   107.6200464 648.017920
    102    103    106     1   107.6200464 648.017920
     99    102    103     1   113.6000487 739.145440
     96     99    102     1   107.6200464 648.017920
     95     96     99     1   107.6200464 648.017920
     92     95     96     1   113.6000487 739.145440
     89     92     95     1   107.6200464 648.017920
     88     89     92     1   107.6200464 648.017920
     85     88     89     1   113.6000487 739.145440
     82     85     88     1   107.6200464 648.017920
     81     82     85     1   107.6200464 648.017920
     78     81     82     1   113.6000487 739.145440
     75     78     81     1   107.6200464 648.017920
     74     75     78     1   107.6200464 648.017920
     71     74     75     1   113.6000487 739.145440
    138    141    144     1   107.6200464 648.017920
    137    138    141     1   107.6200464 648.017920
    134    137    138     1   113.6000487 739.145440
    131    134    137     1   107.6200464 648.017920
    130    131    134     1   107.6200464 648.017920
    127    130    131     1   113.6000487 739.145440
    124    127    130     1   107.6200464 648.017920
    123    124    127     1   107.6200464 648.017920
    120    123    124     1   113.6000487 739.145440
    117    120    123     1   107.6200464 648.017920
    116    117    120     1   107.6200464 648.017920
    113    116    117     1   113.6000487 739.145440
    110    113    116     1   107.6200464 648.017920
    109    110    113     1   107.6200464 648.017920
    106    109    110     1   113.6000487 739.145440
    173    176    179     1   107.6200464 648.017920
    172    173    176     1   107.6200464 648.017920
    169    172    173     1   113.6000487 739.145440
    166    169    172     1   107.6200464 648.017920
    165    166    169     1   107.6200464 648.017920
    162    165    166     1   113.6000487 739.145440
    159    162    165     1   107.6200464 648.017920
    158    159    162     1   107.6200464 648.017920
    155    158    159     1   113.6000487 739.145440
    152    155    158     1   107.6200464 648.017920
    151    152    155     1   107.6200464 648.017920
    148    151    152     1   113.6000487 739.145440
    145    148    151     1   107.6200464 648.017920
    144    145    148     1   107.6200464 648.017920
    141    144    145     1   113.6000487 739.145440
    201    204    207     1   107.6200464 648.017920
    198    201    204     1   112.6300483 500.992160
    195    198    201     1   112.6300483 500.992160
    194    195    198     1   107.6200464 648.017920
    193    192    194     1   123.2000528 847.343680
    192    194    195     1   115.8200499 748.350240
    191    192    193     1   122.6000525 652.369280
    191    192    194     1   112.4100480 657.557440
    189    191    192     1   120.3300516 514.129920
    187    189    191     1   120.0200517 532.790560
    184    191    189     1   120.0200517 532.790560
    184    191    192     1   120.3300516 514.129920
    183    182    187     1   120.0200517 532.790560
    183    184    191     1   120.0200517 532.790560
    182    183    184     1   120.0200517 532.790560
    182    187    189     1   120.0200517 532.790560
    181    180    182     1   122.6000525 652.369280
    180    182    183     1   120.3300516 514.129920
    180    182    187     1   120.3300516 514.129920
    179    180    181     1   123.2000528 847.343680
    179    180    182     1   112.4100480 657.557440
    176    179    180     1   115.8200499 748.350240
    229    232    235     1   107.6200464 648.017920
    226    229    232     1   112.6300483 500.992160
    223    226    229     1   112.6300483 500.992160
    222    223    226     1   107.6200464 648.017920
    221    220    222     1   123.2000528 847.343680
    220    222    223     1   115.8200499 748.350240
    219    220    221     1   122.6000525 652.369280
    219    220    222     1   112.4100480 657.557440
    217    219    220     1   120.3300516 514.129920
    215    217    219     1   120.0200517 532.790560
    212    219    217     1   120.0200517 532.790560
    212    219    220     1   120.3300516 514.129920
    211    210    215     1   120.0200517 532.790560
    211    212    219     1   120.0200517 532.790560
    210    211    212     1   120.0200517 532.790560
    210    215    217     1   120.0200517 532.790560
    209    208    210     1   122.6000525 652.369280
    208    210    211     1   120.3300516 514.129920
    208    210    215     1   120.3300516 514.129920
    207    208    209     1   123.2000528 847.343680
    207    208    210     1   112.4100480 657.557440
    204    207    208     1   115.8200499 748.350240
    257    260    263     1   107.6200464 648.017920
    254    257    260     1   112.6300483 500.992160
    251    254    257     1   112.6300483 500.992160
    250    251    254     1   107.6200464 648.017920
    249    248    250     1   123.2000528 847.343680
    248    250    251     1   115.8200499 748.350240
    247    248    249     1   122.6000525 652.369280
    247    248    250     1   112.4100480 657.557440
    245    247    248     1   120.3300516 514.129920
    243    245    247     1   120.0200517 532.790560
    240    247    245     1   120.0200517 532.790560
    240    247    248     1   120.3300516 514.129920
    239    238    243     1   120.0200517 532.790560
    239    240    247     1   120.0200517 532.790560
    238    239    240     1   120.0200517 532.790560
    238    243    245     1   120.0200517 532.790560
    237    236    238     1   122.6000525 652.369280
    236    238    239     1   120.3300516 514.129920
    236    238    243     1   120.3300516 514.129920
    235    236    237     1   123.2000528 847.343680
    235    236    238     1   112.4100480 657.557440
    232    235    236     1   115.8200499 748.350240
    285    288    291     1   107.6200464 648.017920
    282    285    288     1   112.6300483 500.992160
    279    282    285     1   112.6300483 500.992160
    278    279    282     1   107.6200464 648.017920
    277    276    278     1   123.2000528 847.343680
    276    278    279     1   115.8200499 748.350240
    275    276    277     1   122.6000525 652.369280
    275    276    278     1   112.4100480 657.557440
    273    275    276     1   120.3300516 514.129920
    271    273    275     1   120.0200517 532.790560
    268    275    273     1   120.0200517 532.790560
    268    275    276     1   120.3300516 514.129920
    267    266    271     1   120.0200517 532.790560
    267    268    275     1   120.0200517 532.790560
    266    267    268     1   120.0200517 532.790560
    266    271    273     1   120.0200517 532.790560
    265    264    266     1   122.6000525 652.369280
    264    266    267     1   120.3300516 514.129920
    264    266    271     1   120.3300516 514.129920
    263    264    265     1   123.2000528 847.343680
    263    264    266     1   112.4100480 657.557440
    260    263    264     1   115.8200499 748.350240
    313    316    319     1   107.6200464 648.017920
    310    313    316     1   112.6300483 500.992160
    307    310    313     1   112.6300483 500.992160
    306    307    310     1   107.6200464 648.017920
    305    304    306     1   123.2000528 847.343680
    304    306    307     1   115.8200499 748.350240
    303    304    305     1   122.6000525 652.369280
    303    304    306     1   112.4100480 657.557440
    301    303    304     1   120.3300516 514.129920
    299    301    303     1   120.0200517 532.790560
    296    303    301     1   120.0200517 532.790560
    296    303    304     1   120.3300516 514.129920
    295    294    299     1   120.0200517 532.790560
    295    296    303     1   120.0200517 532.790560
    294    295    296     1   120.0200517 532.790560
    294    299    301     1   120.0200517 532.790560
    293    292    294     1   122.6000525 652.369280
    292    294    295     1   120.3300516 514.129920
    292    294    299     1   120.3300516 514.129920
    291    292    293     1   123.2000528 847.343680
    291    292    294     1   112.4100480 657.557440
    288    291    292     1   115.8200499 748.350240
    341    344    347     1   107.6200464 648.017920
    338    341    344     1   112.6300483 500.992160
    335    338    341     1   112.6300483 500.992160
    334    335    338     1   107.6200464 648.017920
    333    332    334     1   123.2000528 847.343680
    332    334    335     1   115.8200499 748.350240
    331    332    333     1   122.6000525 652.369280
    331    332    334     1   112.4100480 657.557440
    329    331    332     1   120.3300516 514.129920
    327    329    331     1   120.0200517 532.790560
    324    331    329     1   120.0200517 532.790560
    324    331    332     1   120.3300516 514.129920
    323    322    327     1   120.0200517 532.790560
    323    324    331     1   120.0200517 532.790560
    322    323    324     1   120.0200517 532.790560
    322    327    329     1   120.0200517 532.790560
    321    320    322     1   122.6000525 652.369280
    320    322    323     1   120.3300516 514.129920
    320    322    327     1   120.3300516 514.129920
    319    320    321     1   123.2000528 847.343680
    319    320    322     1   112.4100480 657.557440
    316    319    320     1   115.8200499 748.350240
    369    372    375     1   107.6200464 648.017920
    366    369    372     1   112.6300483 500.992160
    363    366    369     1   112.6300483 500.992160
    362    363    366     1   107.6200464 648.017920
    361    360    362     1   123.2000528 847.343680
    360    362    363     1   115.8200499 748.350240
    359    360    361     1   122.6000525 652.369280
    359    360    362     1   112.4100480 657.557440
    357    359    360     1   120.3300516 514.129920
    355    357    359     1   120.0200517 532.790560
    352    359    357     1   120.0200517 532.790560
    352    359    360     1   120.3300516 514.129920
    351    350    355     1   120.0200517 532.790560
    351    352    359     1   120.0200517 532.790560
    350    351    352     1   120.0200517 532.790560
    350    355    357     1   120.0200517 532.790560
    349    348    350     1   122.6000525 652.369280
    348    350    351     1   120.3300516 514.129920
    348    350    355     1   120.3300516 514.129920
    347    348    349     1   123.2000528 847.343680
    347    348    350     1   112.4100480 657.557440
    344    347    348     1   115.8200499 748.350240
    397    400    403     1   107.6200464 648.017920
    394    397    400     1   112.6300483 500.992160
    391    394    397     1   112.6300483 500.992160
    390    391    394     1   107.6200464 648.017920
    389    388    390     1   123.2000528 847.343680
    388    390    391     1   115.8200499 748.350240
    387    388    389     1   122.6000525 652.369280
    387    388    390     1   112.4100480 657.557440
    385    387    388     1   120.3300516 514.129920
    383    385    387     1   120.0200517 532.790560
    380    387    385     1   120.0200517 532.790560
    380    387    388     1   120.3300516 514.129920
    379    378    383     1   120.0200517 532.790560
    379    380    387     1   120.0200517 532.790560
    378    379    380     1   120.0200517 532.790560
    378    383    385     1   120.0200517 532.790560
    377    376    378     1   122.6000525 652.369280
    376    378    379     1   120.3300516 514.129920
    376    378    383     1   120.3300516 514.129920
    375    376    377     1   123.2000528 847.343680
    375    376    378     1   112.4100480 657.557440
    372    375    376     1   115.8200499 748.350240
    425    428    431     1   107.6200464 648.017920
    422    425    428     1   112.6300483 500.992160
    419    422    425     1   112.6300483 500.992160
    418    419    422     1   107.6200464 648.017920
    417    416    418     1   123.2000528 847.343680
    416    418    419     1   115.8200499 748.350240
    415    416    417     1   122.6000525 652.369280
    415    416    418     1   112.4100480 657.557440
    413    415    416     1   120.3300516 514.129920
    411    413    415     1   120.0200517 532.790560
    408    415    413     1   120.0200517 532.790560
    408    415    416     1   120.3300516 514.129920
    407    406    411     1   120.0200517 532.790560
    407    408    415     1   120.0200517 532.790560
    406    407    408     1   120.0200517 532.790560
    406    411    413     1   120.0200517 532.790560
    405    404    406     1   122.6000525 652.369280
    404    406    407     1   120.3300516 514.129920
    404    406    411     1   120.3300516 514.129920
    403    404    405     1   123.2000528 847.343680
    403    404    406     1   112.4100480 657.557440
    400    403    404     1   115.8200499 748.350240
    453    456    459     1   107.6200464 648.017920
    450    453    456     1   112.6300483 500.992160
    447    450    453     1   112.6300483 500.992160
    446    447    450     1   107.6200464 648.017920
    445    444    446     1   123.2000528 847.343680
    444    446    447     1   115.8200499 748.350240
    443    444    445     1   122.6000525 652.369280
    443    444    446     1   112.4100480 657.557440
    441    443    444     1   120.3300516 514.129920
    439    441    443     1   120.0200517 532.790560
    436    443    441     1   120.0200517 532.790560
    436    443    444     1   120.3300516 514.129920
    435    434    439     1   120.0200517 532.790560
    435    436    443     1   120.0200517 532.790560
    434    435    436     1   120.0200517 532.790560
    434    439    441     1   120.0200517 532.790560
    433    432    434     1   122.6000525 652.369280
    432    434    435     1   120.3300516 514.129920
    432    434    439     1   120.3300516 514.129920
    431    432    433     1   123.2000528 847.343680
    431    432    434     1   112.4100480 657.557440
    428    431    432     1   115.8200499 748.350240
    481    484    487     1   107.6200464 648.017920
    478    481    484     1   112.6300483 500.992160
    475    478    481     1   112.6300483 500.992160
    474    475    478     1   107.6200464 648.017920
    473    472    474     1   123.2000528 847.343680
    472    474    475     1   115.8200499 748.350240
    471    472    473     1   122.6000525 652.369280
    471    472    474     1   112.4100480 657.557440
    469    471    472     1   120.3300516 514.129920
    467    469    471     1   120.0200517 532.790560
    464    471    469     1   120.0200517 532.790560
    464    471    472     1   120.3300516 514.129920
    463    462    467     1   120.0200517 532.790560
    463    464    471     1   120.0200517 532.790560
    462    463    464     1   120.0200517 532.790560
    462    467    469     1   120.0200517 532.790560
    461    460    462     1   122.6000525 652.369280
    460    462    463     1   120.3300516 514.129920
    460    462    467     1   120.3300516 514.129920
    459    460    461     1   123.2000528 847.343680
    459    460    462     1   112.4100480 657.557440
    456    459    460     1   115.8200499 748.350240
    509    512    515     1   107.6200464 648.017920
    506    509    512     1   112.6300483 500.992160
    503    506    509     1   112.6300483 500.992160
    502    503    506     1   107.6200464 648.017920
    501    500    502     1   123.2000528 847.343680
    500    502    503     1   115.8200499 748.350240
    499    500    501     1   122.6000525 652.369280
    499    500    502     1   112.4100480 657.557440
    497    499    500     1   120.3300516 514.129920
    495    497    499     1   120.0200517 532.790560
    492    499    497     1   120.0200517 532.790560
    492    499    500     1   120.3300516 514.129920
    491    490    495     1   120.0200517 532.790560
    491    492    499     1   120.0200517 532.790560
    490    491    492     1   120.0200517 532.790560
    490    495    497     1   120.0200517 532.790560
    489    488    490     1   122.6000525 652.369280
    488    490    491     1   120.3300516 514.129920
    488    490    495     1   120.3300516 514.129920
    487    488    489     1   123.2000528 847.343680
    487    488    490     1   112.4100480 657.557440
    484    487    488     1   115.8200499 748.350240
    537    540    543     1   107.6200464 648.017920
    534    537    540     1   112.6300483 500.992160
    531    534    537     1   112.6300483 500.992160
    530    531    534     1   107.6200464 648.017920
    529    528    530     1   123.2000528 847.343680
    528    530    531     1   115.8200499 748.350240
    527    528    529     1   122.6000525 652.369280
    527    528    530     1   112.4100480 657.557440
    525    527    528     1   120.3300516 514.129920
    523    525    527     1   120.0200517 532.790560
    520    527    525     1   120.0200517 532.790560
    520    527    528     1   120.3300516 514.129920
    519    518    523     1   120.0200517 532.790560
    519    520    527     1   120.0200517 532.790560
    518    519    520     1   120.0200517 532.790560
    518    523    525     1   120.0200517 532.790560
    517    516    518     1   122.6000525 652.369280
    516    518    519     1   120.3300516 514.129920
    516    518    523     1   120.3300516 514.129920
    515    516    517     1   123.2000528 847.343680
    515    516    518     1   112.4100480 657.557440
    512    515    516     1   115.8200499 748.350240
    565    568    571     1   107.6200464 648.017920
    562    565    568     1   112.6300483 500.992160
    559    562    565     1   112.6300483 500.992160
    558    559    562     1   107.6200464 648.017920
    557    556    558     1   123.2000528 847.343680
    556    558    559     1   115.8200499 748.350240
    555    556    557     1   122.6000525 652.369280
    555    556    558     1   112.4100480 657.557440
    553    555    556     1   120.3300516 514.129920
    551    553    555     1   120.0200517 532.790560
    548    555    553     1   120.0200517 532.790560
    548    555    556     1   120.3300516 514.129920
    547    546    551     1   120.0200517 532.790560
    547    548    555     1   120.0200517 532.790560
    546    547    548     1   120.0200517 532.790560
    546    551    553     1   120.0200517 532.790560
    545    544    546     1   122.6000525 652.369280
    544    546    547     1   120.3300516 514.129920
    544    546    551     1   120.3300516 514.129920
    543    544    545     1   123.2000528 847.343680
    543    544    546     1   112.4100480 657.557440
    540    543    544     1   115.8200499 748.350240
    593    596    599     1   107.6200464 648.017920
    590    593    596     1   112.6300483 500.992160
    587    590    593     1   112.6300483 500.992160
    586    587    590     1   107.6200464 648.017920
    585    584    586     1   123.2000528 847.343680
    584    586    587     1   115.8200499 748.350240
    583    584    585     1   122.6000525 652.369280
    583    584    586     1   112.4100480 657.557440
    581    583    584     1   120.3300516 514.129920
    579    581    583     1   120.0200517 532.790560
    576    583    581     1   120.0200517 532.790560
    576    583    584     1   120.3300516 514.129920
    575    574    579     1   120.0200517 532.790560
    575    576    583     1   120.0200517 532.790560
    574    575    576     1   120.0200517 532.790560
    574    579    581     1   120.0200517 532.790560
    573    572    574     1   122.6000525 652.369280
    572    574    575     1   120.3300516 514.129920
    572    574    579     1   120.3300516 514.129920
    571    572    573     1   123.2000528 847.343680
    571    572    574     1   112.4100480 657.557440
    568    571    572     1   115.8200499 748.350240
    621    624    627     1   107.6200464 648.017920
    618    621    624     1   112.6300483 500.992160
    615    618    621     1   112.6300483 500.992160
    614    615    618     1   107.6200464 648.017920
    613    612    614     1   123.2000528 847.343680
    612    614    615     1   115.8200499 748.350240
    611    612    613     1   122.6000525 652.369280
    611    612    614     1   112.4100480 657.557440
    609    611    612     1   120.3300516 514.129920
    607    609    611     1   120.0200517 532.790560
    604    611    609     1   120.0200517 532.790560
    604    611    612     1   120.3300516 514.129920
    603    602    607     1   120.0200517 532.790560
    603    604    611     1   120.0200517 532.790560
    602    603    604     1   120.0200517 532.790560
    602    607    609     1   120.0200517 532.790560
    601    600    602     1   122.6000525 652.369280
    600    602    603     1   120.3300516 514.129920
    600    602    607     1   120.3300516 514.129920
    599    600    601     1   123.2000528 847.343680
    599    600    602     1   112.4100480 657.557440
    596    599    600     1   115.8200499 748.350240
    649    652    655     1   107.6200464 648.017920
    646    649    652     1   112.6300483 500.992160
    643    646    649     1   112.6300483 500.992160
    642    643    646     1   107.6200464 648.017920
    641    640    642     1   123.2000528 847.343680
    640    642    643     1   115.8200499 748.350240
    639    640    641     1   122.6000525 652.369280
    639    640    642     1   112.4100480 657.557440
    637    639    640     1   120.3300516 514.129920
    635    637    639     1   120.0200517 532.790560
    632    639    637     1   120.0200517 532.790560
    632    639    640     1   120.3300516 514.129920
    631    630    635     1   120.0200517 532.790560
    631    632    639     1   120.0200517 532.790560
    630    631    632     1   120.0200517 532.790560
    630    635    637     1   120.0200517 532.790560
    629    628    630     1   122.6000525 652.369280
    628    630    631     1   120.3300516 514.129920
    628    630    635     1   120.3300516 514.129920
    627    628    629     1   123.2000528 847.343680
    627    628    630     1   112.4100480 657.557440
    624    627    628     1   115.8200499 748.350240
    677    680    683     1   107.6200464 648.017920
    674    677    680     1   112.6300483 500.992160
    671    674    677     1   112.6300483 500.992160
    670    671    674     1   107.6200464 648.017920
    669    668    670     1   123.2000528 847.343680
    668    670    671     1   115.8200499 748.350240
    667    668    669     1   122.6000525 652.369280
    667    668    670     1   112.4100480 657.557440
    665    667    668     1   120.3300516 514.129920
    663    665    667     1   120.0200517 532.790560
    660    667    665     1   120.0200517 532.790560
    660    667    668     1   120.3300516 514.129920
    659    658    663     1   120.0200517 532.790560
    659    660    667     1   120.0200517 532.790560
    658    659    660     1   120.0200517 532.790560
    658    663    665     1   120.0200517 532.790560
    657    656    658     1   122.6000525 652.369280
    656    658    659     1   120.3300516 514.129920
    656    658    663     1   120.3300516 514.129920
    655    656    657     1   123.2000528 847.343680
    655    656    658     1   112.4100480 657.557440
    652    655    656     1   115.8200499 748.350240
    705    708    711     1   107.6200464 648.017920
    702    705    708     1   112.6300483 500.992160
    699    702    705     1   112.6300483 500.992160
    698    699    702     1   107.6200464 648.017920
    697    696    698     1   123.2000528 847.343680
    696    698    699     1   115.8200499 748.350240
    695    696    697     1   122.6000525 652.369280
    695    696    698     1   112.4100480 657.557440
    693    695    696     1   120.3300516 514.129920
    691    693    695     1   120.0200517 532.790560
    688    695    693     1   120.0200517 532.790560
    688    695    696     1   120.3300516 514.129920
    687    686    691     1   120.0200517 532.790560
    687    688    695     1   120.0200517 532.790560
    686    687    688     1   120.0200517 532.790560
    686    691    693     1   120.0200517 532.790560
    685    684    686     1   122.6000525 652.369280
    684    686    687     1   120.3300516 514.129920
    684    686    691     1   120.3300516 514.129920
    683    684    685     1   123.2000528 847.343680
    683    684    686     1   112.4100480 657.557440
    680    683    684     1   115.8200499 748.350240
    733    736    739     1   107.6200464 648.017920
    730    733    736     1   112.6300483 500.992160
    727    730    733     1   112.6300483 500.992160
    726    727    730     1   107.6200464 648.017920
    725    724    726     1   123.2000528 847.343680
    724    726    727     1   115.8200499 748.350240
    723    724    725     1   122.6000525 652.369280
    723    724    726     1   112.4100480 657.557440
    721    723    724     1   120.3300516 514.129920
    719    721    723     1   120.0200517 532.790560
    716    723    721     1   120.0200517 532.790560
    716    723    724     1   120.3300516 514.129920
    715    714    719     1   120.0200517 532.790560
    715    716    723     1   120.0200517 532.790560
    714    715    716     1   120.0200517 532.790560
    714    719    721     1   120.0200517 532.790560
    713    712    714     1   122.6000525 652.369280
    712    714    715     1   120.3300516 514.129920
    712    714    719     1   120.3300516 514.129920
    711    712    713     1   123.2000528 847.343680
    711    712    714     1   112.4100480 657.557440
    708    711    712     1   115.8200499 748.350240
    761    764    767     1   107.6200464 648.017920
    758    761    764     1   112.6300483 500.992160
    755    758    761     1   112.6300483 500.992160
    754    755    758     1   107.6200464 648.017920
    753    752    754     1   123.2000528 847.343680
    752    754    755     1   115.8200499 748.350240
    751    752    753     1   122.6000525 652.369280
    751    752    754     1   112.4100480 657.557440
    749    751    752     1   120.3300516 514.129920
    747    749    751     1   120.0200517 532.790560
    744    751    749     1   120.0200517 532.790560
    744    751    752     1   120.3300516 514.129920
    743    742    747     1   120.0200517 532.790560
    743    744    751     1   120.0200517 532.790560
    742    743    744     1   120.0200517 532.790560
    742    747    749     1   120.0200517 532.790560
    741    740    742     1   122.6000525 652.369280
    740    742    743     1   120.3300516 514.129920
    740    742    747     1   120.3300516 514.129920
    739    740    741     1   123.2000528 847.343680
    739    740    742     1   112.4100480 657.557440
    736    739    740     1   115.8200499 748.350240
    789    792    795     1   107.6200464 648.017920
    786    789    792     1   112.6300483 500.992160
    783    786    789     1   112.6300483 500.992160
    782    783    786     1   107.6200464 648.017920
    781    780    782     1   123.2000528 847.343680
    780    782    783     1   115.8200499 748.350240
    779    780    781     1   122.6000525 652.369280
    779    780    782     1   112.4100480 657.557440
    777    779    780     1   120.3300516 514.129920
    775    777    779     1   120.0200517 532.790560
    772    779    777     1   120.0200517 532.790560
    772    779    780     1   120.3300516 514.129920
    771    770    775     1   120.0200517 532.790560
    771    772    779     1   120.0200517 532.790560
    770    771    772     1   120.0200517 532.790560
    770    775    777     1   120.0200517 532.790560
    769    768    770     1   122.6000525 652.369280
    768    770    771     1   120.3300516 514.129920
    768    770    775     1   120.3300516 514.129920
    767    768    769     1   123.2000528 847.343680
    767    768    770     1   112.4100480 657.557440
    764    767    768     1   115.8200499 748.350240
    817    820    823     1   107.6200464 648.017920
    814    817    820     1   112.6300483 500.992160
    811    814    817     1   112.6300483 500.992160
    810    811    814     1   107.6200464 648.017920
    809    808    810     1   123.2000528 847.343680
    808    810    811     1   115.8200499 748.350240
    807    808    809     1   122.6000525 652.369280
    807    808    810     1   112.4100480 657.557440
    805    807    808     1   120.3300516 514.129920
    803    805    807     1   120.0200517 532.790560
    800    807    805     1   120.0200517 532.790560
    800    807    808     1   120.3300516 514.129920
    799    798    803     1   120.0200517 532.790560
    799    800    807     1   120.0200517 532.790560
    798    799    800     1   120.0200517 532.790560
    798    803    805     1   120.0200517 532.790560
    797    796    798     1   122.6000525 652.369280
    796    798    799     1   120.3300516 514.129920
    796    798    803     1   120.3300516 514.129920
    795    796    797     1   123.2000528 847.343680
    795    796    798     1   112.4100480 657.557440
    792    795    796     1   115.8200499 748.350240
    845    848    851     1   107.6200464 648.017920
    842    845    848     1   112.6300483 500.992160
    839    842    845     1   112.6300483 500.992160
    838    839    842     1   107.6200464 648.017920
    837    836    838     1   123.2000528 847.343680
    836    838    839     1   115.8200499 748.350240
    835    836    837     1   122.6000525 652.369280
    835    836    838     1   112.4100480 657.557440
    833    835    836     1   120.3300516 514.129920
    831    833    835     1   120.0200517 532.790560
    828    835    833     1   120.0200517 532.790560
    828    835    836     1   120.3300516 514.129920
    827    826    831     1   120.0200517 532.790560
    827    828    835     1   120.0200517 532.790560
    826    827    828     1   120.0200517 532.790560
    826    831    833     1   120.0200517 532.790560
    825    824    826     1   122.6000525 652.369280
    824    826    827     1   120.3300516 514.129920
    824    826    831     1   120.3300516 514.129920
    823    824    825     1   123.2000528 847.343680
    823    824    826     1   112.4100480 657.557440
    820    823    824     1   115.8200499 748.350240
    867    870    873     1   112.6300483 500.992160
    866    867    870     1   107.6200464 648.017920
    865    864    866     1   123.2000528 847.343680
    864    866    867     1   115.8200499 748.350240
    863    864    865     1   122.6000525 652.369280
    863    864    866     1   112.4100480 657.557440
    861    863    864     1   120.3300516 514.129920
    859    861    863     1   120.0200517 532.790560
    856    863    861     1   120.0200517 532.790560
    856    863    864     1   120.3300516 514.129920
    855    854    859     1   120.0200517 532.790560
    855    856    863     1   120.0200517 532.790560
    854    855    856     1   120.0200517 532.790560
    854    859    861     1   120.0200517 532.790560
    853    852    854     1   122.6000525 652.369280
    852    854    855     1   120.3300516 514.129920
    852    854    859     1   120.3300516 514.129920
    851    852    853     1   123.2000528 847.343680
    851    852    854     1   112.4100480 657.557440
    848    851    852     1   115.8200499 748.350240
     35     33     36     1   109.5900471 362.167040
     34     33     35     1   108.5500468 298.235520
     34     33     36     1   109.5900471 362.167040
     33     36     37     1   109.5900471 362.167040
     33     36     38     1   109.5900471 362.167040
     32     33     34     1   110.3400472 470.281600
     32     33     35     1   110.3400472 470.281600
     31     29     32     1   110.3400472 470.281600
     30     29     31     1   108.5500468 298.235520
     30     29     32     1   110.3400472 470.281600
     28     26     29     1   109.5900471 362.167040
     27     26     28     1   108.5500468 298.235520
     27     26     29     1   109.5900471 362.167040
     26     29     30     1   109.5900471 362.167040
     26     29     31     1   109.5900471 362.167040
     25     26     27     1   110.3400472 470.281600
     25     26     28     1   110.3400472 470.281600
     24     22     25     1   110.3400472 470.281600
     23     22     24     1   108.5500468 298.235520
     23     22     25     1   110.3400472 470.281600
     21     19     22     1   109.5900471 362.167040
     20     19     21     1   108.5500468 298.235520
     20     19     22     1   109.5900471 362.167040
     19     22     23     1   109.5900471 362.167040
     19     22     24     1   109.5900471 362.167040
     18     19     20     1   110.3400472 470.281600
     18     19     21     1   110.3400472 470.281600
     17     15     18     1   110.3400472 470.281600
     16     15     17     1   108.5500468 298.235520
     16     15     18     1   110.3400472 470.281600
     14     12     15     1   109.5900471 362.167040
     13     12     14     1   108.5500468 298.235520
     13     12     15     1   109.5900471 362.167040
     12     15     16     1   109.5900471 362.167040
     12     15     17     1   109.5900471 362.167040
     11     12     13     1   110.3400472 470.281600
     11     12     14     1   110.3400472 470.281600
     10      8     11     1   110.3400472 470.281600
      9      8     10     1   108.5500468 298.235520
      9      8     11     1   110.3400472 470.281600
      7      5      8     1   109.5900471 362.167040
      6      5      7     1   108.5500468 298.235520
      6      5      8     1   109.5900471 362.167040
      5      8      9     1   109.5900471 362.167040
      5      8     10     1   109.5900471 362.167040
      4      5      6     1   110.3400472 470.281600
      4      5      7     1   110.3400472 470.281600
      3      1      4     1   110.3400472 470.281600
      2      1      3     1   108.5500468 298.235520
      2      1      4     1   110.3400472 470.281600
     70     68     71     1   109.5900471 362.167040
     69     68     70     1   108.5500468 298.235520
     69     68     71     1   109.5900471 362.167040
     68     71     72     1   109.5900471 362.167040
     68     71     73     1   109.5900471 362.167040
     67     68     69     1   110.3400472 470.281600
     67     68     70     1   110.3400472 470.281600
     66     64     67     1   110.3400472 470.281600
     65     64     66     1   108.5500468 298.235520
     65     64     67     1   110.3400472 470.281600
     63     61     64     1   109.5900471 362.167040
     62     61     63     1   108.5500468 298.235520
     62     61     64     1   109.5900471 362.167040
     61     64     65     1   109.5900471 362.167040
     61     64     66     1   109.5900471 362.167040
     60     61     62     1   110.3400472 470.281600
     60     61     63     1   110.3400472 470.281600
     59     57     60     1   110.3400472 470.281600
     58     57     59     1   108.5500468 298.235520
     58     57     60     1   110.3400472 470.281600
     56     54     57     1   109.5900471 362.167040
     55     54     56     1   108.5500468 298.235520
     55     54     57     1   109.5900471 362.167040
     54     57     58     1   109.5900471 362.167040
     54     57     59     1   109.5900471 362.167040
     53     54     55     1   110.3400472 470.281600
     53     54     56     1   110.3400472 470.281600
     52     50     53     1   110.3400472 470.281600
     51     50     52     1   108.5500468 298.235520
     51     50     53     1   110.3400472 470.281600
     49     47     50     1   109.5900471 362.167040
     48     47     49     1   108.5500468 298.235520
     48     47     50     1   109.5900471 362.167040
     47     50     51     1   109.5900471 362.167040
     47     50     52     1   109.5900471 362.167040
     46     47     48     1   110.3400472 470.281600
     46     47     49     1   110.3400472 470.281600
     45     43     46     1   110.3400472 470.281600
     44     43     45     1   108.5500468 298.235520
     44     43     46     1   110.3400472 470.281600
     42     40     43     1   109.5900471 362.167040
     41     40     42     1   108.5500468 298.235520
     41     40     43     1   109.5900471 362.167040
     40     43     44     1   109.5900471 362.167040
     40     43     45     1   109.5900471 362.167040
     39     40     41     1   110.3400472 470.281600
     39     40     42     1   110.3400472 470.281600
     38     36     39     1   110.3400472 470.281600
     37     36     38     1   108.5500468 298.235520
     37     36     39     1   110.3400472 470.281600
    105    103    106     1   109.5900471 362.167040
    104    103    105     1   108.5500468 298.235520
    104    103    106     1   109.5900471 362.167040
    103    106    107     1   109.5900471 362.167040
    103    106    108     1   109.5900471 362.167040
    102    103    104     1   110.3400472 470.281600
    102    103    105     1   110.3400472 470.281600
    101     99    102     1   110.3400472 470.281600
    100     99    101     1   108.5500468 298.235520
    100     99    102     1   110.3400472 470.281600
     98     96     99     1   109.5900471 362.167040
     97     96     98     1   108.5500468 298.235520
     97     96     99     1   109.5900471 362.167040
     96     99    100     1   109.5900471 362.167040
     96     99    101     1   109.5900471 362.167040
     95     96     97     1   110.3400472 470.281600
     95     96     98     1   110.3400472 470.281600
     94     92     95     1   110.3400472 470.281600
     93     92     94     1   108.5500468 298.235520
     93     92     95     1   110.3400472 470.281600
     91     89     92     1   109.5900471 362.167040
     90     89     91     1   108.5500468 298.235520
     90     89     92     1   109.5900471 362.167040
     89     92     93     1   109.5900471 362.167040
     89     92     94     1   109.5900471 362.167040
     88     89     90     1   110.3400472 470.281600
     88     89     91     1   110.3400472 470.281600
     87     85     88     1   110.3400472 470.281600
     86     85     87     1   108.5500468 298.235520
     86     85     88     1   110.3400472 470.281600
     84     82     85     1   109.5900471 362.167040
     83     82     84     1   108.5500468 298.235520
     83     82     85     1   109.5900471 362.167040
     82     85     86     1   109.5900471 362.167040
     82     85     87     1   109.5900471 362.167040
     81     82     83     1   110.3400472 470.281600
     81     82     84     1   110.3400472 470.281600
     80     78     81     1   110.3400472 470.281600
     79     78     80     1   108.5500468 298.235520
     79     78     81     1   110.3400472 470.281600
     77     75     78     1   109.5900471 362.167040
     76     75     77     1   108.5500468 298.235520
     76     75     78     1   109.5900471 362.167040
     75     78     79     1   109.5900471 362.167040
     75     78     80     1   109.5900471 362.167040
     74     75     76     1   110.3400472 470.281600
     74     75     77     1   110.3400472 470.281600
     73     71     74     1   110.3400472 470.281600
     72     71     73     1   108.5500468 298.235520
     72     71     74     1   110.3400472 470.281600
    140    138    141     1   109.5900471 362.167040
    139    138    140     1   108.5500468 298.235520
    139    138    141     1   109.5900471 362.167040
    138    141    142     1   109.5900471 362.167040
    138    141    143     1   109.5900471 362.167040
    137    138    139     1   110.3400472 470.281600
    137    138    140     1   110.3400472 470.281600
    136    134    137     1   110.3400472 470.281600
    135    134    136     1   108.5500468 298.235520
    135    134    137     1   110.3400472 470.281600
    133    131    134     1   109.5900471 362.167040
    132    131    133     1   108.5500468 298.235520
    132    131    134     1   109.5900471 362.167040
    131    134    135     1   109.5900471 362.167040
    131    134    136     1   109.5900471 362.167040
    130    131    132     1   110.3400472 470.281600
    130    131    133     1   110.3400472 470.281600
    129    127    130     1   110.3400472 470.281600
    128    127    129     1   108.5500468 298.235520
    128    127    130     1   110.3400472 470.281600
    126    124    127     1   109.5900471 362.167040
    125    124    126     1   108.5500468 298.235520
    125    124    127     1   109.5900471 362.167040
    124    127    128     1   109.5900471 362.167040
    124    127    129     1   109.5900471 362.167040
    123    124    125     1   110.3400472 470.281600
    123    124    126     1   110.3400472 470.281600
    122    120    123     1   110.3400472 470.281600
    121    120    122     1   108.5500468 298.235520
    121    120    123     1   110.3400472 470.281600
    119    117    120     1   109.5900471 362.167040
    118    117    119     1   108.5500468 298.235520
    118    117    120     1   109.5900471 362.167040
    117    120    121     1   109.5900471 362.167040
    117    120    122     1   109.5900471 362.167040
    116    117    118     1   110.3400472 470.281600
    116    117    119     1   110.3400472 470.281600
    115    113    116     1   110.3400472 470.281600
    114    113    115     1   108.5500468 298.235520
    114    113    116     1   110.3400472 470.281600
    112    110    113     1   109.5900471 362.167040
    111    110    112     1   108.5500468 298.235520
    111    110    113     1   109.5900471 362.167040
    110    113    114     1   109.5900471 362.167040
    110    113    115     1   109.5900471 362.167040
    109    110    111     1   110.3400472 470.281600
    109    110    112     1   110.3400472 470.281600
    108    106    109     1   110.3400472 470.281600
    107    106    108     1   108.5500468 298.235520
    107    106    109     1   110.3400472 470.281600
    175    173    176     1   109.5900471 362.167040
    174    173    175     1   108.5500468 298.235520
    174    173    176     1   109.5900471 362.167040
    173    176    177     1   109.5900471 362.167040
    173    176    178     1   109.5900471 362.167040
    172    173    174     1   110.3400472 470.281600
    172    173    175     1   110.3400472 470.281600
    171    169    172     1   110.3400472 470.281600
    170    169    171     1   108.5500468 298.235520
    170    169    172     1   110.3400472 470.281600
    168    166    169     1   109.5900471 362.167040
    167    166    168     1   108.5500468 298.235520
    167    166    169     1   109.5900471 362.167040
    166    169    170     1   109.5900471 362.167040
    166    169    171     1   109.5900471 362.167040
    165    166    167     1   110.3400472 470.281600
    165    166    168     1   110.3400472 470.281600
    164    162    165     1   110.3400472 470.281600
    163    162    164     1   108.5500468 298.235520
    163    162    165     1   110.3400472 470.281600
    161    159    162     1   109.5900471 362.167040
    160    159    161     1   108.5500468 298.235520
    160    159    162     1   109.5900471 362.167040
    159    162    163     1   109.5900471 362.167040
    159    162    164     1   109.5900471 362.167040
    158    159    160     1   110.3400472 470.281600
    158    159    161     1   110.3400472 470.281600
    157    155    158     1   110.3400472 470.281600
    156    155    157     1   108.5500468 298.235520
    156    155    158     1   110.3400472 470.281600
    154    152    155     1   109.5900471 362.167040
    153    152    154     1   108.5500468 298.235520
    153    152    155     1   109.5900471 362.167040
    152    155    156     1   109.5900471 362.167040
    152    155    157     1   109.5900471 362.167040
    151    152    153     1   110.3400472 470.281600
    151    152    154     1   110.3400472 470.281600
    150    148    151     1   110.3400472 470.281600
    149    148    150     1   108.5500468 298.235520
    149    148    151     1   110.3400472 470.281600
    147    145    148     1   109.5900471 362.167040
    146    145    147     1   108.5500468 298.235520
    146    145    148     1   109.5900471 362.167040
    145    148    149     1   109.5900471 362.167040
    145    148    150     1   109.5900471 362.167040
    144    145    146     1   110.3400472 470.281600
    144    145    147     1   110.3400472 470.281600
    143    141    144     1   110.3400472 470.281600
    142    141    143     1   108.5500468 298.235520
    142    141    144     1   110.3400472 470.281600
    203    201    204     1   109.6800468 362.083360
    202    201    203     1   107.7300462 299.574400
    202    201    204     1   109.6800468 362.083360
    201    204    205     1   109.5900471 362.167040
    201    204    206     1   109.5900471 362.167040
    200    198    201     1   109.6800468 362.083360
    199    198    200     1   107.7300462 299.574400
    199    198    201     1   109.6800468 362.083360
    198    201    202     1   109.6800468 362.083360
    198    201    203     1   109.6800468 362.083360
    197    195    198     1   109.5900471 362.167040
    196    195    197     1   108.5500468 298.235520
    196    195    198     1   109.5900471 362.167040
    195    198    199     1   109.6800468 362.083360
    195    198    200     1   109.6800468 362.083360
    194    195    196     1   110.3400472 470.281600
    194    195    197     1   110.3400472 470.281600
    190    189    191     1   119.8800511 375.723200
    188    187    189     1   119.8800511 375.723200
    187    189    190     1   119.8800511 375.723200
    185    184    191     1   119.8800511 375.723200
    184    183    186     1   119.8800511 375.723200
    183    184    185     1   119.8800511 375.723200
    182    183    186     1   119.8800511 375.723200
    182    187    188     1   119.8800511 375.723200
    178    176    179     1   110.3400472 470.281600
    177    176    178     1   108.5500468 298.235520
    177    176    179     1   110.3400472 470.281600
    231    229    232     1   109.6800468 362.083360
    230    229    231     1   107.7300462 299.574400
    230    229    232     1   109.6800468 362.083360
    229    232    233     1   109.5900471 362.167040
    229    232    234     1   109.5900471 362.167040
    228    226    229     1   109.6800468 362.083360
    227    226    228     1   107.7300462 299.574400
    227    226    229     1   109.6800468 362.083360
    226    229    230     1   109.6800468 362.083360
    226    229    231     1   109.6800468 362.083360
    225    223    226     1   109.5900471 362.167040
    224    223    225     1   108.5500468 298.235520
    224    223    226     1   109.5900471 362.167040
    223    226    227     1   109.6800468 362.083360
    223    226    228     1   109.6800468 362.083360
    222    223    224     1   110.3400472 470.281600
    222    223    225     1   110.3400472 470.281600
    218    217    219     1   119.8800511 375.723200
    216    215    217     1   119.8800511 375.723200
    215    217    218     1   119.8800511 375.723200
    213    212    219     1   119.8800511 375.723200
    212    211    214     1   119.8800511 375.723200
    211    212    213     1   119.8800511 375.723200
    210    211    214     1   119.8800511 375.723200
    210    215    216     1   119.8800511 375.723200
    206    204    207     1   110.3400472 470.281600
    205    204    206     1   108.5500468 298.235520
    205    204    207     1   110.3400472 470.281600
    259    257    260     1   109.6800468 362.083360
    258    257    259     1   107.7300462 299.574400
    258    257    260     1   109.6800468 362.083360
    257    260    261     1   109.5900471 362.167040
    257    260    262     1   109.5900471 362.167040
    256    254    257     1   109.6800468 362.083360
    255    254    256     1   107.7300462 299.574400
    255    254    257     1   109.6800468 362.083360
    254    257    258     1   109.6800468 362.083360
    254    257    259     1   109.6800468 362.083360
    253    251    254     1   109.5900471 362.167040
    252    251    253     1   108.5500468 298.235520
    252    251    254     1   109.5900471 362.167040
    251    254    255     1   109.6800468 362.083360
    251    254    256     1   109.6800468 362.083360
    250    251    252     1   110.3400472 470.281600
    250    251    253     1   110.3400472 470.281600
    246    245    247     1   119.8800511 375.723200
    244    243    245     1   119.8800511 375.723200
    243    245    246     1   119.8800511 375.723200
    241    240    247     1   119.8800511 375.723200
    240    239    242     1   119.8800511 375.723200
    239    240    241     1   119.8800511 375.723200
    238    239    242     1   119.8800511 375.723200
    238    243    244     1   119.8800511 375.723200
    234    232    235     1   110.3400472 470.281600
    233    232    234     1   108.5500468 298.235520
    233    232    235     1   110.3400472 470.281600
    287    285    288     1   109.6800468 362.083360
    286    285    287     1   107.7300462 299.574400
    286    285    288     1   109.6800468 362.083360
    285    288    289     1   109.5900471 362.167040
    285    288    290     1   109.5900471 362.167040
    284    282    285     1   109.6800468 362.083360
    283    282    284     1   107.7300462 299.574400
    283    282    285     1   109.6800468 362.083360
    282    285    286     1   109.6800468 362.083360
    282    285    287     1   109.6800468 362.083360
    281    279    282     1   109.5900471 362.167040
    280    279    281     1   108.5500468 298.235520
    280    279    282     1   109.5900471 362.167040
    279    282    283     1   109.6800468 362.083360
    279    282    284     1   109.6800468 362.083360
    278    279    280     1   110.3400472 470.281600
    278    279    281     1   110.3400472 470.281600
    274    273    275     1   119.8800511 375.723200
    272    271    273     1   119.8800511 375.723200
    271    273    274     1   119.8800511 375.723200
    269    268    275     1   119.8800511 375.723200
    268    267    270     1   119.8800511 375.723200
    267    268    269     1   119.8800511 375.723200
    266    267    270     1   119.8800511 375.723200
    266    271    272     1   119.8800511 375.723200
    262    260    263     1   110.3400472 470.281600
    261    260    262     1   108.5500468 298.235520
    261    260    263     1   110.3400472 470.281600
    315    313    316     1   109.6800468 362.083360
    314    313    315     1   107.7300462 299.574400
    314    313    316     1   109.6800468 362.083360
    313    316    317     1   109.5900471 362.167040
    313    316    318     1   109.5900471 362.167040
    312    310    313     1   109.6800468 362.083360
    311    310    312     1   107.7300462 299.574400
    311    310    313     1   109.6800468 362.083360
    310    313    314     1   109.6800468 362.083360
    310    313    315     1   109.6800468 362.083360
    309    307    310     1   109.5900471 362.167040
    308    307    309     1   108.5500468 298.235520
    308    307    310     1   109.5900471 362.167040
    307    310    311     1   109.6800468 362.083360
    307    310    312     1   109.6800468 362.083360
    306    307    308     1   110.3400472 470.281600
    306    307    309     1   110.3400472 470.281600
    302    301    303     1   119.8800511 375.723200
    300    299    301     1   119.8800511 375.723200
    299    301    302     1   119.8800511 375.723200
    297    296    303     1   119.8800511 375.723200
    296    295    298     1   119.8800511 375.723200
    295    296    297     1   119.8800511 375.723200
    294    295    298     1   119.8800511 375.723200
    294    299    300     1   119.8800511 375.723200
    290    288    291     1   110.3400472 470.281600
    289    288    290     1   108.5500468 298.235520
    289    288    291     1   110.3400472 470.281600
    343    341    344     1   109.6800468 362.083360
    342    341    343     1   107.7300462 299.574400
    342    341    344     1   109.6800468 362.083360
    341    344    345     1   109.5900471 362.167040
    341    344    346     1   109.5900471 362.167040
    340    338    341     1   109.6800468 362.083360
    339    338    340     1   107.7300462 299.574400
    339    338    341     1   109.6800468 362.083360
    338    341    342     1   109.6800468 362.083360
    338    341    343     1   109.6800468 362.083360
    337    335    338     1   109.5900471 362.167040
    336    335    337     1   108.5500468 298.235520
    336    335    338     1   109.5900471 362.167040
    335    338    339     1   109.6800468 362.083360
    335    338    340     1   109.6800468 362.083360
    334    335    336     1   110.3400472 470.281600
    334    335    337     1   110.3400472 470.281600
    330    329    331     1   119.8800511 375.723200
    328    327    329     1   119.8800511 375.723200
    327    329    330     1   119.8800511 375.723200
    325    324    331     1   119.8800511 375.723200
    324    323    326     1   119.8800511 375.723200
    323    324    325     1   119.8800511 375.723200
    322    323    326     1   119.8800511 375.723200
    322    327    328     1   119.8800511 375.723200
    318    316    319     1   110.3400472 470.281600
    317    316    318     1   108.5500468 298.235520
    317    316    319     1   110.3400472 470.281600
    371    369    372     1   109.6800468 362.083360
    370    369    371     1   107.7300462 299.574400
    370    369    372     1   109.6800468 362.083360
    369    372    373     1   109.5900471 362.167040
    369    372    374     1   109.5900471 362.167040
    368    366    369     1   109.6800468 362.083360
    367    366    368     1   107.7300462 299.574400
    367    366    369     1   109.6800468 362.083360
    366    369    370     1   109.6800468 362.083360
    366    369    371     1   109.6800468 362.083360
    365    363    366     1   109.5900471 362.167040
    364    363    365     1   108.5500468 298.235520
    364    363    366     1   109.5900471 362.167040
    363    366    367     1   109.6800468 362.083360
    363    366    368     1   109.6800468 362.083360
    362    363    364     1   110.3400472 470.281600
    362    363    365     1   110.3400472 470.281600
    358    357    359     1   119.8800511 375.723200
    356    355    357     1   119.8800511 375.723200
    355    357    358     1   119.8800511 375.723200
    353    352    359     1   119.8800511 375.723200
    352    351    354     1   119.8800511 375.723200
    351    352    353     1   119.8800511 375.723200
    350    351    354     1   119.8800511 375.723200
    350    355    356     1   119.8800511 375.723200
    346    344    347     1   110.3400472 470.281600
    345    344    346     1   108.5500468 298.235520
    345    344    347     1   110.3400472 470.281600
    399    397    400     1   109.6800468 362.083360
    398    397    399     1   107.7300462 299.574400
    398    397    400     1   109.6800468 362.083360
    397    400    401     1   109.5900471 362.167040
    397    400    402     1   109.5900471 362.167040
    396    394    397     1   109.6800468 362.083360
    395    394    396     1   107.7300462 299.574400
    395    394    397     1   109.6800468 362.083360
    394    397    398     1   109.6800468 362.083360
    394    397    399     1   109.6800468 362.083360
    393    391    394     1   109.5900471 362.167040
    392    391    393     1   108.5500468 298.235520
    392    391    394     1   109.5900471 362.167040
    391    394    395     1   109.6800468 362.083360
    391    394    396     1   109.6800468 362.083360
    390    391    392     1   110.3400472 470.281600
    390    391    393     1   110.3400472 470.281600
    386    385    387     1   119.8800511 375.723200
    384    383    385     1   119.8800511 375.723200
    383    385    386     1   119.8800511 375.723200
    381    380    387     1   119.8800511 375.723200
    380    379    382     1   119.8800511 375.723200
    379    380    381     1   119.8800511 375.723200
    378    379    382     1   119.8800511 375.723200
    378    383    384     1   119.8800511 375.723200
    374    372    375     1   110.3400472 470.281600
    373    372    374     1   108.5500468 298.235520
    373    372    375     1   110.3400472 470.281600
    427    425    428     1   109.6800468 362.083360
    426    425    427     1   107.7300462 299.574400
    426    425    428     1   109.6800468 362.083360
    425    428    429     1   109.5900471 362.167040
    425    428    430     1   109.5900471 362.167040
    424    422    425     1   109.6800468 362.083360
    423    422    424     1   107.7300462 299.574400
    423    422    425     1   109.6800468 362.083360
    422    425    426     1   109.6800468 362.083360
    422    425    427     1   109.6800468 362.083360
    421    419    422     1   109.5900471 362.167040
    420    419    421     1   108.5500468 298.235520
    420    419    422     1   109.5900471 362.167040
    419    422    423     1   109.6800468 362.083360
    419    422    424     1   109.6800468 362.083360
    418    419    420     1   110.3400472 470.281600
    418    419    421     1   110.3400472 470.281600
    414    413    415     1   119.8800511 375.723200
    412    411    413     1   119.8800511 375.723200
    411    413    414     1   119.8800511 375.723200
    409    408    415     1   119.8800511 375.723200
    408    407    410     1   119.8800511 375.723200
    407    408    409     1   119.8800511 375.723200
    406    407    410     1   119.8800511 375.723200
    406    411    412     1   119.8800511 375.723200
    402    400    403     1   110.3400472 470.281600
    401    400    402     1   108.5500468 298.235520
    401    400    403     1   110.3400472 470.281600
    455    453    456     1   109.6800468 362.083360
    454    453    455     1   107.7300462 299.574400
    454    453    456     1   109.6800468 362.083360
    453    456    457     1   109.5900471 362.167040
    453    456    458     1   109.5900471 362.167040
    452    450    453     1   109.6800468 362.083360
    451    450    452     1   107.7300462 299.574400
    451    450    453     1   109.6800468 362.083360
    450    453    454     1   109.6800468 362.083360
    450    453    455     1   109.6800468 362.083360
    449    447    450     1   109.5900471 362.167040
    448    447    449     1   108.5500468 298.235520
    448    447    450     1   109.5900471 362.167040
    447    450    451     1   109.6800468 362.083360
    447    450    452     1   109.6800468 362.083360
    446    447    448     1   110.3400472 470.281600
    446    447    449     1   110.3400472 470.281600
    442    441    443     1   119.8800511 375.723200
    440    439    441     1   119.8800511 375.723200
    439    441    442     1   119.8800511 375.723200
    437    436    443     1   119.8800511 375.723200
    436    435    438     1   119.8800511 375.723200
    435    436    437     1   119.8800511 375.723200
    434    435    438     1   119.8800511 375.723200
    434    439    440     1   119.8800511 375.723200
    430    428    431     1   110.3400472 470.281600
    429    428    430     1   108.5500468 298.235520
    429    428    431     1   110.3400472 470.281600
    483    481    484     1   109.6800468 362.083360
    482    481    483     1   107.7300462 299.574400
    482    481    484     1   109.6800468 362.083360
    481    484    485     1   109.5900471 362.167040
    481    484    486     1   109.5900471 362.167040
    480    478    481     1   109.6800468 362.083360
    479    478    480     1   107.7300462 299.574400
    479    478    481     1   109.6800468 362.083360
    478    481    482     1   109.6800468 362.083360
    478    481    483     1   109.6800468 362.083360
    477    475    478     1   109.5900471 362.167040
    476    475    477     1   108.5500468 298.235520
    476    475    478     1   109.5900471 362.167040
    475    478    479     1   109.6800468 362.083360
    475    478    480     1   109.6800468 362.083360
    474    475    476     1   110.3400472 470.281600
    474    475    477     1   110.3400472 470.281600
    470    469    471     1   119.8800511 375.723200
    468    467    469     1   119.8800511 375.723200
    467    469    470     1   119.8800511 375.723200
    465    464    471     1   119.8800511 375.723200
    464    463    466     1   119.8800511 375.723200
    463    464    465     1   119.8800511 375.723200
    462    463    466     1   119.8800511 375.723200
    462    467    468     1   119.8800511 375.723200
    458    456    459     1   110.3400472 470.281600
    457    456    458     1   108.5500468 298.235520
    457    456    459     1   110.3400472 470.281600
    511    509    512     1   109.6800468 362.083360
    510    509    511     1   107.7300462 299.574400
    510    509    512     1   109.6800468 362.083360
    509    512    513     1   109.5900471 362.167040
    509    512    514     1   109.5900471 362.167040
    508    506    509     1   109.6800468 362.083360
    507    506    508     1   107.7300462 299.574400
    507    506    509     1   109.6800468 362.083360
    506    509    510     1   109.6800468 362.083360
    506    509    511     1   109.6800468 362.083360
    505    503    506     1   109.5900471 362.167040
    504    503    505     1   108.5500468 298.235520
    504    503    506     1   109.5900471 362.167040
    503    506    507     1   109.6800468 362.083360
    503    506    508     1   109.6800468 362.083360
    502    503    504     1   110.3400472 470.281600
    502    503    505     1   110.3400472 470.281600
    498    497    499     1   119.8800511 375.723200
    496    495    497     1   119.8800511 375.723200
    495    497    498     1   119.8800511 375.723200
    493    492    499     1   119.8800511 375.723200
    492    491    494     1   119.8800511 375.723200
    491    492    493     1   119.8800511 375.723200
    490    491    494     1   119.8800511 375.723200
    490    495    496     1   119.8800511 375.723200
    486    484    487     1   110.3400472 470.281600
    485    484    486     1   108.5500468 298.235520
    485    484    487     1   110.3400472 470.281600
    539    537    540     1   109.6800468 362.083360
    538    537    539     1   107.7300462 299.574400
    538    537    540     1   109.6800468 362.083360
    537    540    541     1   109.5900471 362.167040
    537    540    542     1   109.5900471 362.167040
    536    534    537     1   109.6800468 362.083360
    535    534    536     1   107.7300462 299.574400
    535    534    537     1   109.6800468 362.083360
    534    537    538     1   109.6800468 362.083360
    534    537    539     1   109.6800468 362.083360
    533    531    534     1   109.5900471 362.167040
    532    531    533     1   108.5500468 298.235520
    532    531    534     1   109.5900471 362.167040
    531    534    535     1   109.6800468 362.083360
    531    534    536     1   109.6800468 362.083360
    530    531    532     1   110.3400472 470.281600
    530    531    533     1   110.3400472 470.281600
    526    525    527     1   119.8800511 375.723200
    524    523    525     1   119.8800511 375.723200
    523    525    526     1   119.8800511 375.723200
    521    520    527     1   119.8800511 375.723200
    520    519    522     1   119.8800511 375.723200
    519    520    521     1   119.8800511 375.723200
    518    519    522     1   119.8800511 375.723200
    518    523    524     1   119.8800511 375.723200
    514    512    515     1   110.3400472 470.281600
    513    512    514     1   108.5500468 298.235520
    513    512    515     1   110.3400472 470.281600
    567    565    568     1   109.6800468 362.083360
    566    565    567     1   107.7300462 299.574400
    566    565    568     1   109.6800468 362.083360
    565    568    569     1   109.5900471 362.167040
    565    568    570     1   109.5900471 362.167040
    564    562    565     1   109.6800468 362.083360
    563    562    564     1   107.7300462 299.574400
    563    562    565     1   109.6800468 362.083360
    562    565    566     1   109.6800468 362.083360
    562    565    567     1   109.6800468 362.083360
    561    559    562     1   109.5900471 362.167040
    560    559    561     1   108.5500468 298.235520
    560    559    562     1   109.5900471 362.167040
    559    562    563     1   109.6800468 362.083360
    559    562    564     1   109.6800468 362.083360
    558    559    560     1   110.3400472 470.281600
    558    559    561     1   110.3400472 470.281600
    554    553    555     1   119.8800511 375.723200
    552    551    553     1   119.8800511 375.723200
    551    553    554     1   119.8800511 375.723200
    549    548    555     1   119.8800511 375.723200
    548    547    550     1   119.8800511 375.723200
    547    548    549     1   119.8800511 375.723200
    546    547    550     1   119.8800511 375.723200
    546    551    552     1   119.8800511 375.723200
    542    540    543     1   110.3400472 470.281600
    541    540    542     1   108.5500468 298.235520
    541    540    543     1   110.3400472 470.281600
    595    593    596     1   109.6800468 362.083360
    594    593    595     1   107.7300462 299.574400
    594    593    596     1   109.6800468 362.083360
    593    596    597     1   109.5900471 362.167040
    593    596    598     1   109.5900471 362.167040
    592    590    593     1   109.6800468 362.083360
    591    590    592     1   107.7300462 299.574400
    591    590    593     1   109.6800468 362.083360
    590    593    594     1   109.6800468 362.083360
    590    593    595     1   109.6800468 362.083360
    589    587    590     1   109.5900471 362.167040
    588    587    589     1   108.5500468 298.235520
    588    587    590     1   109.5900471 362.167040
    587    590    591     1   109.6800468 362.083360
    587    590    592     1   109.6800468 362.083360
    586    587    588     1   110.3400472 470.281600
    586    587    589     1   110.3400472 470.281600
    582    581    583     1   119.8800511 375.723200
    580    579    581     1   119.8800511 375.723200
    579    581    582     1   119.8800511 375.723200
    577    576    583     1   119.8800511 375.723200
    576    575    578     1   119.8800511 375.723200
    575    576    577     1   119.8800511 375.723200
    574    575    578     1   119.8800511 375.723200
    574    579    580     1   119.8800511 375.723200
    570    568    571     1   110.3400472 470.281600
    569    568    570     1   108.5500468 298.235520
    569    568    571     1   110.3400472 470.281600
    623    621    624     1   109.6800468 362.083360
    622    621    623     1   107.7300462 299.574400
    622    621    624     1   109.6800468 362.083360
    621    624    625     1   109.5900471 362.167040
    621    624    626     1   109.5900471 362.167040
    620    618    621     1   109.6800468 362.083360
    619    618    620     1   107.7300462 299.574400
    619    618    621     1   109.6800468 362.083360
    618    621    622     1   109.6800468 362.083360
    618    621    623     1   109.6800468 362.083360
    617    615    618     1   109.5900471 362.167040
    616    615    617     1   108.5500468 298.235520
    616    615    618     1   109.5900471 362.167040
    615    618    619     1   109.6800468 362.083360
    615    618    620     1   109.6800468 362.083360
    614    615    616     1   110.3400472 470.281600
    614    615    617     1   110.3400472 470.281600
    610    609    611     1   119.8800511 375.723200
    608    607    609     1   119.8800511 375.723200
    607    609    610     1   119.8800511 375.723200
    605    604    611     1   119.8800511 375.723200
    604    603    606     1   119.8800511 375.723200
    603    604    605     1   119.8800511 375.723200
    602    603    606     1   119.8800511 375.723200
    602    607    608     1   119.8800511 375.723200
    598    596    599     1   110.3400472 470.281600
    597    596    598     1   108.5500468 298.235520
    597    596    599     1   110.3400472 470.281600
    651    649    652     1   109.6800468 362.083360
    650    649    651     1   107.7300462 299.574400
    650    649    652     1   109.6800468 362.083360
    649    652    653     1   109.5900471 362.167040
    649    652    654     1   109.5900471 362.167040
    648    646    649     1   109.6800468 362.083360
    647    646    648     1   107.7300462 299.574400
    647    646    649     1   109.6800468 362.083360
    646    649    650     1   109.6800468 362.083360
    646    649    651     1   109.6800468 362.083360
    645    643    646     1   109.5900471 362.167040
    644    643    645     1   108.5500468 298.235520
    644    643    646     1   109.5900471 362.167040
    643    646    647     1   109.6800468 362.083360
    643    646    648     1   109.6800468 362.083360
    642    643    644     1   110.3400472 470.281600
    642    643    645     1   110.3400472 470.281600
    638    637    639     1   119.8800511 375.723200
    636    635    637     1   119.8800511 375.723200
    635    637    638     1   119.8800511 375.723200
    633    632    639     1   119.8800511 375.723200
    632    631    634     1   119.8800511 375.723200
    631    632    633     1   119.8800511 375.723200
    630    631    634     1   119.8800511 375.723200
    630    635    636     1   119.8800511 375.723200
    626    624    627     1   110.3400472 470.281600
    625    624    626     1   108.5500468 298.235520
    625    624    627     1   110.3400472 470.281600
    679    677    680     1   109.6800468 362.083360
    678    677    679     1   107.7300462 299.574400
    678    677    680     1   109.6800468 362.083360
    677    680    681     1   109.5900471 362.167040
    677    680    682     1   109.5900471 362.167040
    676    674    677     1   109.6800468 362.083360
    675    674    676     1   107.7300462 299.574400
    675    674    677     1   109.6800468 362.083360
    674    677    678     1   109.6800468 362.083360
    674    677    679     1   109.6800468 362.083360
    673    671    674     1   109.5900471 362.167040
    672    671    673     1   108.5500468 298.235520
    672    671    674     1   109.5900471 362.167040
    671    674    675     1   109.6800468 362.083360
    671    674    676     1   109.6800468 362.083360
    670    671    672     1   110.3400472 470.281600
    670    671    673     1   110.3400472 470.281600
    666    665    667     1   119.8800511 375.723200
    664    663    665     1   119.8800511 375.723200
    663    665    666     1   119.8800511 375.723200
    661    660    667     1   119.8800511 375.723200
    660    659    662     1   119.8800511 375.723200
    659    660    661     1   119.8800511 375.723200
    658    659    662     1   119.8800511 375.723200
    658    663    664     1   119.8800511 375.723200
    654    652    655     1   110.3400472 470.281600
    653    652    654     1   108.5500468 298.235520
    653    652    655     1   110.3400472 470.281600
    707    705    708     1   109.6800468 362.083360
    706    705    707     1   107.7300462 299.574400
    706    705    708     1   109.6800468 362.083360
    705    708    709     1   109.5900471 362.167040
    705    708    710     1   109.5900471 362.167040
    704    702    705     1   109.6800468 362.083360
    703    702    704     1   107.7300462 299.574400
    703    702    705     1   109.6800468 362.083360
    702    705    706     1   109.6800468 362.083360
    702    705    707     1   109.6800468 362.083360
    701    699    702     1   109.5900471 362.167040
    700    699    701     1   108.5500468 298.235520
    700    699    702     1   109.5900471 362.167040
    699    702    703     1   109.6800468 362.083360
    699    702    704     1   109.6800468 362.083360
    698    699    700     1   110.3400472 470.281600
    698    699    701     1   110.3400472 470.281600
    694    693    695     1   119.8800511 375.723200
    692    691    693     1   119.8800511 375.723200
    691    693    694     1   119.8800511 375.723200
    689    688    695     1   119.8800511 375.723200
    688    687    690     1   119.8800511 375.723200
    687    688    689     1   119.8800511 375.723200
    686    687    690     1   119.8800511 375.723200
    686    691    692     1   119.8800511 375.723200
    682    680    683     1   110.3400472 470.281600
    681    680    682     1   108.5500468 298.235520
    681    680    683     1   110.3400472 470.281600
    735    733    736     1   109.6800468 362.083360
    734    733    735     1   107.7300462 299.574400
    734    733    736     1   109.6800468 362.083360
    733    736    737     1   109.5900471 362.167040
    733    736    738     1   109.5900471 362.167040
    732    730    733     1   109.6800468 362.083360
    731    730    732     1   107.7300462 299.574400
    731    730    733     1   109.6800468 362.083360
    730    733    734     1   109.6800468 362.083360
    730    733    735     1   109.6800468 362.083360
    729    727    730     1   109.5900471 362.167040
    728    727    729     1   108.5500468 298.235520
    728    727    730     1   109.5900471 362.167040
    727    730    731     1   109.6800468 362.083360
    727    730    732     1   109.6800468 362.083360
    726    727    728     1   110.3400472 470.281600
    726    727    729     1   110.3400472 470.281600
    722    721    723     1   119.8800511 375.723200
    720    719    721     1   119.8800511 375.723200
    719    721    722     1   119.8800511 375.723200
    717    716    723     1   119.8800511 375.723200
    716    715    718     1   119.8800511 375.723200
    715    716    717     1   119.8800511 375.723200
    714    715    718     1   119.8800511 375.723200
    714    719    720     1   119.8800511 375.723200
    710    708    711     1   110.3400472 470.281600
    709    708    710     1   108.5500468 298.235520
    709    708    711     1   110.3400472 470.281600
    763    761    764     1   109.6800468 362.083360
    762    761    763     1   107.7300462 299.574400
    762    761    764     1   109.6800468 362.083360
    761    764    765     1   109.5900471 362.167040
    761    764    766     1   109.5900471 362.167040
    760    758    761     1   109.6800468 362.083360
    759    758    760     1   107.7300462 299.574400
    759    758    761     1   109.6800468 362.083360
    758    761    762     1   109.6800468 362.083360
    758    761    763     1   109.6800468 362.083360
    757    755    758     1   109.5900471 362.167040
    756    755    757     1   108.5500468 298.235520
    756    755    758     1   109.5900471 362.167040
    755    758    759     1   109.6800468 362.083360
    755    758    760     1   109.6800468 362.083360
    754    755    756     1   110.3400472 470.281600
    754    755    757     1   110.3400472 470.281600
    750    749    751     1   119.8800511 375.723200
    748    747    749     1   119.8800511 375.723200
    747    749    750     1   119.8800511 375.723200
    745    744    751     1   119.8800511 375.723200
    744    743    746     1   119.8800511 375.723200
    743    744    745     1   119.8800511 375.723200
    742    743    746     1   119.8800511 375.723200
    742    747    748     1   119.8800511 375.723200
    738    736    739     1   110.3400472 470.281600
    737    736    738     1   108.5500468 298.235520
    737    736    739     1   110.3400472 470.281600
    791    789    792     1   109.6800468 362.083360
    790    789    791     1   107.7300462 299.574400
    790    789    792     1   109.6800468 362.083360
    789    792    793     1   109.5900471 362.167040
    789    792    794     1   109.5900471 362.167040
    788    786    789     1   109.6800468 362.083360
    787    786    788     1   107.7300462 299.574400
    787    786    789     1   109.6800468 362.083360
    786    789    790     1   109.6800468 362.083360
    786    789    791     1   109.6800468 362.083360
    785    783    786     1   109.5900471 362.167040
    784    783    785     1   108.5500468 298.235520
    784    783    786     1   109.5900471 362.167040
    783    786    787     1   109.6800468 362.083360
    783    786    788     1   109.6800468 362.083360
    782    783    784     1   110.3400472 470.281600
    782    783    785     1   110.3400472 470.281600
    778    777    779     1   119.8800511 375.723200
    776    775    777     1   119.8800511 375.723200
    775    777    778     1   119.8800511 375.723200
    773    772    779     1   119.8800511 375.723200
    772    771    774     1   119.8800511 375.723200
    771    772    773     1   119.8800511 375.723200
    770    771    774     1   119.8800511 375.723200
    770    775    776     1   119.8800511 375.723200
    766    764    767     1   110.3400472 470.281600
    765    764    766     1   108.5500468 298.235520
    765    764    767     1   110.3400472 470.281600
    819    817    820     1   109.6800468 362.083360
    818    817    819     1   107.7300462 299.574400
    818    817    820     1   109.6800468 362.083360
    817    820    821     1   109.5900471 362.167040
    817    820    822     1   109.5900471 362.167040
    816    814    817     1   109.6800468 362.083360
    815    814    816     1   107.7300462 299.574400
    815    814    817     1   109.6800468 362.083360
    814    817    818     1   109.6800468 362.083360
    814    817    819     1   109.6800468 362.083360
    813    811    814     1   109.5900471 362.167040
    812    811    813     1   108.5500468 298.235520
    812    811    814     1   109.5900471 362.167040
    811    814    815     1   109.6800468 362.083360
    811    814    816     1   109.6800468 362.083360
    810    811    812     1   110.3400472 470.281600
    810    811    813     1   110.3400472 470.281600
    806    805    807     1   119.8800511 375.723200
    804    803    805     1   119.8800511 375.723200
    803    805    806     1   119.8800511 375.723200
    801    800    807     1   119.8800511 375.723200
    800    799    802     1   119.8800511 375.723200
    799    800    801     1   119.8800511 375.723200
    798    799    802     1   119.8800511 375.723200
    798    803    804     1   119.8800511 375.723200
    794    792    795     1   110.3400472 470.281600
    793    792    794     1   108.5500468 298.235520
    793    792    795     1   110.3400472 470.281600
    847    845    848     1   109.6800468 362.083360
    846    845    847     1   107.7300462 299.574400
    846    845    848     1   109.6800468 362.083360
    845    848    849     1   109.5900471 362.167040
    845    848    850     1   109.5900471 362.167040
    844    842    845     1   109.6800468 362.083360
    843    842    844     1   107.7300462 299.574400
    843    842    845     1   109.6800468 362.083360
    842    845    846     1   109.6800468 362.083360
    842    845    847     1   109.6800468 362.083360
    841    839    842     1   109.5900471 362.167040
    840    839    841     1   108.5500468 298.235520
    840    839    842     1   109.5900471 362.167040
    839    842    843     1   109.6800468 362.083360
    839    842    844     1   109.6800468 362.083360
    838    839    840     1   110.3400472 470.281600
    838    839    841     1   110.3400472 470.281600
    834    833    835     1   119.8800511 375.723200
    832    831    833     1   119.8800511 375.723200
    831    833    834     1   119.8800511 375.723200
    829    828    835     1   119.8800511 375.723200
    828    827    830     1   119.8800511 375.723200
    827    828    829     1   119.8800511 375.723200
    826    827    830     1   119.8800511 375.723200
    826    831    832     1   119.8800511 375.723200
    822    820    823     1   110.3400472 470.281600
    821    820    822     1   108.5500468 298.235520
    821    820    823     1   110.3400472 470.281600
    874    873    875     1   107.7300462 299.574400
    872    870    873     1   109.6800468 362.083360
    871    870    872     1   107.7300462 299.574400
    871    870    873     1   109.6800468 362.083360
    870    873    874     1   109.6800468 362.083360
    870    873    875     1   109.6800468 362.083360
    869    867    870     1   109.5900471 362.167040
    868    867    869     1   108.5500468 298.235520
    868    867    870     1   109.5900471 362.167040
    867    870    871     1   109.6800468 362.083360
    867    870    872     1   109.6800468 362.083360
    866    867    868     1   110.3400472 470.281600
    866    867    869     1   110.3400472 470.281600
    862    861    863     1   119.8800511 375.723200
    860    859    861     1   119.8800511 375.723200
    859    861    862     1   119.8800511 375.723200
    857    856    863     1   119.8800511 375.723200
    856    855    858     1   119.8800511 375.723200
    855    856    857     1   119.8800511 375.723200
    854    855    858     1   119.8800511 375.723200
    854    859    860     1   119.8800511 375.723200
    850    848    851     1   110.3400472 470.281600
    849    848    850     1   108.5500468 298.235520
    849    848    851     1   110.3400472 470.281600

[ dihedrals ]
;    ai     aj     ak     al funct         c0         c1         c2         c3         c4         c5
     33     36     39     40     1  180.0000771  3.6819200  1
     33     36     39     40     1  0.0000000  0.3347200  2
     33     36     39     40     1  0.0000000  3.1380000  3
     32     33     36     39     1  0.0000000  0.7531200  1
     32     33     36     39     1  0.0000000  3.7656000  2
     32     33     36     39     1  0.0000000  2.0920000  3
     29     32     33     36     1  180.0000771  3.6819200  1
     29     32     33     36     1  0.0000000  0.3347200  2
     29     32     33     36     1  0.0000000  3.1380000  3
     26     29     32     33     1  180.0000771  3.6819200  1
     26     29     32     33     1  0.0000000  0.3347200  2
     26     29     32     33     1  0.0000000  3.1380000  3
     25     26     29     32     1  0.0000000  0.7531200  1
     25     26     29     32     1  0.0000000  3.7656000  2
     25     26     29     32     1  0.0000000  2.0920000  3
     22     25     26     29     1  180.0000771  3.6819200  1
     22     25     26     29     1  0.0000000  0.3347200  2
     22     25     26     29     1  0.0000000  3.1380000  3
     19     22     25     26     1  180.0000771  3.6819200  1
     19     22     25     26     1  0.0000000  0.3347200  2
     19     22     25     26     1  0.0000000  3.1380000  3
     18     19     22     25     1  0.0000000  0.7531200  1
     18     19     22     25     1  0.0000000  3.7656000  2
     18     19     22     25     1  0.0000000  2.0920000  3
     15     18     19     22     1  180.0000771  3.6819200  1
     15     18     19     22     1  0.0000000  0.3347200  2
     15     18     19     22     1  0.0000000  3.1380000  3
     12     15     18     19     1  180.0000771  3.6819200  1
     12     15     18     19     1  0.0000000  0.3347200  2
     12     15     18     19     1  0.0000000  3.1380000  3
     11     12     15     18     1  0.0000000  0.7531200  1
     11     12     15     18     1  0.0000000  3.7656000  2
     11     12     15     18     1  0.0000000  2.0920000  3
      8     11     12     15     1  180.0000771  3.6819200  1
      8     11     12     15     1  0.0000000  0.3347200  2
      8     11     12     15     1  0.0000000  3.1380000  3
      5      8     11     12     1  180.0000771  3.6819200  1
      5      8     11     12     1  0.0000000  0.3347200  2
      5      8     11     12     1  0.0000000  3.1380000  3
      4      5      8     11     1  0.0000000  0.7531200  1
      4      5      8     11     1  0.0000000  3.7656000  2
      4      5      8     11     1  0.0000000  2.0920000  3
      1      4      5      8     1  180.0000771  3.6819200  1
      1      4      5      8     1  0.0000000  0.3347200  2
      1      4      5      8     1  0.0000000  3.1380000  3
     68     71     74     75     1  180.0000771  3.6819200  1
     68     71     74     75     1  0.0000000  0.3347200  2
     68     71     74     75     1  0.0000000  3.1380000  3
     67     68     71     74     1  0.0000000  0.7531200  1
     67     68     71     74     1  0.0000000  3.7656000  2
     67     68     71     74     1  0.0000000  2.0920000  3
     64     67     68     71     1  180.0000771  3.6819200  1
     64     67     68     71     1  0.0000000  0.3347200  2
     64     67     68     71     1  0.0000000  3.1380000  3
     61     64     67     68     1  180.0000771  3.6819200  1
     61     64     67     68     1  0.0000000  0.3347200  2
     61     64     67     68     1  0.0000000  3.1380000  3
     60     61     64     67     1  0.0000000  0.7531200  1
     60     61     64     67     1  0.0000000  3.7656000  2
     60     61     64     67     1  0.0000000  2.0920000  3
     57     60     61     64     1  180.0000771  3.6819200  1
     57     60     61     64     1  0.0000000  0.3347200  2
     57     60     61     64     1  0.0000000  3.1380000  3
     54     57     60     61     1  180.0000771  3.6819200  1
     54     57     60     61     1  0.0000000  0.3347200  2
     54     57     60     61     1  0.0000000  3.1380000  3
     53     54     57     60     1  0.0000000  0.7531200  1
     53     54     57     60     1  0.0000000  3.7656000  2
     53     54     57     60     1  0.0000000  2.0920000  3
     50     53     54     57     1  180.0000771  3.6819200  1
     50     53     54     57     1  0.0000000  0.3347200  2
     50     53     54     57     1  0.0000000  3.1380000  3
     47     50     53     54     1  180.0000771  3.6819200  1
     47     50     53     54     1  0.0000000  0.3347200  2
     47     50     53     54     1  0.0000000  3.1380000  3
     46     47     50     53     1  0.0000000  0.7531200  1
     46     47     50     53     1  0.0000000  3.7656000  2
     46     47     50     53     1  0.0000000  2.0920000  3
     43     46     47     50     1  180.0000771  3.6819200  1
     43     46     47     50     1  0.0000000  0.3347200  2
     43     46     47     50     1  0.0000000  3.1380000  3
     40     43     46     47     1  180.0000771  3.6819200  1
     40     43     46     47     1  0.0000000  0.3347200  2
     40     43     46     47     1  0.0000000  3.1380000  3
     39     40     43     46     1  0.0000000  0.7531200  1
     39     40     43     46     1  0.0000000  3.7656000  2
     39     40     43     46     1  0.0000000  2.0920000  3
     36     39     40     43     1  180.0000771  3.6819200  1
     36     39     40     43     1  0.0000000  0.3347200  2
     36     39     40     43     1  0.0000000  3.1380000  3
    103    106    109    110     1  180.0000771  3.6819200  1
    103    106    109    110     1  0.0000000  0.3347200  2
    103    106    109    110     1  0.0000000  3.1380000  3
    102    103    106    109     1  0.0000000  0.7531200  1
    102    103    106    109     1  0.0000000  3.7656000  2
    102    103    106    109     1  0.0000000  2.0920000  3
     99    102    103    106     1  180.0000771  3.6819200  1
     99    102    103    106     1  0.0000000  0.3347200  2
     99    102    103    106     1  0.0000000  3.1380000  3
     96     99    102    103     1  180.0000771  3.6819200  1
     96     99    102    103     1  0.0000000  0.3347200  2
     96     99    102    103     1  0.0000000  3.1380000  3
     95     96     99    102     1  0.0000000  0.7531200  1
     95     96     99    102     1  0.0000000  3.7656000  2
     95     96     99    102     1  0.0000000  2.0920000  3
     92     95     96     99     1  180.0000771  3.6819200  1
     92     95     96     99     1  0.0000000  0.3347200  2
     92     95     96     99     1  0.0000000  3.1380000  3
     89     92     95     96     1  180.0000771  3.6819200  1
     89     92     95     96     1  0.0000000  0.3347200  2
     89     92     95     96     1  0.0000000  3.1380000  3
     88     89     92     95     1  0.0000000  0.7531200  1
     88     89     92     95     1  0.0000000  3.7656000  2
     88     89     92     95     1  0.0000000  2.0920000  3
     85     88     89     92     1  180.0000771  3.6819200  1
     85     88     89     92     1  0.0000000  0.3347200  2
     85     88     89     92     1  0.0000000  3.1380000  3
     82     85     88     89     1  180.0000771  3.6819200  1
     82     85     88     89     1  0.0000000  0.3347200  2
     82     85     88     89     1  0.0000000  3.1380000  3
     81     82     85     88     1  0.0000000  0.7531200  1
     81     82     85     88     1  0.0000000  3.7656000  2
     81     82     85     88     1  0.0000000  2.0920000  3
     78     81     82     85     1  180.0000771  3.6819200  1
     78     81     82     85     1  0.0000000  0.3347200  2
     78     81     82     85     1  0.0000000  3.1380000  3
     75     78     81     82     1  180.0000771  3.6819200  1
     75     78     81     82     1  0.0000000  0.3347200  2
     75     78     81     82     1  0.0000000  3.1380000  3
     74     75     78     81     1  0.0000000  0.7531200  1
     74     75     78     81     1  0.0000000  3.7656000  2
     74     75     78     81     1  0.0000000  2.0920000  3
     71     74     75     78     1  180.0000771  3.6819200  1
     71     74     75     78     1  0.0000000  0.3347200  2
     71     74     75     78     1  0.0000000  3.1380000  3
    138    141    144    145     1  180.0000771  3.6819200  1
    138    141    144    145     1  0.0000000  0.3347200  2
    138    141    144    145     1  0.0000000  3.1380000  3
    137    138    141    144     1  0.0000000  0.7531200  1
    137    138    141    144     1  0.0000000  3.7656000  2
    137    138    141    144     1  0.0000000  2.0920000  3
    134    137    138    141     1  180.0000771  3.6819200  1
    134    137    138    141     1  0.0000000  0.3347200  2
    134    137    138    141     1  0.0000000  3.1380000  3
    131    134    137    138     1  180.0000771  3.6819200  1
    131    134    137    138     1  0.0000000  0.3347200  2
    131    134    137    138     1  0.0000000  3.1380000  3
    130    131    134    137     1  0.0000000  0.7531200  1
    130    131    134    137     1  0.0000000  3.7656000  2
    130    131    134    137     1  0.0000000  2.0920000  3
    127    130    131    134     1  180.0000771  3.6819200  1
    127    130    131    134     1  0.0000000  0.3347200  2
    127    130    131    134     1  0.0000000  3.1380000  3
    124    127    130    131     1  180.0000771  3.6819200  1
    124    127    130    131     1  0.0000000  0.3347200  2
    124    127    130    131     1  0.0000000  3.1380000  3
    123    124    127    130     1  0.0000000  0.7531200  1
    123    124    127    130     1  0.0000000  3.7656000  2
    123    124    127    130     1  0.0000000  2.0920000  3
    120    123    124    127     1  180.0000771  3.6819200  1
    120    123    124    127     1  0.0000000  0.3347200  2
    120    123    124    127     1  0.0000000  3.1380000  3
    117    120    123    124     1  180.0000771  3.6819200  1
    117    120    123    124     1  0.0000000  0.3347200  2
    117    120    123    124     1  0.0000000  3.1380000  3
    116    117    120    123     1  0.0000000  0.7531200  1
    116    117    120    123     1  0.0000000  3.7656000  2
    116    117    120    123     1  0.0000000  2.0920000  3
    113    116    117    120     1  180.0000771  3.6819200  1
    113    116    117    120     1  0.0000000  0.3347200  2
    113    116    117    120     1  0.0000000  3.1380000  3
    110    113    116    117     1  180.0000771  3.6819200  1
    110    113    116    117     1  0.0000000  0.3347200  2
    110    113    116    117     1  0.0000000  3.1380000  3
    109    110    113    116     1  0.0000000  0.7531200  1
    109    110    113    116     1  0.0000000  3.7656000  2
    109    110    113    116     1  0.0000000  2.0920000  3
    106    109    110    113     1  180.0000771  3.6819200  1
    106    109    110    113     1  0.0000000  0.3347200  2
    106    109    110    113     1  0.0000000  3.1380000  3
    173    176    179    180     1  180.0000771  3.3472000  1
    173    176    179    180     1  0.0000000  1.6024720  3
    172    173    176    179     1  0.0000000  0.7531200  1
    172    173    176    179     1  0.0000000  3.7656000  2
    172    173    176    179     1  0.0000000  2.0920000  3
    169    172    173    176     1  180.0000771  3.6819200  1
    169    172    173    176     1  0.0000000  0.3347200  2
    169    172    173    176     1  0.0000000  3.1380000  3
    166    169    172    173     1  180.0000771  3.6819200  1
    166    169    172    173     1  0.0000000  0.3347200  2
    166    169    172    173     1  0.0000000  3.1380000  3
    165    166    169    172     1  0.0000000  0.7531200  1
    165    166    169    172     1  0.0000000  3.7656000  2
    165    166    169    172     1  0.0000000  2.0920000  3
    162    165    166    169     1  180.0000771  3.6819200  1
    162    165    166    169     1  0.0000000  0.3347200  2
    162    165    166    169     1  0.0000000  3.1380000  3
    159    162    165    166     1  180.0000771  3.6819200  1
    159    162    165    166     1  0.0000000  0.3347200  2
    159    162    165    166     1  0.0000000  3.1380000  3
    158    159    162    165     1  0.0000000  0.7531200  1
    158    159    162    165     1  0.0000000  3.7656000  2
    158    159    162    165     1  0.0000000  2.0920000  3
    155    158    159    162     1  180.0000771  3.6819200  1
    155    158    159    162     1  0.0000000  0.3347200  2
    155    158    159    162     1  0.0000000  3.1380000  3
    152    155    158    159     1  180.0000771  3.6819200  1
    152    155    158    159     1  0.0000000  0.3347200  2
    152    155    158    159     1  0.0000000  3.1380000  3
    151    152    155    158     1  0.0000000  0.7531200  1
    151    152    155    158     1  0.0000000  3.7656000  2
    151    152    155    158     1  0.0000000  2.0920000  3
    148    151    152    155     1  180.0000771  3.6819200  1
    148    151    152    155     1  0.0000000  0.3347200  2
    148    151    152    155     1  0.0000000  3.1380000  3
    145    148    151    152     1  180.0000771  3.6819200  1
    145    148    151    152     1  0.0000000  0.3347200  2
    145    148    151    152     1  0.0000000  3.1380000  3
    144    145    148    151     1  0.0000000  0.7531200  1
    144    145    148    151     1  0.0000000  3.7656000  2
    144    145    148    151     1  0.0000000  2.0920000  3
    141    144    145    148     1  180.0000771  3.6819200  1
    141    144    145    148     1  0.0000000  0.3347200  2
    141    144    145    148     1  0.0000000  3.1380000  3
    201    204    207    208     1  180.0000771  3.3472000  1
    201    204    207    208     1  0.0000000  1.6024720  3
    198    201    204    207     1  0.0000000  0.6508444  3
    195    198    201    204     1  0.0000000  2.1756800  3
    194    195    198    201     1  0.0000000  0.6508444  3
    193    192    194    195     1  180.0000771  5.8576000  1
    193    192    194    195     1  180.0000771  11.2968000  2
    192    194    195    198     1  180.0000771  3.3472000  1
    192    194    195    198     1  0.0000000  1.6024720  3
    191    192    194    195     1  180.0000771  6.6944000  1
    191    192    194    195     1  180.0000771  15.3552800  2
    191    192    194    195     1  0.0000000  1.2970400  3
    189    191    192    193     1  180.0000771  2.4267200  2
    189    191    192    194     1  180.0000771  4.1840000  2
    187    189    191    192     1  180.0000771  15.1670000  2
    184    183    182    187     1  180.0000771  15.1670000  2
    184    191    189    187     1  180.0000771  15.1670000  2
    184    191    192    193     1  180.0000771  2.4267200  2
    184    191    192    194     1  180.0000771  4.1840000  2
    183    182    187    189     1  180.0000771  15.1670000  2
    183    184    191    189     1  180.0000771  15.1670000  2
    183    184    191    192     1  180.0000771  15.1670000  2
    182    183    184    191     1  180.0000771  15.1670000  2
    182    187    189    191     1  180.0000771  15.1670000  2
    181    180    182    183     1  180.0000771  2.4267200  2
    181    180    182    187     1  180.0000771  2.4267200  2
    180    182    183    184     1  180.0000771  15.1670000  2
    180    182    187    189     1  180.0000771  15.1670000  2
    179    180    182    183     1  180.0000771  4.1840000  2
    179    180    182    187     1  180.0000771  4.1840000  2
    176    179    180    181     1  180.0000771  5.8576000  1
    176    179    180    181     1  180.0000771  11.2968000  2
    176    179    180    182     1  180.0000771  6.6944000  1
    176    179    180    182     1  180.0000771  15.3552800  2
    176    179    180    182     1  0.0000000  1.2970400  3
    229    232    235    236     1  180.0000771  3.3472000  1
    229    232    235    236     1  0.0000000  1.6024720  3
    226    229    232    235     1  0.0000000  0.6508444  3
    223    226    229    232     1  0.0000000  2.1756800  3
    222    223    226    229     1  0.0000000  0.6508444  3
    221    220    222    223     1  180.0000771  5.8576000  1
    221    220    222    223     1  180.0000771  11.2968000  2
    220    222    223    226     1  180.0000771  3.3472000  1
    220    222    223    226     1  0.0000000  1.6024720  3
    219    220    222    223     1  180.0000771  6.6944000  1
    219    220    222    223     1  180.0000771  15.3552800  2
    219    220    222    223     1  0.0000000  1.2970400  3
    217    219    220    221     1  180.0000771  2.4267200  2
    217    219    220    222     1  180.0000771  4.1840000  2
    215    217    219    220     1  180.0000771  15.1670000  2
    212    211    210    215     1  180.0000771  15.1670000  2
    212    219    217    215     1  180.0000771  15.1670000  2
    212    219    220    221     1  180.0000771  2.4267200  2
    212    219    220    222     1  180.0000771  4.1840000  2
    211    210    215    217     1  180.0000771  15.1670000  2
    211    212    219    217     1  180.0000771  15.1670000  2
    211    212    219    220     1  180.0000771  15.1670000  2
    210    211    212    219     1  180.0000771  15.1670000  2
    210    215    217    219     1  180.0000771  15.1670000  2
    209    208    210    211     1  180.0000771  2.4267200  2
    209    208    210    215     1  180.0000771  2.4267200  2
    208    210    211    212     1  180.0000771  15.1670000  2
    208    210    215    217     1  180.0000771  15.1670000  2
    207    208    210    211     1  180.0000771  4.1840000  2
    207    208    210    215     1  180.0000771  4.1840000  2
    204    207    208    209     1  180.0000771  5.8576000  1
    204    207    208    209     1  180.0000771  11.2968000  2
    204    207    208    210     1  180.0000771  6.6944000  1
    204    207    208    210     1  180.0000771  15.3552800  2
    204    207    208    210     1  0.0000000  1.2970400  3
    257    260    263    264     1  180.0000771  3.3472000  1
    257    260    263    264     1  0.0000000  1.6024720  3
    254    257    260    263     1  0.0000000  0.6508444  3
    251    254    257    260     1  0.0000000  2.1756800  3
    250    251    254    257     1  0.0000000  0.6508444  3
    249    248    250    251     1  180.0000771  5.8576000  1
    249    248    250    251     1  180.0000771  11.2968000  2
    248    250    251    254     1  180.0000771  3.3472000  1
    248    250    251    254     1  0.0000000  1.6024720  3
    247    248    250    251     1  180.0000771  6.6944000  1
    247    248    250    251     1  180.0000771  15.3552800  2
    247    248    250    251     1  0.0000000  1.2970400  3
    245    247    248    249     1  180.0000771  2.4267200  2
    245    247    248    250     1  180.0000771  4.1840000  2
    243    245    247    248     1  180.0000771  15.1670000  2
    240    239    238    243     1  180.0000771  15.1670000  2
    240    247    245    243     1  180.0000771  15.1670000  2
    240    247    248    249     1  180.0000771  2.4267200  2
    240    247    248    250     1  180.0000771  4.1840000  2
    239    238    243    245     1  180.0000771  15.1670000  2
    239    240    247    245     1  180.0000771  15.1670000  2
    239    240    247    248     1  180.0000771  15.1670000  2
    238    239    240    247     1  180.0000771  15.1670000  2
    238    243    245    247     1  180.0000771  15.1670000  2
    237    236    238    239     1  180.0000771  2.4267200  2
    237    236    238    243     1  180.0000771  2.4267200  2
    236    238    239    240     1  180.0000771  15.1670000  2
    236    238    243    245     1  180.0000771  15.1670000  2
    235    236    238    239     1  180.0000771  4.1840000  2
    235    236    238    243     1  180.0000771  4.1840000  2
    232    235    236    237     1  180.0000771  5.8576000  1
    232    235    236    237     1  180.0000771  11.2968000  2
    232    235    236    238     1  180.0000771  6.6944000  1
    232    235    236    238     1  180.0000771  15.3552800  2
    232    235    236    238     1  0.0000000  1.2970400  3
    285    288    291    292     1  180.0000771  3.3472000  1
    285    288    291    292     1  0.0000000  1.6024720  3
    282    285    288    291     1  0.0000000  0.6508444  3
    279    282    285    288     1  0.0000000  2.1756800  3
    278    279    282    285     1  0.0000000  0.6508444  3
    277    276    278    279     1  180.0000771  5.8576000  1
    277    276    278    279     1  180.0000771  11.2968000  2
    276    278    279    282     1  180.0000771  3.3472000  1
    276    278    279    282     1  0.0000000  1.6024720  3
    275    276    278    279     1  180.0000771  6.6944000  1
    275    276    278    279     1  180.0000771  15.3552800  2
    275    276    278    279     1  0.0000000  1.2970400  3
    273    275    276    277     1  180.0000771  2.4267200  2
    273    275    276    278     1  180.0000771  4.1840000  2
    271    273    275    276     1  180.0000771  15.1670000  2
    268    267    266    271     1  180.0000771  15.1670000  2
    268    275    273    271     1  180.0000771  15.1670000  2
    268    275    276    277     1  180.0000771  2.4267200  2
    268    275    276    278     1  180.0000771  4.1840000  2
    267    266    271    273     1  180.0000771  15.1670000  2
    267    268    275    273     1  180.0000771  15.1670000  2
    267    268    275    276     1  180.0000771  15.1670000  2
    266    267    268    275     1  180.0000771  15.1670000  2
    266    271    273    275     1  180.0000771  15.1670000  2
    265    264    266    267     1  180.0000771  2.4267200  2
    265    264    266    271     1  180.0000771  2.4267200  2
    264    266    267    268     1  180.0000771  15.1670000  2
    264    266    271    273     1  180.0000771  15.1670000  2
    263    264    266    267     1  180.0000771  4.1840000  2
    263    264    266    271     1  180.0000771  4.1840000  2
    260    263    264    265     1  180.0000771  5.8576000  1
    260    263    264    265     1  180.0000771  11.2968000  2
    260    263    264    266     1  180.0000771  6.6944000  1
    260    263    264    266     1  180.0000771  15.3552800  2
    260    263    264    266     1  0.0000000  1.2970400  3
    313    316    319    320     1  180.0000771  3.3472000  1
    313    316    319    320     1  0.0000000  1.6024720  3
    310    313    316    319     1  0.0000000  0.6508444  3
    307    310    313    316     1  0.0000000  2.1756800  3
    306    307    310    313     1  0.0000000  0.6508444  3
    305    304    306    307     1  180.0000771  5.8576000  1
    305    304    306    307     1  180.0000771  11.2968000  2
    304    306    307    310     1  180.0000771  3.3472000  1
    304    306    307    310     1  0.0000000  1.6024720  3
    303    304    306    307     1  180.0000771  6.6944000  1
    303    304    306    307     1  180.0000771  15.3552800  2
    303    304    306    307     1  0.0000000  1.2970400  3
    301    303    304    305     1  180.0000771  2.4267200  2
    301    303    304    306     1  180.0000771  4.1840000  2
    299    301    303    304     1  180.0000771  15.1670000  2
    296    295    294    299     1  180.0000771  15.1670000  2
    296    303    301    299     1  180.0000771  15.1670000  2
    296    303    304    305     1  180.0000771  2.4267200  2
    296    303    304    306     1  180.0000771  4.1840000  2
    295    294    299    301     1  180.0000771  15.1670000  2
    295    296    303    301     1  180.0000771  15.1670000  2
    295    296    303    304     1  180.0000771  15.1670000  2
    294    295    296    303     1  180.0000771  15.1670000  2
    294    299    301    303     1  180.0000771  15.1670000  2
    293    292    294    295     1  180.0000771  2.4267200  2
    293    292    294    299     1  180.0000771  2.4267200  2
    292    294    295    296     1  180.0000771  15.1670000  2
    292    294    299    301     1  180.0000771  15.1670000  2
    291    292    294    295     1  180.0000771  4.1840000  2
    291    292    294    299     1  180.0000771  4.1840000  2
    288    291    292    293     1  180.0000771  5.8576000  1
    288    291    292    293     1  180.0000771  11.2968000  2
    288    291    292    294     1  180.0000771  6.6944000  1
    288    291    292    294     1  180.0000771  15.3552800  2
    288    291    292    294     1  0.0000000  1.2970400  3
    341    344    347    348     1  180.0000771  3.3472000  1
    341    344    347    348     1  0.0000000  1.6024720  3
    338    341    344    347     1  0.0000000  0.6508444  3
    335    338    341    344     1  0.0000000  2.1756800  3
    334    335    338    341     1  0.0000000  0.6508444  3
    333    332    334    335     1  180.0000771  5.8576000  1
    333    332    334    335     1  180.0000771  11.2968000  2
    332    334    335    338     1  180.0000771  3.3472000  1
    332    334    335    338     1  0.0000000  1.6024720  3
    331    332    334    335     1  180.0000771  6.6944000  1
    331    332    334    335     1  180.0000771  15.3552800  2
    331    332    334    335     1  0.0000000  1.2970400  3
    329    331    332    333     1  180.0000771  2.4267200  2
    329    331    332    334     1  180.0000771  4.1840000  2
    327    329    331    332     1  180.0000771  15.1670000  2
    324    323    322    327     1  180.0000771  15.1670000  2
    324    331    329    327     1  180.0000771  15.1670000  2
    324    331    332    333     1  180.0000771  2.4267200  2
    324    331    332    334     1  180.0000771  4.1840000  2
    323    322    327    329     1  180.0000771  15.1670000  2
    323    324    331    329     1  180.0000771  15.1670000  2
    323    324    331    332     1  180.0000771  15.1670000  2
    322    323    324    331     1  180.0000771  15.1670000  2
    322    327    329    331     1  180.0000771  15.1670000  2
    321    320    322    323     1  180.0000771  2.4267200  2
    321    320    322    327     1  180.0000771  2.4267200  2
    320    322    323    324     1  180.0000771  15.1670000  2
    320    322    327    329     1  180.0000771  15.1670000  2
    319    320    322    323     1  180.0000771  4.1840000  2
    319    320    322    327     1  180.0000771  4.1840000  2
    316    319    320    321     1  180.0000771  5.8576000  1
    316    319    320    321     1  180.0000771  11.2968000  2
    316    319    320    322     1  180.0000771  6.6944000  1
    316    319    320    322     1  180.0000771  15.3552800  2
    316    319    320    322     1  0.0000000  1.2970400  3
    369    372    375    376     1  180.0000771  3.3472000  1
    369    372    375    376     1  0.0000000  1.6024720  3
    366    369    372    375     1  0.0000000  0.6508444  3
    363    366    369    372     1  0.0000000  2.1756800  3
    362    363    366    369     1  0.0000000  0.6508444  3
    361    360    362    363     1  180.0000771  5.8576000  1
    361    360    362    363     1  180.0000771  11.2968000  2
    360    362    363    366     1  180.0000771  3.3472000  1
    360    362    363    366     1  0.0000000  1.6024720  3
    359    360    362    363     1  180.0000771  6.6944000  1
    359    360    362    363     1  180.0000771  15.3552800  2
    359    360    362    363     1  0.0000000  1.2970400  3
    357    359    360    361     1  180.0000771  2.4267200  2
    357    359    360    362     1  180.0000771  4.1840000  2
    355    357    359    360     1  180.0000771  15.1670000  2
    352    351    350    355     1  180.0000771  15.1670000  2
    352    359    357    355     1  180.0000771  15.1670000  2
    352    359    360    361     1  180.0000771  2.4267200  2
    352    359    360    362     1  180.0000771  4.1840000  2
    351    350    355    357     1  180.0000771  15.1670000  2
    351    352    359    357     1  180.0000771  15.1670000  2
    351    352    359    360     1  180.0000771  15.1670000  2
    350    351    352    359     1  180.0000771  15.1670000  2
    350    355    357    359     1  180.0000771  15.1670000  2
    349    348    350    351     1  180.0000771  2.4267200  2
    349    348    350    355     1  180.0000771  2.4267200  2
    348    350    351    352     1  180.0000771  15.1670000  2
    348    350    355    357     1  180.0000771  15.1670000  2
    347    348    350    351     1  180.0000771  4.1840000  2
    347    348    350    355     1  180.0000771  4.1840000  2
    344    347    348    349     1  180.0000771  5.8576000  1
    344    347    348    349     1  180.0000771  11.2968000  2
    344    347    348    350     1  180.0000771  6.6944000  1
    344    347    348    350     1  180.0000771  15.3552800  2
    344    347    348    350     1  0.0000000  1.2970400  3
    397    400    403    404     1  180.0000771  3.3472000  1
    397    400    403    404     1  0.0000000  1.6024720  3
    394    397    400    403     1  0.0000000  0.6508444  3
    391    394    397    400     1  0.0000000  2.1756800  3
    390    391    394    397     1  0.0000000  0.6508444  3
    389    388    390    391     1  180.0000771  5.8576000  1
    389    388    390    391     1  180.0000771  11.2968000  2
    388    390    391    394     1  180.0000771  3.3472000  1
    388    390    391    394     1  0.0000000  1.6024720  3
    387    388    390    391     1  180.0000771  6.6944000  1
    387    388    390    391     1  180.0000771  15.3552800  2
    387    388    390    391     1  0.0000000  1.2970400  3
    385    387    388    389     1  180.0000771  2.4267200  2
    385    387    388    390     1  180.0000771  4.1840000  2
    383    385    387    388     1  180.0000771  15.1670000  2
    380    379    378    383     1  180.0000771  15.1670000  2
    380    387    385    383     1  180.0000771  15.1670000  2
    380    387    388    389     1  180.0000771  2.4267200  2
    380    387    388    390     1  180.0000771  4.1840000  2
    379    378    383    385     1  180.0000771  15.1670000  2
    379    380    387    385     1  180.0000771  15.1670000  2
    379    380    387    388     1  180.0000771  15.1670000  2
    378    379    380    387     1  180.0000771  15.1670000  2
    378    383    385    387     1  180.0000771  15.1670000  2
    377    376    378    379     1  180.0000771  2.4267200  2
    377    376    378    383     1  180.0000771  2.4267200  2
    376    378    379    380     1  180.0000771  15.1670000  2
    376    378    383    385     1  180.0000771  15.1670000  2
    375    376    378    379     1  180.0000771  4.1840000  2
    375    376    378    383     1  180.0000771  4.1840000  2
    372    375    376    377     1  180.0000771  5.8576000  1
    372    375    376    377     1  180.0000771  11.2968000  2
    372    375    376    378     1  180.0000771  6.6944000  1
    372    375    376    378     1  180.0000771  15.3552800  2
    372    375    376    378     1  0.0000000  1.2970400  3
    425    428    431    432     1  180.0000771  3.3472000  1
    425    428    431    432     1  0.0000000  1.6024720  3
    422    425    428    431     1  0.0000000  0.6508444  3
    419    422    425    428     1  0.0000000  2.1756800  3
    418    419    422    425     1  0.0000000  0.6508444  3
    417    416    418    419     1  180.0000771  5.8576000  1
    417    416    418    419     1  180.0000771  11.2968000  2
    416    418    419    422     1  180.0000771  3.3472000  1
    416    418    419    422     1  0.0000000  1.6024720  3
    415    416    418    419     1  180.0000771  6.6944000  1
    415    416    418    419     1  180.0000771  15.3552800  2
    415    416    418    419     1  0.0000000  1.2970400  3
    413    415    416    417     1  180.0000771  2.4267200  2
    413    415    416    418     1  180.0000771  4.1840000  2
    411    413    415    416     1  180.0000771  15.1670000  2
    408    407    406    411     1  180.0000771  15.1670000  2
    408    415    413    411     1  180.0000771  15.1670000  2
    408    415    416    417     1  180.0000771  2.4267200  2
    408    415    416    418     1  180.0000771  4.1840000  2
    407    406    411    413     1  180.0000771  15.1670000  2
    407    408    415    413     1  180.0000771  15.1670000  2
    407    408    415    416     1  180.0000771  15.1670000  2
    406    407    408    415     1  180.0000771  15.1670000  2
    406    411    413    415     1  180.0000771  15.1670000  2
    405    404    406    407     1  180.0000771  2.4267200  2
    405    404    406    411     1  180.0000771  2.4267200  2
    404    406    407    408     1  180.0000771  15.1670000  2
    404    406    411    413     1  180.0000771  15.1670000  2
    403    404    406    407     1  180.0000771  4.1840000  2
    403    404    406    411     1  180.0000771  4.1840000  2
    400    403    404    405     1  180.0000771  5.8576000  1
    400    403    404    405     1  180.0000771  11.2968000  2
    400    403    404    406     1  180.0000771  6.6944000  1
    400    403    404    406     1  180.0000771  15.3552800  2
    400    403    404    406     1  0.0000000  1.2970400  3
    453    456    459    460     1  180.0000771  3.3472000  1
    453    456    459    460     1  0.0000000  1.6024720  3
    450    453    456    459     1  0.0000000  0.6508444  3
    447    450    453    456     1  0.0000000  2.1756800  3
    446    447    450    453     1  0.0000000  0.6508444  3
    445    444    446    447     1  180.0000771  5.8576000  1
    445    444    446    447     1  180.0000771  11.2968000  2
    444    446    447    450     1  180.0000771  3.3472000  1
    444    446    447    450     1  0.0000000  1.6024720  3
    443    444    446    447     1  180.0000771  6.6944000  1
    443    444    446    447     1  180.0000771  15.3552800  2
    443    444    446    447     1  0.0000000  1.2970400  3
    441    443    444    445     1  180.0000771  2.4267200  2
    441    443    444    446     1  180.0000771  4.1840000  2
    439    441    443    444     1  180.0000771  15.1670000  2
    436    435    434    439     1  180.0000771  15.1670000  2
    436    443    441    439     1  180.0000771  15.1670000  2
    436    443    444    445     1  180.0000771  2.4267200  2
    436    443    444    446     1  180.0000771  4.1840000  2
    435    434    439    441     1  180.0000771  15.1670000  2
    435    436    443    441     1  180.0000771  15.1670000  2
    435    436    443    444     1  180.0000771  15.1670000  2
    434    435    436    443     1  180.0000771  15.1670000  2
    434    439    441    443     1  180.0000771  15.1670000  2
    433    432    434    435     1  180.0000771  2.4267200  2
    433    432    434    439     1  180.0000771  2.4267200  2
    432    434    435    436     1  180.0000771  15.1670000  2
    432    434    439    441     1  180.0000771  15.1670000  2
    431    432    434    435     1  180.0000771  4.1840000  2
    431    432    434    439     1  180.0000771  4.1840000  2
    428    431    432    433     1  180.0000771  5.8576000  1
    428    431    432    433     1  180.0000771  11.2968000  2
    428    431    432    434     1  180.0000771  6.6944000  1
    428    431    432    434     1  180.0000771  15.3552800  2
    428    431    432    434     1  0.0000000  1.2970400  3
    481    484    487    488     1  180.0000771  3.3472000  1
    481    484    487    488     1  0.0000000  1.6024720  3
    478    481    484    487     1  0.0000000  0.6508444  3
    475    478    481    484     1  0.0000000  2.1756800  3
    474    475    478    481     1  0.0000000  0.6508444  3
    473    472    474    475     1  180.0000771  5.8576000  1
    473    472    474    475     1  180.0000771  11.2968000  2
    472    474    475    478     1  180.0000771  3.3472000  1
    472    474    475    478     1  0.0000000  1.6024720  3
    471    472    474    475     1  180.0000771  6.6944000  1
    471    472    474    475     1  180.0000771  15.3552800  2
    471    472    474    475     1  0.0000000  1.2970400  3
    469    471    472    473     1  180.0000771  2.4267200  2
    469    471    472    474     1  180.0000771  4.1840000  2
    467    469    471    472     1  180.0000771  15.1670000  2
    464    463    462    467     1  180.0000771  15.1670000  2
    464    471    469    467     1  180.0000771  15.1670000  2
    464    471    472    473     1  180.0000771  2.4267200  2
    464    471    472    474     1  180.0000771  4.1840000  2
    463    462    467    469     1  180.0000771  15.1670000  2
    463    464    471    469     1  180.0000771  15.1670000  2
    463    464    471    472     1  180.0000771  15.1670000  2
    462    463    464    471     1  180.0000771  15.1670000  2
    462    467    469    471     1  180.0000771  15.1670000  2
    461    460    462    463     1  180.0000771  2.4267200  2
    461    460    462    467     1  180.0000771  2.4267200  2
    460    462    463    464     1  180.0000771  15.1670000  2
    460    462    467    469     1  180.0000771  15.1670000  2
    459    460    462    463     1  180.0000771  4.1840000  2
    459    460    462    467     1  180.0000771  4.1840000  2
    456    459    460    461     1  180.0000771  5.8576000  1
    456    459    460    461     1  180.0000771  11.2968000  2
    456    459    460    462     1  180.0000771  6.6944000  1
    456    459    460    462     1  180.0000771  15.3552800  2
    456    459    460    462     1  0.0000000  1.2970400  3
    509    512    515    516     1  180.0000771  3.3472000  1
    509    512    515    516     1  0.0000000  1.6024720  3
    506    509    512    515     1  0.0000000  0.6508444  3
    503    506    509    512     1  0.0000000  2.1756800  3
    502    503    506    509     1  0.0000000  0.6508444  3
    501    500    502    503     1  180.0000771  5.8576000  1
    501    500    502    503     1  180.0000771  11.2968000  2
    500    502    503    506     1  180.0000771  3.3472000  1
    500    502    503    506     1  0.0000000  1.6024720  3
    499    500    502    503     1  180.0000771  6.6944000  1
    499    500    502    503     1  180.0000771  15.3552800  2
    499    500    502    503     1  0.0000000  1.2970400  3
    497    499    500    501     1  180.0000771  2.4267200  2
    497    499    500    502     1  180.0000771  4.1840000  2
    495    497    499    500     1  180.0000771  15.1670000  2
    492    491    490    495     1  180.0000771  15.1670000  2
    492    499    497    495     1  180.0000771  15.1670000  2
    492    499    500    501     1  180.0000771  2.4267200  2
    492    499    500    502     1  180.0000771  4.1840000  2
    491    490    495    497     1  180.0000771  15.1670000  2
    491    492    499    497     1  180.0000771  15.1670000  2
    491    492    499    500     1  180.0000771  15.1670000  2
    490    491    492    499     1  180.0000771  15.1670000  2
    490    495    497    499     1  180.0000771  15.1670000  2
    489    488    490    491     1  180.0000771  2.4267200  2
    489    488    490    495     1  180.0000771  2.4267200  2
    488    490    491    492     1  180.0000771  15.1670000  2
    488    490    495    497     1  180.0000771  15.1670000  2
    487    488    490    491     1  180.0000771  4.1840000  2
    487    488    490    495     1  180.0000771  4.1840000  2
    484    487    488    489     1  180.0000771  5.8576000  1
    484    487    488    489     1  180.0000771  11.2968000  2
    484    487    488    490     1  180.0000771  6.6944000  1
    484    487    488    490     1  180.0000771  15.3552800  2
    484    487    488    490     1  0.0000000  1.2970400  3
    537    540    543    544     1  180.0000771  3.3472000  1
    537    540    543    544     1  0.0000000  1.6024720  3
    534    537    540    543     1  0.0000000  0.6508444  3
    531    534    537    540     1  0.0000000  2.1756800  3
    530    531    534    537     1  0.0000000  0.6508444  3
    529    528    530    531     1  180.0000771  5.8576000  1
    529    528    530    531     1  180.0000771  11.2968000  2
    528    530    531    534     1  180.0000771  3.3472000  1
    528    530    531    534     1  0.0000000  1.6024720  3
    527    528    530    531     1  180.0000771  6.6944000  1
    527    528    530    531     1  180.0000771  15.3552800  2
    527    528    530    531     1  0.0000000  1.2970400  3
    525    527    528    529     1  180.0000771  2.4267200  2
    525    527    528    530     1  180.0000771  4.1840000  2
    523    525    527    528     1  180.0000771  15.1670000  2
    520    519    518    523     1  180.0000771  15.1670000  2
    520    527    525    523     1  180.0000771  15.1670000  2
    520    527    528    529     1  180.0000771  2.4267200  2
    520    527    528    530     1  180.0000771  4.1840000  2
    519    518    523    525     1  180.0000771  15.1670000  2
    519    520    527    525     1  180.0000771  15.1670000  2
    519    520    527    528     1  180.0000771  15.1670000  2
    518    519    520    527     1  180.0000771  15.1670000  2
    518    523    525    527     1  180.0000771  15.1670000  2
    517    516    518    519     1  180.0000771  2.4267200  2
    517    516    518    523     1  180.0000771  2.4267200  2
    516    518    519    520     1  180.0000771  15.1670000  2
    516    518    523    525     1  180.0000771  15.1670000  2
    515    516    518    519     1  180.0000771  4.1840000  2
    515    516    518    523     1  180.0000771  4.1840000  2
    512    515    516    517     1  180.0000771  5.8576000  1
    512    515    516    517     1  180.0000771  11.2968000  2
    512    515    516    518     1  180.0000771  6.6944000  1
    512    515    516    518     1  180.0000771  15.3552800  2
    512    515    516    518     1  0.0000000  1.2970400  3
    565    568    571    572     1  180.0000771  3.3472000  1
    565    568    571    572     1  0.0000000  1.6024720  3
    562    565    568    571     1  0.0000000  0.6508444  3
    559    562    565    568     1  0.0000000  2.1756800  3
    558    559    562    565     1  0.0000000  0.6508444  3
    557    556    558    559     1  180.0000771  5.8576000  1
    557    556    558    559     1  180.0000771  11.2968000  2
    556    558    559    562     1  180.0000771  3.3472000  1
    556    558    559    562     1  0.0000000  1.6024720  3
    555    556    558    559     1  180.0000771  6.6944000  1
    555    556    558    559     1  180.0000771  15.3552800  2
    555    556    558    559     1  0.0000000  1.2970400  3
    553    555    556    557     1  180.0000771  2.4267200  2
    553    555    556    558     1  180.0000771  4.1840000  2
    551    553    555    556     1  180.0000771  15.1670000  2
    548    547    546    551     1  180.0000771  15.1670000  2
    548    555    553    551     1  180.0000771  15.1670000  2
    548    555    556    557     1  180.0000771  2.4267200  2
    548    555    556    558     1  180.0000771  4.1840000  2
    547    546    551    553     1  180.0000771  15.1670000  2
    547    548    555    553     1  180.0000771  15.1670000  2
    547    548    555    556     1  180.0000771  15.1670000  2
    546    547    548    555     1  180.0000771  15.1670000  2
    546    551    553    555     1  180.0000771  15.1670000  2
    545    544    546    547     1  180.0000771  2.4267200  2
    545    544    546    551     1  180.0000771  2.4267200  2
    544    546    547    548     1  180.0000771  15.1670000  2
    544    546    551    553     1  180.0000771  15.1670000  2
    543    544    546    547     1  180.0000771  4.1840000  2
    543    544    546    551     1  180.0000771  4.1840000  2
    540    543    544    545     1  180.0000771  5.8576000  1
    540    543    544    545     1  180.0000771  11.2968000  2
    540    543    544    546     1  180.0000771  6.6944000  1
    540    543    544    546     1  180.0000771  15.3552800  2
    540    543    544    546     1  0.0000000  1.2970400  3
    593    596    599    600     1  180.0000771  3.3472000  1
    593    596    599    600     1  0.0000000  1.6024720  3
    590    593    596    599     1  0.0000000  0.6508444  3
    587    590    593    596     1  0.0000000  2.1756800  3
    586    587    590    593     1  0.0000000  0.6508444  3
    585    584    586    587     1  180.0000771  5.8576000  1
    585    584    586    587     1  180.0000771  11.2968000  2
    584    586    587    590     1  180.0000771  3.3472000  1
    584    586    587    590     1  0.0000000  1.6024720  3
    583    584    586    587     1  180.0000771  6.6944000  1
    583    584    586    587     1  180.0000771  15.3552800  2
    583    584    586    587     1  0.0000000  1.2970400  3
    581    583    584    585     1  180.0000771  2.4267200  2
    581    583    584    586     1  180.0000771  4.1840000  2
    579    581    583    584     1  180.0000771  15.1670000  2
    576    575    574    579     1  180.0000771  15.1670000  2
    576    583    581    579     1  180.0000771  15.1670000  2
    576    583    584    585     1  180.0000771  2.4267200  2
    576    583    584    586     1  180.0000771  4.1840000  2
    575    574    579    581     1  180.0000771  15.1670000  2
    575    576    583    581     1  180.0000771  15.1670000  2
    575    576    583    584     1  180.0000771  15.1670000  2
    574    575    576    583     1  180.0000771  15.1670000  2
    574    579    581    583     1  180.0000771  15.1670000  2
    573    572    574    575     1  180.0000771  2.4267200  2
    573    572    574    579     1  180.0000771  2.4267200  2
    572    574    575    576     1  180.0000771  15.1670000  2
    572    574    579    581     1  180.0000771  15.1670000  2
    571    572    574    575     1  180.0000771  4.1840000  2
    571    572    574    579     1  180.0000771  4.1840000  2
    568    571    572    573     1  180.0000771  5.8576000  1
    568    571    572    573     1  180.0000771  11.2968000  2
    568    571    572    574     1  180.0000771  6.6944000  1
    568    571    572    574     1  180.0000771  15.3552800  2
    568    571    572    574     1  0.0000000  1.2970400  3
    621    624    627    628     1  180.0000771  3.3472000  1
    621    624    627    628     1  0.0000000  1.6024720  3
    618    621    624    627     1  0.0000000  0.6508444  3
    615    618    621    624     1  0.0000000  2.1756800  3
    614    615    618    621     1  0.0000000  0.6508444  3
    613    612    614    615     1  180.0000771  5.8576000  1
    613    612    614    615     1  180.0000771  11.2968000  2
    612    614    615    618     1  180.0000771  3.3472000  1
    612    614    615    618     1  0.0000000  1.6024720  3
    611    612    614    615     1  180.0000771  6.6944000  1
    611    612    614    615     1  180.0000771  15.3552800  2
    611    612    614    615     1  0.0000000  1.2970400  3
    609    611    612    613     1  180.0000771  2.4267200  2
    609    611    612    614     1  180.0000771  4.1840000  2
    607    609    611    612     1  180.0000771  15.1670000  2
    604    603    602    607     1  180.0000771  15.1670000  2
    604    611    609    607     1  180.0000771  15.1670000  2
    604    611    612    613     1  180.0000771  2.4267200  2
    604    611    612    614     1  180.0000771  4.1840000  2
    603    602    607    609     1  180.0000771  15.1670000  2
    603    604    611    609     1  180.0000771  15.1670000  2
    603    604    611    612     1  180.0000771  15.1670000  2
    602    603    604    611     1  180.0000771  15.1670000  2
    602    607    609    611     1  180.0000771  15.1670000  2
    601    600    602    603     1  180.0000771  2.4267200  2
    601    600    602    607     1  180.0000771  2.4267200  2
    600    602    603    604     1  180.0000771  15.1670000  2
    600    602    607    609     1  180.0000771  15.1670000  2
    599    600    602    603     1  180.0000771  4.1840000  2
    599    600    602    607     1  180.0000771  4.1840000  2
    596    599    600    601     1  180.0000771  5.8576000  1
    596    599    600    601     1  180.0000771  11.2968000  2
    596    599    600    602     1  180.0000771  6.6944000  1
    596    599    600    602     1  180.0000771  15.3552800  2
    596    599    600    602     1  0.0000000  1.2970400  3
    649    652    655    656     1  180.0000771  3.3472000  1
    649    652    655    656     1  0.0000000  1.6024720  3
    646    649    652    655     1  0.0000000  0.6508444  3
    643    646    649    652     1  0.0000000  2.1756800  3
    642    643    646    649     1  0.0000000  0.6508444  3
    641    640    642    643     1  180.0000771  5.8576000  1
    641    640    642    643     1  180.0000771  11.2968000  2
    640    642    643    646     1  180.0000771  3.3472000  1
    640    642    643    646     1  0.0000000  1.6024720  3
    639    640    642    643     1  180.0000771  6.6944000  1
    639    640    642    643     1  180.0000771  15.3552800  2
    639    640    642    643     1  0.0000000  1.2970400  3
    637    639    640    641     1  180.0000771  2.4267200  2
    637    639    640    642     1  180.0000771  4.1840000  2
    635    637    639    640     1  180.0000771  15.1670000  2
    632    631    630    635     1  180.0000771  15.1670000  2
    632    639    637    635     1  180.0000771  15.1670000  2
    632    639    640    641     1  180.0000771  2.4267200  2
    632    639    640    642     1  180.0000771  4.1840000  2
    631    630    635    637     1  180.0000771  15.1670000  2
    631    632    639    637     1  180.0000771  15.1670000  2
    631    632    639    640     1  180.0000771  15.1670000  2
    630    631    632    639     1  180.0000771  15.1670000  2
    630    635    637    639     1  180.0000771  15.1670000  2
    629    628    630    631     1  180.0000771  2.4267200  2
    629    628    630    635     1  180.0000771  2.4267200  2
    628    630    631    632     1  180.0000771  15.1670000  2
    628    630    635    637     1  180.0000771  15.1670000  2
    627    628    630    631     1  180.0000771  4.1840000  2
    627    628    630    635     1  180.0000771  4.1840000  2
    624    627    628    629     1  180.0000771  5.8576000  1
    624    627    628    629     1  180.0000771  11.2968000  2
    624    627    628    630     1  180.0000771  6.6944000  1
    624    627    628    630     1  180.0000771  15.3552800  2
    624    627    628    630     1  0.0000000  1.2970400  3
    677    680    683    684     1  180.0000771  3.3472000  1
    677    680    683    684     1  0.0000000  1.6024720  3
    674    677    680    683     1  0.0000000  0.6508444  3
    671    674    677    680     1  0.0000000  2.1756800  3
    670    671    674    677     1  0.0000000  0.6508444  3
    669    668    670    671     1  180.0000771  5.8576000  1
    669    668    670    671     1  180.0000771  11.2968000  2
    668    670    671    674     1  180.0000771  3.3472000  1
    668    670    671    674     1  0.0000000  1.6024720  3
    667    668    670    671     1  180.0000771  6.6944000  1
    667    668    670    671     1  180.0000771  15.3552800  2
    667    668    670    671     1  0.0000000  1.2970400  3
    665    667    668    669     1  180.0000771  2.4267200  2
    665    667    668    670     1  180.0000771  4.1840000  2
    663    665    667    668     1  180.0000771  15.1670000  2
    660    659    658    663     1  180.0000771  15.1670000  2
    660    667    665    663     1  180.0000771  15.1670000  2
    660    667    668    669     1  180.0000771  2.4267200  2
    660    667    668    670     1  180.0000771  4.1840000  2
    659    658    663    665     1  180.0000771  15.1670000  2
    659    660    667    665     1  180.0000771  15.1670000  2
    659    660    667    668     1  180.0000771  15.1670000  2
    658    659    660    667     1  180.0000771  15.1670000  2
    658    663    665    667     1  180.0000771  15.1670000  2
    657    656    658    659     1  180.0000771  2.4267200  2
    657    656    658    663     1  180.0000771  2.4267200  2
    656    658    659    660     1  180.0000771  15.1670000  2
    656    658    663    665     1  180.0000771  15.1670000  2
    655    656    658    659     1  180.0000771  4.1840000  2
    655    656    658    663     1  180.0000771  4.1840000  2
    652    655    656    657     1  180.0000771  5.8576000  1
    652    655    656    657     1  180.0000771  11.2968000  2
    652    655    656    658     1  180.0000771  6.6944000  1
    652    655    656    658     1  180.0000771  15.3552800  2
    652    655    656    658     1  0.0000000  1.2970400  3
    705    708    711    712     1  180.0000771  3.3472000  1
    705    708    711    712     1  0.0000000  1.6024720  3
    702    705    708    711     1  0.0000000  0.6508444  3
    699    702    705    708     1  0.0000000  2.1756800  3
    698    699    702    705     1  0.0000000  0.6508444  3
    697    696    698    699     1  180.0000771  5.8576000  1
    697    696    698    699     1  180.0000771  11.2968000  2
    696    698    699    702     1  180.0000771  3.3472000  1
    696    698    699    702     1  0.0000000  1.6024720  3
    695    696    698    699     1  180.0000771  6.6944000  1
    695    696    698    699     1  180.0000771  15.3552800  2
    695    696    698    699     1  0.0000000  1.2970400  3
    693    695    696    697     1  180.0000771  2.4267200  2
    693    695    696    698     1  180.0000771  4.1840000  2
    691    693    695    696     1  180.0000771  15.1670000  2
    688    687    686    691     1  180.0000771  15.1670000  2
    688    695    693    691     1  180.0000771  15.1670000  2
    688    695    696    697     1  180.0000771  2.4267200  2
    688    695    696    698     1  180.0000771  4.1840000  2
    687    686    691    693     1  180.0000771  15.1670000  2
    687    688    695    693     1  180.0000771  15.1670000  2
    687    688    695    696     1  180.0000771  15.1670000  2
    686    687    688    695     1  180.0000771  15.1670000  2
    686    691    693    695     1  180.0000771  15.1670000  2
    685    684    686    687     1  180.0000771  2.4267200  2
    685    684    686    691     1  180.0000771  2.4267200  2
    684    686    687    688     1  180.0000771  15.1670000  2
    684    686    691    693     1  180.0000771  15.1670000  2
    683    684    686    687     1  180.0000771  4.1840000  2
    683    684    686    691     1  180.0000771  4.1840000  2
    680    683    684    685     1  180.0000771  5.8576000  1
    680    683    684    685     1  180.0000771  11.2968000  2
    680    683    684    686     1  180.0000771  6.6944000  1
    680    683    684    686     1  180.0000771  15.3552800  2
    680    683    684    686     1  0.0000000  1.2970400  3
    733    736    739    740     1  180.0000771  3.3472000  1
    733    736    739    740     1  0.0000000  1.6024720  3
    730    733    736    739     1  0.0000000  0.6508444  3
    727    730    733    736     1  0.0000000  2.1756800  3
    726    727    730    733     1  0.0000000  0.6508444  3
    725    724    726    727     1  180.0000771  5.8576000  1
    725    724    726    727     1  180.0000771  11.2968000  2
    724    726    727    730     1  180.0000771  3.3472000  1
    724    726    727    730     1  0.0000000  1.6024720  3
    723    724    726    727     1  180.0000771  6.6944000  1
    723    724    726    727     1  180.0000771  15.3552800  2
    723    724    726    727     1  0.0000000  1.2970400  3
    721    723    724    725     1  180.0000771  2.4267200  2
    721    723    724    726     1  180.0000771  4.1840000  2
    719    721    723    724     1  180.0000771  15.1670000  2
    716    715    714    719     1  180.0000771  15.1670000  2
    716    723    721    719     1  180.0000771  15.1670000  2
    716    723    724    725     1  180.0000771  2.4267200  2
    716    723    724    726     1  180.0000771  4.1840000  2
    715    714    719    721     1  180.0000771  15.1670000  2
    715    716    723    721     1  180.0000771  15.1670000  2
    715    716    723    724     1  180.0000771  15.1670000  2
    714    715    716    723     1  180.0000771  15.1670000  2
    714    719    721    723     1  180.0000771  15.1670000  2
    713    712    714    715     1  180.0000771  2.4267200  2
    713    712    714    719     1  180.0000771  2.4267200  2
    712    714    715    716     1  180.0000771  15.1670000  2
    712    714    719    721     1  180.0000771  15.1670000  2
    711    712    714    715     1  180.0000771  4.1840000  2
    711    712    714    719     1  180.0000771  4.1840000  2
    708    711    712    713     1  180.0000771  5.8576000  1
    708    711    712    713     1  180.0000771  11.2968000  2
    708    711    712    714     1  180.0000771  6.6944000  1
    708    711    712    714     1  180.0000771  15.3552800  2
    708    711    712    714     1  0.0000000  1.2970400  3
    761    764    767    768     1  180.0000771  3.3472000  1
    761    764    767    768     1  0.0000000  1.6024720  3
    758    761    764    767     1  0.0000000  0.6508444  3
    755    758    761    764     1  0.0000000  2.1756800  3
    754    755    758    761     1  0.0000000  0.6508444  3
    753    752    754    755     1  180.0000771  5.8576000  1
    753    752    754    755     1  180.0000771  11.2968000  2
    752    754    755    758     1  180.0000771  3.3472000  1
    752    754    755    758     1  0.0000000  1.6024720  3
    751    752    754    755     1  180.0000771  6.6944000  1
    751    752    754    755     1  180.0000771  15.3552800  2
    751    752    754    755     1  0.0000000  1.2970400  3
    749    751    752    753     1  180.0000771  2.4267200  2
    749    751    752    754     1  180.0000771  4.1840000  2
    747    749    751    752     1  180.0000771  15.1670000  2
    744    743    742    747     1  180.0000771  15.1670000  2
    744    751    749    747     1  180.0000771  15.1670000  2
    744    751    752    753     1  180.0000771  2.4267200  2
    744    751    752    754     1  180.0000771  4.1840000  2
    743    742    747    749     1  180.0000771  15.1670000  2
    743    744    751    749     1  180.0000771  15.1670000  2
    743    744    751    752     1  180.0000771  15.1670000  2
    742    743    744    751     1  180.0000771  15.1670000  2
    742    747    749    751     1  180.0000771  15.1670000  2
    741    740    742    743     1  180.0000771  2.4267200  2
    741    740    742    747     1  180.0000771  2.4267200  2
    740    742    743    744     1  180.0000771  15.1670000  2
    740    742    747    749     1  180.0000771  15.1670000  2
    739    740    742    743     1  180.0000771  4.1840000  2
    739    740    742    747     1  180.0000771  4.1840000  2
    736    739    740    741     1  180.0000771  5.8576000  1
    736    739    740    741     1  180.0000771  11.2968000  2
    736    739    740    742     1  180.0000771  6.6944000  1
    736    739    740    742     1  180.0000771  15.3552800  2
    736    739    740    742     1  0.0000000  1.2970400  3
    789    792    795    796     1  180.0000771  3.3472000  1
    789    792    795    796     1  0.0000000  1.6024720  3
    786    789    792    795     1  0.0000000  0.6508444  3
    783    786    789    792     1  0.0000000  2.1756800  3
    782    783    786    789     1  0.0000000  0.6508444  3
    781    780    782    783     1  180.0000771  5.8576000  1
    781    780    782    783     1  180.0000771  11.2968000  2
    780    782    783    786     1  180.0000771  3.3472000  1
    780    782    783    786     1  0.0000000  1.6024720  3
    779    780    782    783     1  180.0000771  6.6944000  1
    779    780    782    783     1  180.0000771  15.3552800  2
    779    780    782    783     1  0.0000000  1.2970400  3
    777    779    780    781     1  180.0000771  2.4267200  2
    777    779    780    782     1  180.0000771  4.1840000  2
    775    777    779    780     1  180.0000771  15.1670000  2
    772    771    770    775     1  180.0000771  15.1670000  2
    772    779    777    775     1  180.0000771  15.1670000  2
    772    779    780    781     1  180.0000771  2.4267200  2
    772    779    780    782     1  180.0000771  4.1840000  2
    771    770    775    777     1  180.0000771  15.1670000  2
    771    772    779    777     1  180.0000771  15.1670000  2
    771    772    779    780     1  180.0000771  15.1670000  2
    770    771    772    779     1  180.0000771  15.1670000  2
    770    775    777    779     1  180.0000771  15.1670000  2
    769    768    770    771     1  180.0000771  2.4267200  2
    769    768    770    775     1  180.0000771  2.4267200  2
    768    770    771    772     1  180.0000771  15.1670000  2
    768    770    775    777     1  180.0000771  15.1670000  2
    767    768    770    771     1  180.0000771  4.1840000  2
    767    768    770    775     1  180.0000771  4.1840000  2
    764    767    768    769     1  180.0000771  5.8576000  1
    764    767    768    769     1  180.0000771  11.2968000  2
    764    767    768    770     1  180.0000771  6.6944000  1
    764    767    768    770     1  180.0000771  15.3552800  2
    764    767    768    770     1  0.0000000  1.2970400  3
    817    820    823    824     1  180.0000771  3.3472000  1
    817    820    823    824     1  0.0000000  1.6024720  3
    814    817    820    823     1  0.0000000  0.6508444  3
    811    814    817    820     1  0.0000000  2.1756800  3
    810    811    814    817     1  0.0000000  0.6508444  3
    809    808    810    811     1  180.0000771  5.8576000  1
    809    808    810    811     1  180.0000771  11.2968000  2
    808    810    811    814     1  180.0000771  3.3472000  1
    808    810    811    814     1  0.0000000  1.6024720  3
    807    808    810    811     1  180.0000771  6.6944000  1
    807    808    810    811     1  180.0000771  15.3552800  2
    807    808    810    811     1  0.0000000  1.2970400  3
    805    807    808    809     1  180.0000771  2.4267200  2
    805    807    808    810     1  180.0000771  4.1840000  2
    803    805    807    808     1  180.0000771  15.1670000  2
    800    799    798    803     1  180.0000771  15.1670000  2
    800    807    805    803     1  180.0000771  15.1670000  2
    800    807    808    809     1  180.0000771  2.4267200  2
    800    807    808    810     1  180.0000771  4.1840000  2
    799    798    803    805     1  180.0000771  15.1670000  2
    799    800    807    805     1  180.0000771  15.1670000  2
    799    800    807    808     1  180.0000771  15.1670000  2
    798    799    800    807     1  180.0000771  15.1670000  2
    798    803    805    807     1  180.0000771  15.1670000  2
    797    796    798    799     1  180.0000771  2.4267200  2
    797    796    798    803     1  180.0000771  2.4267200  2
    796    798    799    800     1  180.0000771  15.1670000  2
    796    798    803    805     1  180.0000771  15.1670000  2
    795    796    798    799     1  180.0000771  4.1840000  2
    795    796    798    803     1  180.0000771  4.1840000  2
    792    795    796    797     1  180.0000771  5.8576000  1
    792    795    796    797     1  180.0000771  11.2968000  2
    792    795    796    798     1  180.0000771  6.6944000  1
    792    795    796    798     1  180.0000771  15.3552800  2
    792    795    796    798     1  0.0000000  1.2970400  3
    845    848    851    852     1  180.0000771  3.3472000  1
    845    848    851    852     1  0.0000000  1.6024720  3
    842    845    848    851     1  0.0000000  0.6508444  3
    839    842    845    848     1  0.0000000  2.1756800  3
    838    839    842    845     1  0.0000000  0.6508444  3
    837    836    838    839     1  180.0000771  5.8576000  1
    837    836    838    839     1  180.0000771  11.2968000  2
    836    838    839    842     1  180.0000771  3.3472000  1
    836    838    839    842     1  0.0000000  1.6024720  3
    835    836    838    839     1  180.0000771  6.6944000  1
    835    836    838    839     1  180.0000771  15.3552800  2
    835    836    838    839     1  0.0000000  1.2970400  3
    833    835    836    837     1  180.0000771  2.4267200  2
    833    835    836    838     1  180.0000771  4.1840000  2
    831    833    835    836     1  180.0000771  15.1670000  2
    828    827    826    831     1  180.0000771  15.1670000  2
    828    835    833    831     1  180.0000771  15.1670000  2
    828    835    836    837     1  180.0000771  2.4267200  2
    828    835    836    838     1  180.0000771  4.1840000  2
    827    826    831    833     1  180.0000771  15.1670000  2
    827    828    835    833     1  180.0000771  15.1670000  2
    827    828    835    836     1  180.0000771  15.1670000  2
    826    827    828    835     1  180.0000771  15.1670000  2
    826    831    833    835     1  180.0000771  15.1670000  2
    825    824    826    827     1  180.0000771  2.4267200  2
    825    824    826    831     1  180.0000771  2.4267200  2
    824    826    827    828     1  180.0000771  15.1670000  2
    824    826    831    833     1  180.0000771  15.1670000  2
    823    824    826    827     1  180.0000771  4.1840000  2
    823    824    826    831     1  180.0000771  4.1840000  2
    820    823    824    825     1  180.0000771  5.8576000  1
    820    823    824    825     1  180.0000771  11.2968000  2
    820    823    824    826     1  180.0000771  6.6944000  1
    820    823    824    826     1  180.0000771  15.3552800  2
    820    823    824    826     1  0.0000000  1.2970400  3
    866    867    870    873     1  0.0000000  0.6508444  3
    865    864    866    867     1  180.0000771  5.8576000  1
    865    864    866    867     1  180.0000771  11.2968000  2
    864    866    867    870     1  180.0000771  3.3472000  1
    864    866    867    870     1  0.0000000  1.6024720  3
    863    864    866    867     1  180.0000771  6.6944000  1
    863    864    866    867     1  180.0000771  15.3552800  2
    863    864    866    867     1  0.0000000  1.2970400  3
    861    863    864    865     1  180.0000771  2.4267200  2
    861    863    864    866     1  180.0000771  4.1840000  2
    859    861    863    864     1  180.0000771  15.1670000  2
    856    855    854    859     1  180.0000771  15.1670000  2
    856    863    861    859     1  180.0000771  15.1670000  2
    856    863    864    865     1  180.0000771  2.4267200  2
    856    863    864    866     1  180.0000771  4.1840000  2
    855    854    859    861     1  180.0000771  15.1670000  2
    855    856    863    861     1  180.0000771  15.1670000  2
    855    856    863    864     1  180.0000771  15.1670000  2
    854    855    856    863     1  180.0000771  15.1670000  2
    854    859    861    863     1  180.0000771  15.1670000  2
    853    852    854    855     1  180.0000771  2.4267200  2
    853    852    854    859     1  180.0000771  2.4267200  2
    852    854    855    856     1  180.0000771  15.1670000  2
    852    854    859    861     1  180.0000771  15.1670000  2
    851    852    854    855     1  180.0000771  4.1840000  2
    851    852    854    859     1  180.0000771  4.1840000  2
    848    851    852    853     1  180.0000771  5.8576000  1
    848    851    852    853     1  180.0000771  11.2968000  2
    848    851    852    854     1  180.0000771  6.6944000  1
    848    851    852    854     1  180.0000771  15.3552800  2
    848    851    852    854     1  0.0000000  1.2970400  3
    191    194    192    193     4  180.0000771  43.9320000  2
    179    182    180    181     4  180.0000771  43.9320000  2
    219    222    220    221     4  180.0000771  43.9320000  2
    207    210    208    209     4  180.0000771  43.9320000  2
    247    250    248    249     4  180.0000771  43.9320000  2
    235    238    236    237     4  180.0000771  43.9320000  2
    275    278    276    277     4  180.0000771  43.9320000  2
    263    266    264    265     4  180.0000771  43.9320000  2
    303    306    304    305     4  180.0000771  43.9320000  2
    291    294    292    293     4  180.0000771  43.9320000  2
    331    334    332    333     4  180.0000771  43.9320000  2
    319    322    320    321     4  180.0000771  43.9320000  2
    359    362    360    361     4  180.0000771  43.9320000  2
    347    350    348    349     4  180.0000771  43.9320000  2
    387    390    388    389     4  180.0000771  43.9320000  2
    375    378    376    377     4  180.0000771  43.9320000  2
    415    418    416    417     4  180.0000771  43.9320000  2
    403    406    404    405     4  180.0000771  43.9320000  2
    443    446    444    445     4  180.0000771  43.9320000  2
    431    434    432    433     4  180.0000771  43.9320000  2
    471    474    472    473     4  180.0000771  43.9320000  2
    459    462    460    461     4  180.0000771  43.9320000  2
    499    502    500    501     4  180.0000771  43.9320000  2
    487    490    488    489     4  180.0000771  43.9320000  2
    527    530    528    529     4  180.0000771  43.9320000  2
    515    518    516    517     4  180.0000771  43.9320000  2
    555    558    556    557     4  180.0000771  43.9320000  2
    543    546    544    545     4  180.0000771  43.9320000  2
    583    586    584    585     4  180.0000771  43.9320000  2
    571    574    572    573     4  180.0000771  43.9320000  2
    611    614    612    613     4  180.0000771  43.9320000  2
    599    602    600    601     4  180.0000771  43.9320000  2
    639    642    640    641     4  180.0000771  43.9320000  2
    627    630    628    629     4  180.0000771  43.9320000  2
    667    670    668    669     4  180.0000771  43.9320000  2
    655    658    656    657     4  180.0000771  43.9320000  2
    695    698    696    697     4  180.0000771  43.9320000  2
    683    686    684    685     4  180.0000771  43.9320000  2
    723    726    724    725     4  180.0000771  43.9320000  2
    711    714    712    713     4  180.0000771  43.9320000  2
    751    754    752    753     4  180.0000771  43.9320000  2
    739    742    740    741     4  180.0000771  43.9320000  2
    779    782    780    781     4  180.0000771  43.9320000  2
    767    770    768    769     4  180.0000771  43.9320000  2
    807    810    808    809     4  180.0000771  43.9320000  2
    795    798    796    797     4  180.0000771  43.9320000  2
    835    838    836    837     4  180.0000771  43.9320000  2
    823    826    824    825     4  180.0000771  43.9320000  2
    863    866    864    865     4  180.0000771  43.9320000  2
    851    854    852    853     4  180.0000771  43.9320000  2
     35     33     36     37     1  0.0000000  0.6508444  3
     35     33     36     38     1  0.0000000  0.6508444  3
     35     33     36     39     1  0.0000000  1.0460000  1
     35     33     36     39     1  0.0000000  0.0000000  3
     34     33     36     37     1  0.0000000  0.6508444  3
     34     33     36     38     1  0.0000000  0.6508444  3
     34     33     36     39     1  0.0000000  1.0460000  1
     34     33     36     39     1  0.0000000  0.0000000  3
     32     33     36     37     1  0.0000000  1.0460000  1
     32     33     36     37     1  0.0000000  0.0000000  3
     32     33     36     38     1  0.0000000  1.0460000  1
     32     33     36     38     1  0.0000000  0.0000000  3
     31     29     32     33     1  0.0000000  1.4100080  3
     30     29     32     33     1  0.0000000  1.4100080  3
     29     32     33     34     1  0.0000000  1.4100080  3
     29     32     33     35     1  0.0000000  1.4100080  3
     28     26     29     30     1  0.0000000  0.6508444  3
     28     26     29     31     1  0.0000000  0.6508444  3
     28     26     29     32     1  0.0000000  1.0460000  1
     28     26     29     32     1  0.0000000  0.0000000  3
     27     26     29     30     1  0.0000000  0.6508444  3
     27     26     29     31     1  0.0000000  0.6508444  3
     27     26     29     32     1  0.0000000  1.0460000  1
     27     26     29     32     1  0.0000000  0.0000000  3
     25     26     29     30     1  0.0000000  1.0460000  1
     25     26     29     30     1  0.0000000  0.0000000  3
     25     26     29     31     1  0.0000000  1.0460000  1
     25     26     29     31     1  0.0000000  0.0000000  3
     24     22     25     26     1  0.0000000  1.4100080  3
     23     22     25     26     1  0.0000000  1.4100080  3
     22     25     26     27     1  0.0000000  1.4100080  3
     22     25     26     28     1  0.0000000  1.4100080  3
     21     19     22     23     1  0.0000000  0.6508444  3
     21     19     22     24     1  0.0000000  0.6508444  3
     21     19     22     25     1  0.0000000  1.0460000  1
     21     19     22     25     1  0.0000000  0.0000000  3
     20     19     22     23     1  0.0000000  0.6508444  3
     20     19     22     24     1  0.0000000  0.6508444  3
     20     19     22     25     1  0.0000000  1.0460000  1
     20     19     22     25     1  0.0000000  0.0000000  3
     18     19     22     23     1  0.0000000  1.0460000  1
     18     19     22     23     1  0.0000000  0.0000000  3
     18     19     22     24     1  0.0000000  1.0460000  1
     18     19     22     24     1  0.0000000  0.0000000  3
     17     15     18     19     1  0.0000000  1.4100080  3
     16     15     18     19     1  0.0000000  1.4100080  3
     15     18     19     20     1  0.0000000  1.4100080  3
     15     18     19     21     1  0.0000000  1.4100080  3
     14     12     15     16     1  0.0000000  0.6508444  3
     14     12     15     17     1  0.0000000  0.6508444  3
     14     12     15     18     1  0.0000000  1.0460000  1
     14     12     15     18     1  0.0000000  0.0000000  3
     13     12     15     16     1  0.0000000  0.6508444  3
     13     12     15     17     1  0.0000000  0.6508444  3
     13     12     15     18     1  0.0000000  1.0460000  1
     13     12     15     18     1  0.0000000  0.0000000  3
     11     12     15     16     1  0.0000000  1.0460000  1
     11     12     15     16     1  0.0000000  0.0000000  3
     11     12     15     17     1  0.0000000  1.0460000  1
     11     12     15     17     1  0.0000000  0.0000000  3
     10      8     11     12     1  0.0000000  1.4100080  3
      9      8     11     12     1  0.0000000  1.4100080  3
      8     11     12     13     1  0.0000000  1.4100080  3
      8     11     12     14     1  0.0000000  1.4100080  3
      7      5      8      9     1  0.0000000  0.6508444  3
      7      5      8     10     1  0.0000000  0.6508444  3
      7      5      8     11     1  0.0000000  1.0460000  1
      7      5      8     11     1  0.0000000  0.0000000  3
      6      5      8      9     1  0.0000000  0.6508444  3
      6      5      8     10     1  0.0000000  0.6508444  3
      6      5      8     11     1  0.0000000  1.0460000  1
      6      5      8     11     1  0.0000000  0.0000000  3
      4      5      8      9     1  0.0000000  1.0460000  1
      4      5      8      9     1  0.0000000  0.0000000  3
      4      5      8     10     1  0.0000000  1.0460000  1
      4      5      8     10     1  0.0000000  0.0000000  3
      3      1      4      5     1  0.0000000  1.4100080  3
      2      1      4      5     1  0.0000000  1.4100080  3
      1      4      5      6     1  0.0000000  1.4100080  3
      1      4      5      7     1  0.0000000  1.4100080  3
     70     68     71     72     1  0.0000000  0.6508444  3
     70     68     71     73     1  0.0000000  0.6508444  3
     70     68     71     74     1  0.0000000  1.0460000  1
     70     68     71     74     1  0.0000000  0.0000000  3
     69     68     71     72     1  0.0000000  0.6508444  3
     69     68     71     73     1  0.0000000  0.6508444  3
     69     68     71     74     1  0.0000000  1.0460000  1
     69     68     71     74     1  0.0000000  0.0000000  3
     67     68     71     72     1  0.0000000  1.0460000  1
     67     68     71     72     1  0.0000000  0.0000000  3
     67     68     71     73     1  0.0000000  1.0460000  1
     67     68     71     73     1  0.0000000  0.0000000  3
     66     64     67     68     1  0.0000000  1.4100080  3
     65     64     67     68     1  0.0000000  1.4100080  3
     64     67     68     69     1  0.0000000  1.4100080  3
     64     67     68     70     1  0.0000000  1.4100080  3
     63     61     64     65     1  0.0000000  0.6508444  3
     63     61     64     66     1  0.0000000  0.6508444  3
     63     61     64     67     1  0.0000000  1.0460000  1
     63     61     64     67     1  0.0000000  0.0000000  3
     62     61     64     65     1  0.0000000  0.6508444  3
     62     61     64     66     1  0.0000000  0.6508444  3
     62     61     64     67     1  0.0000000  1.0460000  1
     62     61     64     67     1  0.0000000  0.0000000  3
     60     61     64     65     1  0.0000000  1.0460000  1
     60     61     64     65     1  0.0000000  0.0000000  3
     60     61     64     66     1  0.0000000  1.0460000  1
     60     61     64     66     1  0.0000000  0.0000000  3
     59     57     60     61     1  0.0000000  1.4100080  3
     58     57     60     61     1  0.0000000  1.4100080  3
     57     60     61     62     1  0.0000000  1.4100080  3
     57     60     61     63     1  0.0000000  1.4100080  3
     56     54     57     58     1  0.0000000  0.6508444  3
     56     54     57     59     1  0.0000000  0.6508444  3
     56     54     57     60     1  0.0000000  1.0460000  1
     56     54     57     60     1  0.0000000  0.0000000  3
     55     54     57     58     1  0.0000000  0.6508444  3
     55     54     57     59     1  0.0000000  0.6508444  3
     55     54     57     60     1  0.0000000  1.0460000  1
     55     54     57     60     1  0.0000000  0.0000000  3
     53     54     57     58     1  0.0000000  1.0460000  1
     53     54     57     58     1  0.0000000  0.0000000  3
     53     54     57     59     1  0.0000000  1.0460000  1
     53     54     57     59     1  0.0000000  0.0000000  3
     52     50     53     54     1  0.0000000  1.4100080  3
     51     50     53     54     1  0.0000000  1.4100080  3
     50     53     54     55     1  0.0000000  1.4100080  3
     50     53     54     56     1  0.0000000  1.4100080  3
     49     47     50     51     1  0.0000000  0.6508444  3
     49     47     50     52     1  0.0000000  0.6508444  3
     49     47     50     53     1  0.0000000  1.0460000  1
     49     47     50     53     1  0.0000000  0.0000000  3
     48     47     50     51     1  0.0000000  0.6508444  3
     48     47     50     52     1  0.0000000  0.6508444  3
     48     47     50     53     1  0.0000000  1.0460000  1
     48     47     50     53     1  0.0000000  0.0000000  3
     46     47     50     51     1  0.0000000  1.0460000  1
     46     47     50     51     1  0.0000000  0.0000000  3
     46     47     50     52     1  0.0000000  1.0460000  1
     46     47     50     52     1  0.0000000  0.0000000  3
     45     43     46     47     1  0.0000000  1.4100080  3
     44     43     46     47     1  0.0000000  1.4100080  3
     43     46     47     48     1  0.0000000  1.4100080  3
     43     46     47     49     1  0.0000000  1.4100080  3
     42     40     43     44     1  0.0000000  0.6508444  3
     42     40     43     45     1  0.0000000  0.6508444  3
     42     40     43     46     1  0.0000000  1.0460000  1
     42     40     43     46     1  0.0000000  0.0000000  3
     41     40     43     44     1  0.0000000  0.6508444  3
     41     40     43     45     1  0.0000000  0.6508444  3
     41     40     43     46     1  0.0000000  1.0460000  1
     41     40     43     46     1  0.0000000  0.0000000  3
     39     40     43     44     1  0.0000000  1.0460000  1
     39     40     43     44     1  0.0000000  0.0000000  3
     39     40     43     45     1  0.0000000  1.0460000  1
     39     40     43     45     1  0.0000000  0.0000000  3
     38     36     39     40     1  0.0000000  1.4100080  3
     37     36     39     40     1  0.0000000  1.4100080  3
     36     39     40     41     1  0.0000000  1.4100080  3
     36     39     40     42     1  0.0000000  1.4100080  3
    105    103    106    107     1  0.0000000  0.6508444  3
    105    103    106    108     1  0.0000000  0.6508444  3
    105    103    106    109     1  0.0000000  1.0460000  1
    105    103    106    109     1  0.0000000  0.0000000  3
    104    103    106    107     1  0.0000000  0.6508444  3
    104    103    106    108     1  0.0000000  0.6508444  3
    104    103    106    109     1  0.0000000  1.0460000  1
    104    103    106    109     1  0.0000000  0.0000000  3
    102    103    106    107     1  0.0000000  1.0460000  1
    102    103    106    107     1  0.0000000  0.0000000  3
    102    103    106    108     1  0.0000000  1.0460000  1
    102    103    106    108     1  0.0000000  0.0000000  3
    101     99    102    103     1  0.0000000  1.4100080  3
    100     99    102    103     1  0.0000000  1.4100080  3
     99    102    103    104     1  0.0000000  1.4100080  3
     99    102    103    105     1  0.0000000  1.4100080  3
     98     96     99    100     1  0.0000000  0.6508444  3
     98     96     99    101     1  0.0000000  0.6508444  3
     98     96     99    102     1  0.0000000  1.0460000  1
     98     96     99    102     1  0.0000000  0.0000000  3
     97     96     99    100     1  0.0000000  0.6508444  3
     97     96     99    101     1  0.0000000  0.6508444  3
     97     96     99    102     1  0.0000000  1.0460000  1
     97     96     99    102     1  0.0000000  0.0000000  3
     95     96     99    100     1  0.0000000  1.0460000  1
     95     96     99    100     1  0.0000000  0.0000000  3
     95     96     99    101     1  0.0000000  1.0460000  1
     95     96     99    101     1  0.0000000  0.0000000  3
     94     92     95     96     1  0.0000000  1.4100080  3
     93     92     95     96     1  0.0000000  1.4100080  3
     92     95     96     97     1  0.0000000  1.4100080  3
     92     95     96     98     1  0.0000000  1.4100080  3
     91     89     92     93     1  0.0000000  0.6508444  3
     91     89     92     94     1  0.0000000  0.6508444  3
     91     89     92     95     1  0.0000000  1.0460000  1
     91     89     92     95     1  0.0000000  0.0000000  3
     90     89     92     93     1  0.0000000  0.6508444  3
     90     89     92     94     1  0.0000000  0.6508444  3
     90     89     92     95     1  0.0000000  1.0460000  1
     90     89     92     95     1  0.0000000  0.0000000  3
     88     89     92     93     1  0.0000000  1.0460000  1
     88     89     92     93     1  0.0000000  0.0000000  3
     88     89     92     94     1  0.0000000  1.0460000  1
     88     89     92     94     1  0.0000000  0.0000000  3
     87     85     88     89     1  0.0000000  1.4100080  3
     86     85     88     89     1  0.0000000  1.4100080  3
     85     88     89     90     1  0.0000000  1.4100080  3
     85     88     89     91     1  0.0000000  1.4100080  3
     84     82     85     86     1  0.0000000  0.6508444  3
     84     82     85     87     1  0.0000000  0.6508444  3
     84     82     85     88     1  0.0000000  1.0460000  1
     84     82     85     88     1  0.0000000  0.0000000  3
     83     82     85     86     1  0.0000000  0.6508444  3
     83     82     85     87     1  0.0000000  0.6508444  3
     83     82     85     88     1  0.0000000  1.0460000  1
     83     82     85     88     1  0.0000000  0.0000000  3
     81     82     85     86     1  0.0000000  1.0460000  1
     81     82     85     86     1  0.0000000  0.0000000  3
     81     82     85     87     1  0.0000000  1.0460000  1
     81     82     85     87     1  0.0000000  0.0000000  3
     80     78     81     82     1  0.0000000  1.4100080  3
     79     78     81     82     1  0.0000000  1.4100080  3
     78     81     82     83     1  0.0000000  1.4100080  3
     78     81     82     84     1  0.0000000  1.4100080  3
     77     75     78     79     1  0.0000000  0.6508444  3
     77     75     78     80     1  0.0000000  0.6508444  3
     77     75     78     81     1  0.0000000  1.0460000  1
     77     75     78     81     1  0.0000000  0.0000000  3
     76     75     78     79     1  0.0000000  0.6508444  3
     76     75     78     80     1  0.0000000  0.6508444  3
     76     75     78     81     1  0.0000000  1.0460000  1
     76     75     78     81     1  0.0000000  0.0000000  3
     74     75     78     79     1  0.0000000  1.0460000  1
     74     75     78     79     1  0.0000000  0.0000000  3
     74     75     78     80     1  0.0000000  1.0460000  1
     74     75     78     80     1  0.0000000  0.0000000  3
     73     71     74     75     1  0.0000000  1.4100080  3
     72     71     74     75     1  0.0000000  1.4100080  3
     71     74     75     76     1  0.0000000  1.4100080  3
     71     74     75     77     1  0.0000000  1.4100080  3
    140    138    141    142     1  0.0000000  0.6508444  3
    140    138    141    143     1  0.0000000  0.6508444  3
    140    138    141    144     1  0.0000000  1.0460000  1
    140    138    141    144     1  0.0000000  0.0000000  3
    139    138    141    142     1  0.0000000  0.6508444  3
    139    138    141    143     1  0.0000000  0.6508444  3
    139    138    141    144     1  0.0000000  1.0460000  1
    139    138    141    144     1  0.0000000  0.0000000  3
    137    138    141    142     1  0.0000000  1.0460000  1
    137    138    141    142     1  0.0000000  0.0000000  3
    137    138    141    143     1  0.0000000  1.0460000  1
    137    138    141    143     1  0.0000000  0.0000000  3
    136    134    137    138     1  0.0000000  1.4100080  3
    135    134    137    138     1  0.0000000  1.4100080  3
    134    137    138    139     1  0.0000000  1.4100080  3
    134    137    138    140     1  0.0000000  1.4100080  3
    133    131    134    135     1  0.0000000  0.6508444  3
    133    131    134    136     1  0.0000000  0.6508444  3
    133    131    134    137     1  0.0000000  1.0460000  1
    133    131    134    137     1  0.0000000  0.0000000  3
    132    131    134    135     1  0.0000000  0.6508444  3
    132    131    134    136     1  0.0000000  0.6508444  3
    132    131    134    137     1  0.0000000  1.0460000  1
    132    131    134    137     1  0.0000000  0.0000000  3
    130    131    134    135     1  0.0000000  1.0460000  1
    130    131    134    135     1  0.0000000  0.0000000  3
    130    131    134    136     1  0.0000000  1.0460000  1
    130    131    134    136     1  0.0000000  0.0000000  3
    129    127    130    131     1  0.0000000  1.4100080  3
    128    127    130    131     1  0.0000000  1.4100080  3
    127    130    131    132     1  0.0000000  1.4100080  3
    127    130    131    133     1  0.0000000  1.4100080  3
    126    124    127    128     1  0.0000000  0.6508444  3
    126    124    127    129     1  0.0000000  0.6508444  3
    126    124    127    130     1  0.0000000  1.0460000  1
    126    124    127    130     1  0.0000000  0.0000000  3
    125    124    127    128     1  0.0000000  0.6508444  3
    125    124    127    129     1  0.0000000  0.6508444  3
    125    124    127    130     1  0.0000000  1.0460000  1
    125    124    127    130     1  0.0000000  0.0000000  3
    123    124    127    128     1  0.0000000  1.0460000  1
    123    124    127    128     1  0.0000000  0.0000000  3
    123    124    127    129     1  0.0000000  1.0460000  1
    123    124    127    129     1  0.0000000  0.0000000  3
    122    120    123    124     1  0.0000000  1.4100080  3
    121    120    123    124     1  0.0000000  1.4100080  3
    120    123    124    125     1  0.0000000  1.4100080  3
    120    123    124    126     1  0.0000000  1.4100080  3
    119    117    120    121     1  0.0000000  0.6508444  3
    119    117    120    122     1  0.0000000  0.6508444  3
    119    117    120    123     1  0.0000000  1.0460000  1
    119    117    120    123     1  0.0000000  0.0000000  3
    118    117    120    121     1  0.0000000  0.6508444  3
    118    117    120    122     1  0.0000000  0.6508444  3
    118    117    120    123     1  0.0000000  1.0460000  1
    118    117    120    123     1  0.0000000  0.0000000  3
    116    117    120    121     1  0.0000000  1.0460000  1
    116    117    120    121     1  0.0000000  0.0000000  3
    116    117    120    122     1  0.0000000  1.0460000  1
    116    117    120    122     1  0.0000000  0.0000000  3
    115    113    116    117     1  0.0000000  1.4100080  3
    114    113    116    117     1  0.0000000  1.4100080  3
    113    116    117    118     1  0.0000000  1.4100080  3
    113    116    117    119     1  0.0000000  1.4100080  3
    112    110    113    114     1  0.0000000  0.6508444  3
    112    110    113    115     1  0.0000000  0.6508444  3
    112    110    113    116     1  0.0000000  1.0460000  1
    112    110    113    116     1  0.0000000  0.0000000  3
    111    110    113    114     1  0.0000000  0.6508444  3
    111    110    113    115     1  0.0000000  0.6508444  3
    111    110    113    116     1  0.0000000  1.0460000  1
    111    110    113    116     1  0.0000000  0.0000000  3
    109    110    113    114     1  0.0000000  1.0460000  1
    109    110    113    114     1  0.0000000  0.0000000  3
    109    110    113    115     1  0.0000000  1.0460000  1
    109    110    113    115     1  0.0000000  0.0000000  3
    108    106    109    110     1  0.0000000  1.4100080  3
    107    106    109    110     1  0.0000000  1.4100080  3
    106    109    110    111     1  0.0000000  1.4100080  3
    106    109    110    112     1  0.0000000  1.4100080  3
    175    173    176    177     1  0.0000000  0.6508444  3
    175    173    176    178     1  0.0000000  0.6508444  3
    175    173    176    179     1  0.0000000  1.0460000  1
    175    173    176    179     1  0.0000000  0.0000000  3
    174    173    176    177     1  0.0000000  0.6508444  3
    174    173    176    178     1  0.0000000  0.6508444  3
    174    173    176    179     1  0.0000000  1.0460000  1
    174    173    176    179     1  0.0000000  0.0000000  3
    172    173    176    177     1  0.0000000  1.0460000  1
    172    173    176    177     1  0.0000000  0.0000000  3
    172    173    176    178     1  0.0000000  1.0460000  1
    172    173    176    178     1  0.0000000  0.0000000  3
    171    169    172    173     1  0.0000000  1.4100080  3
    170    169    172    173     1  0.0000000  1.4100080  3
    169    172    173    174     1  0.0000000  1.4100080  3
    169    172    173    175     1  0.0000000  1.4100080  3
    168    166    169    170     1  0.0000000  0.6508444  3
    168    166    169    171     1  0.0000000  0.6508444  3
    168    166    169    172     1  0.0000000  1.0460000  1
    168    166    169    172     1  0.0000000  0.0000000  3
    167    166    169    170     1  0.0000000  0.6508444  3
    167    166    169    171     1  0.0000000  0.6508444  3
    167    166    169    172     1  0.0000000  1.0460000  1
    167    166    169    172     1  0.0000000  0.0000000  3
    165    166    169    170     1  0.0000000  1.0460000  1
    165    166    169    170     1  0.0000000  0.0000000  3
    165    166    169    171     1  0.0000000  1.0460000  1
    165    166    169    171     1  0.0000000  0.0000000  3
    164    162    165    166     1  0.0000000  1.4100080  3
    163    162    165    166     1  0.0000000  1.4100080  3
    162    165    166    167     1  0.0000000  1.4100080  3
    162    165    166    168     1  0.0000000  1.4100080  3
    161    159    162    163     1  0.0000000  0.6508444  3
    161    159    162    164     1  0.0000000  0.6508444  3
    161    159    162    165     1  0.0000000  1.0460000  1
    161    159    162    165     1  0.0000000  0.0000000  3
    160    159    162    163     1  0.0000000  0.6508444  3
    160    159    162    164     1  0.0000000  0.6508444  3
    160    159    162    165     1  0.0000000  1.0460000  1
    160    159    162    165     1  0.0000000  0.0000000  3
    158    159    162    163     1  0.0000000  1.0460000  1
    158    159    162    163     1  0.0000000  0.0000000  3
    158    159    162    164     1  0.0000000  1.0460000  1
    158    159    162    164     1  0.0000000  0.0000000  3
    157    155    158    159     1  0.0000000  1.4100080  3
    156    155    158    159     1  0.0000000  1.4100080  3
    155    158    159    160     1  0.0000000  1.4100080  3
    155    158    159    161     1  0.0000000  1.4100080  3
    154    152    155    156     1  0.0000000  0.6508444  3
    154    152    155    157     1  0.0000000  0.6508444  3
    154    152    155    158     1  0.0000000  1.0460000  1
    154    152    155    158     1  0.0000000  0.0000000  3
    153    152    155    156     1  0.0000000  0.6508444  3
    153    152    155    157     1  0.0000000  0.6508444  3
    153    152    155    158     1  0.0000000  1.0460000  1
    153    152    155    158     1  0.0000000  0.0000000  3
    151    152    155    156     1  0.0000000  1.0460000  1
    151    152    155    156     1  0.0000000  0.0000000  3
    151    152    155    157     1  0.0000000  1.0460000  1
    151    152    155    157     1  0.0000000  0.0000000  3
    150    148    151    152     1  0.0000000  1.4100080  3
    149    148    151    152     1  0.0000000  1.4100080  3
    148    151    152    153     1  0.0000000  1.4100080  3
    148    151    152    154     1  0.0000000  1.4100080  3
    147    145    148    149     1  0.0000000  0.6508444  3
    147    145    148    150     1  0.0000000  0.6508444  3
    147    145    148    151     1  0.0000000  1.0460000  1
    147    145    148    151     1  0.0000000  0.0000000  3
    146    145    148    149     1  0.0000000  0.6508444  3
    146    145    148    150     1  0.0000000  0.6508444  3
    146    145    148    151     1  0.0000000  1.0460000  1
    146    145    148    151     1  0.0000000  0.0000000  3
    144    145    148    149     1  0.0000000  1.0460000  1
    144    145    148    149     1  0.0000000  0.0000000  3
    144    145    148    150     1  0.0000000  1.0460000  1
    144    145    148    150     1  0.0000000  0.0000000  3
    143    141    144    145     1  0.0000000  1.4100080  3
    142    141    144    145     1  0.0000000  1.4100080  3
    141    144    145    146     1  0.0000000  1.4100080  3
    141    144    145    147     1  0.0000000  1.4100080  3
    203    201    204    205     1  0.0000000  0.6508444  3
    203    201    204    206     1  0.0000000  0.6508444  3
    203    201    204    207     1  0.0000000  1.0460000  1
    203    201    204    207     1  0.0000000  0.0000000  3
    202    201    204    205     1  0.0000000  0.6508444  3
    202    201    204    206     1  0.0000000  0.6508444  3
    202    201    204    207     1  0.0000000  1.0460000  1
    202    201    204    207     1  0.0000000  0.0000000  3
    200    198    201    202     1  0.0000000  0.5020800  3
    200    198    201    203     1  0.0000000  0.5020800  3
    200    198    201    204     1  0.0000000  0.5439200  3
    199    198    201    202     1  0.0000000  0.5020800  3
    199    198    201    203     1  0.0000000  0.5020800  3
    199    198    201    204     1  0.0000000  0.5439200  3
    198    201    204    205     1  0.0000000  0.6508444  3
    198    201    204    206     1  0.0000000  0.6508444  3
    197    195    198    199     1  0.0000000  0.6508444  3
    197    195    198    200     1  0.0000000  0.6508444  3
    197    195    198    201     1  0.0000000  0.6508444  3
    196    195    198    199     1  0.0000000  0.6508444  3
    196    195    198    200     1  0.0000000  0.6508444  3
    196    195    198    201     1  0.0000000  0.6508444  3
    195    198    201    202     1  0.0000000  0.5439200  3
    195    198    201    203     1  0.0000000  0.5439200  3
    194    195    198    199     1  0.0000000  1.0460000  1
    194    195    198    199     1  0.0000000  0.0000000  3
    194    195    198    200     1  0.0000000  1.0460000  1
    194    195    198    200     1  0.0000000  0.0000000  3
    192    194    195    196     1  0.0000000  1.6038667  3
    192    194    195    197     1  0.0000000  1.6038667  3
    190    189    191    192     1  180.0000771  15.1670000  2
    188    187    189    190     1  180.0000771  15.1670000  2
    188    187    189    191     1  180.0000771  15.1670000  2
    186    183    182    187     1  180.0000771  15.1670000  2
    186    183    184    191     1  180.0000771  15.1670000  2
    185    184    183    186     1  180.0000771  15.1670000  2
    185    184    191    189     1  180.0000771  15.1670000  2
    185    184    191    192     1  180.0000771  15.1670000  2
    184    191    189    190     1  180.0000771  15.1670000  2
    183    182    187    188     1  180.0000771  15.1670000  2
    182    183    184    185     1  180.0000771  15.1670000  2
    182    187    189    190     1  180.0000771  15.1670000  2
    180    182    183    186     1  180.0000771  15.1670000  2
    180    182    187    188     1  180.0000771  15.1670000  2
    178    176    179    180     1  0.0000000  1.6038667  3
    177    176    179    180     1  0.0000000  1.6038667  3
    231    229    232    233     1  0.0000000  0.6508444  3
    231    229    232    234     1  0.0000000  0.6508444  3
    231    229    232    235     1  0.0000000  1.0460000  1
    231    229    232    235     1  0.0000000  0.0000000  3
    230    229    232    233     1  0.0000000  0.6508444  3
    230    229    232    234     1  0.0000000  0.6508444  3
    230    229    232    235     1  0.0000000  1.0460000  1
    230    229    232    235     1  0.0000000  0.0000000  3
    228    226    229    230     1  0.0000000  0.5020800  3
    228    226    229    231     1  0.0000000  0.5020800  3
    228    226    229    232     1  0.0000000  0.5439200  3
    227    226    229    230     1  0.0000000  0.5020800  3
    227    226    229    231     1  0.0000000  0.5020800  3
    227    226    229    232     1  0.0000000  0.5439200  3
    226    229    232    233     1  0.0000000  0.6508444  3
    226    229    232    234     1  0.0000000  0.6508444  3
    225    223    226    227     1  0.0000000  0.6508444  3
    225    223    226    228     1  0.0000000  0.6508444  3
    225    223    226    229     1  0.0000000  0.6508444  3
    224    223    226    227     1  0.0000000  0.6508444  3
    224    223    226    228     1  0.0000000  0.6508444  3
    224    223    226    229     1  0.0000000  0.6508444  3
    223    226    229    230     1  0.0000000  0.5439200  3
    223    226    229    231     1  0.0000000  0.5439200  3
    222    223    226    227     1  0.0000000  1.0460000  1
    222    223    226    227     1  0.0000000  0.0000000  3
    222    223    226    228     1  0.0000000  1.0460000  1
    222    223    226    228     1  0.0000000  0.0000000  3
    220    222    223    224     1  0.0000000  1.6038667  3
    220    222    223    225     1  0.0000000  1.6038667  3
    218    217    219    220     1  180.0000771  15.1670000  2
    216    215    217    218     1  180.0000771  15.1670000  2
    216    215    217    219     1  180.0000771  15.1670000  2
    214    211    210    215     1  180.0000771  15.1670000  2
    214    211    212    219     1  180.0000771  15.1670000  2
    213    212    211    214     1  180.0000771  15.1670000  2
    213    212    219    217     1  180.0000771  15.1670000  2
    213    212    219    220     1  180.0000771  15.1670000  2
    212    219    217    218     1  180.0000771  15.1670000  2
    211    210    215    216     1  180.0000771  15.1670000  2
    210    211    212    213     1  180.0000771  15.1670000  2
    210    215    217    218     1  180.0000771  15.1670000  2
    208    210    211    214     1  180.0000771  15.1670000  2
    208    210    215    216     1  180.0000771  15.1670000  2
    206    204    207    208     1  0.0000000  1.6038667  3
    205    204    207    208     1  0.0000000  1.6038667  3
    259    257    260    261     1  0.0000000  0.6508444  3
    259    257    260    262     1  0.0000000  0.6508444  3
    259    257    260    263     1  0.0000000  1.0460000  1
    259    257    260    263     1  0.0000000  0.0000000  3
    258    257    260    261     1  0.0000000  0.6508444  3
    258    257    260    262     1  0.0000000  0.6508444  3
    258    257    260    263     1  0.0000000  1.0460000  1
    258    257    260    263     1  0.0000000  0.0000000  3
    256    254    257    258     1  0.0000000  0.5020800  3
    256    254    257    259     1  0.0000000  0.5020800  3
    256    254    257    260     1  0.0000000  0.5439200  3
    255    254    257    258     1  0.0000000  0.5020800  3
    255    254    257    259     1  0.0000000  0.5020800  3
    255    254    257    260     1  0.0000000  0.5439200  3
    254    257    260    261     1  0.0000000  0.6508444  3
    254    257    260    262     1  0.0000000  0.6508444  3
    253    251    254    255     1  0.0000000  0.6508444  3
    253    251    254    256     1  0.0000000  0.6508444  3
    253    251    254    257     1  0.0000000  0.6508444  3
    252    251    254    255     1  0.0000000  0.6508444  3
    252    251    254    256     1  0.0000000  0.6508444  3
    252    251    254    257     1  0.0000000  0.6508444  3
    251    254    257    258     1  0.0000000  0.5439200  3
    251    254    257    259     1  0.0000000  0.5439200  3
    250    251    254    255     1  0.0000000  1.0460000  1
    250    251    254    255     1  0.0000000  0.0000000  3
    250    251    254    256     1  0.0000000  1.0460000  1
    250    251    254    256     1  0.0000000  0.0000000  3
    248    250    251    252     1  0.0000000  1.6038667  3
    248    250    251    253     1  0.0000000  1.6038667  3
    246    245    247    248     1  180.0000771  15.1670000  2
    244    243    245    246     1  180.0000771  15.1670000  2
    244    243    245    247     1  180.0000771  15.1670000  2
    242    239    238    243     1  180.0000771  15.1670000  2
    242    239    240    247     1  180.0000771  15.1670000  2
    241    240    239    242     1  180.0000771  15.1670000  2
    241    240    247    245     1  180.0000771  15.1670000  2
    241    240    247    248     1  180.0000771  15.1670000  2
    240    247    245    246     1  180.0000771  15.1670000  2
    239    238    243    244     1  180.0000771  15.1670000  2
    238    239    240    241     1  180.0000771  15.1670000  2
    238    243    245    246     1  180.0000771  15.1670000  2
    236    238    239    242     1  180.0000771  15.1670000  2
    236    238    243    244     1  180.0000771  15.1670000  2
    234    232    235    236     1  0.0000000  1.6038667  3
    233    232    235    236     1  0.0000000  1.6038667  3
    287    285    288    289     1  0.0000000  0.6508444  3
    287    285    288    290     1  0.0000000  0.6508444  3
    287    285    288    291     1  0.0000000  1.0460000  1
    287    285    288    291     1  0.0000000  0.0000000  3
    286    285    288    289     1  0.0000000  0.6508444  3
    286    285    288    290     1  0.0000000  0.6508444  3
    286    285    288    291     1  0.0000000  1.0460000  1
    286    285    288    291     1  0.0000000  0.0000000  3
    284    282    285    286     1  0.0000000  0.5020800  3
    284    282    285    287     1  0.0000000  0.5020800  3
    284    282    285    288     1  0.0000000  0.5439200  3
    283    282    285    286     1  0.0000000  0.5020800  3
    283    282    285    287     1  0.0000000  0.5020800  3
    283    282    285    288     1  0.0000000  0.5439200  3
    282    285    288    289     1  0.0000000  0.6508444  3
    282    285    288    290     1  0.0000000  0.6508444  3
    281    279    282    283     1  0.0000000  0.6508444  3
    281    279    282    284     1  0.0000000  0.6508444  3
    281    279    282    285     1  0.0000000  0.6508444  3
    280    279    282    283     1  0.0000000  0.6508444  3
    280    279    282    284     1  0.0000000  0.6508444  3
    280    279    282    285     1  0.0000000  0.6508444  3
    279    282    285    286     1  0.0000000  0.5439200  3
    279    282    285    287     1  0.0000000  0.5439200  3
    278    279    282    283     1  0.0000000  1.0460000  1
    278    279    282    283     1  0.0000000  0.0000000  3
    278    279    282    284     1  0.0000000  1.0460000  1
    278    279    282    284     1  0.0000000  0.0000000  3
    276    278    279    280     1  0.0000000  1.6038667  3
    276    278    279    281     1  0.0000000  1.6038667  3
    274    273    275    276     1  180.0000771  15.1670000  2
    272    271    273    274     1  180.0000771  15.1670000  2
    272    271    273    275     1  180.0000771  15.1670000  2
    270    267    266    271     1  180.0000771  15.1670000  2
    270    267    268    275     1  180.0000771  15.1670000  2
    269    268    267    270     1  180.0000771  15.1670000  2
    269    268    275    273     1  180.0000771  15.1670000  2
    269    268    275    276     1  180.0000771  15.1670000  2
    268    275    273    274     1  180.0000771  15.1670000  2
    267    266    271    272     1  180.0000771  15.1670000  2
    266    267    268    269     1  180.0000771  15.1670000  2
    266    271    273    274     1  180.0000771  15.1670000  2
    264    266    267    270     1  180.0000771  15.1670000  2
    264    266    271    272     1  180.0000771  15.1670000  2
    262    260    263    264     1  0.0000000  1.6038667  3
    261    260    263    264     1  0.0000000  1.6038667  3
    315    313    316    317     1  0.0000000  0.6508444  3
    315    313    316    318     1  0.0000000  0.6508444  3
    315    313    316    319     1  0.0000000  1.0460000  1
    315    313    316    319     1  0.0000000  0.0000000  3
    314    313    316    317     1  0.0000000  0.6508444  3
    314    313    316    318     1  0.0000000  0.6508444  3
    314    313    316    319     1  0.0000000  1.0460000  1
    314    313    316    319     1  0.0000000  0.0000000  3
    312    310    313    314     1  0.0000000  0.5020800  3
    312    310    313    315     1  0.0000000  0.5020800  3
    312    310    313    316     1  0.0000000  0.5439200  3
    311    310    313    314     1  0.0000000  0.5020800  3
    311    310    313    315     1  0.0000000  0.5020800  3
    311    310    313    316     1  0.0000000  0.5439200  3
    310    313    316    317     1  0.0000000  0.6508444  3
    310    313    316    318     1  0.0000000  0.6508444  3
    309    307    310    311     1  0.0000000  0.6508444  3
    309    307    310    312     1  0.0000000  0.6508444  3
    309    307    310    313     1  0.0000000  0.6508444  3
    308    307    310    311     1  0.0000000  0.6508444  3
    308    307    310    312     1  0.0000000  0.6508444  3
    308    307    310    313     1  0.0000000  0.6508444  3
    307    310    313    314     1  0.0000000  0.5439200  3
    307    310    313    315     1  0.0000000  0.5439200  3
    306    307    310    311     1  0.0000000  1.0460000  1
    306    307    310    311     1  0.0000000  0.0000000  3
    306    307    310    312     1  0.0000000  1.0460000  1
    306    307    310    312     1  0.0000000  0.0000000  3
    304    306    307    308     1  0.0000000  1.6038667  3
    304    306    307    309     1  0.0000000  1.6038667  3
    302    301    303    304     1  180.0000771  15.1670000  2
    300    299    301    302     1  180.0000771  15.1670000  2
    300    299    301    303     1  180.0000771  15.1670000  2
    298    295    294    299     1  180.0000771  15.1670000  2
    298    295    296    303     1  180.0000771  15.1670000  2
    297    296    295    298     1  180.0000771  15.1670000  2
    297    296    303    301     1  180.0000771  15.1670000  2
    297    296    303    304     1  180.0000771  15.1670000  2
    296    303    301    302     1  180.0000771  15.1670000  2
    295    294    299    300     1  180.0000771  15.1670000  2
    294    295    296    297     1  180.0000771  15.1670000  2
    294    299    301    302     1  180.0000771  15.1670000  2
    292    294    295    298     1  180.0000771  15.1670000  2
    292    294    299    300     1  180.0000771  15.1670000  2
    290    288    291    292     1  0.0000000  1.6038667  3
    289    288    291    292     1  0.0000000  1.6038667  3
    343    341    344    345     1  0.0000000  0.6508444  3
    343    341    344    346     1  0.0000000  0.6508444  3
    343    341    344    347     1  0.0000000  1.0460000  1
    343    341    344    347     1  0.0000000  0.0000000  3
    342    341    344    345     1  0.0000000  0.6508444  3
    342    341    344    346     1  0.0000000  0.6508444  3
    342    341    344    347     1  0.0000000  1.0460000  1
    342    341    344    347     1  0.0000000  0.0000000  3
    340    338    341    342     1  0.0000000  0.5020800  3
    340    338    341    343     1  0.0000000  0.5020800  3
    340    338    341    344     1  0.0000000  0.5439200  3
    339    338    341    342     1  0.0000000  0.5020800  3
    339    338    341    343     1  0.0000000  0.5020800  3
    339    338    341    344     1  0.0000000  0.5439200  3
    338    341    344    345     1  0.0000000  0.6508444  3
    338    341    344    346     1  0.0000000  0.6508444  3
    337    335    338    339     1  0.0000000  0.6508444  3
    337    335    338    340     1  0.0000000  0.6508444  3
    337    335    338    341     1  0.0000000  0.6508444  3
    336    335    338    339     1  0.0000000  0.6508444  3
    336    335    338    340     1  0.0000000  0.6508444  3
    336    335    338    341     1  0.0000000  0.6508444  3
    335    338    341    342     1  0.0000000  0.5439200  3
    335    338    341    343     1  0.0000000  0.5439200  3
    334    335    338    339     1  0.0000000  1.0460000  1
    334    335    338    339     1  0.0000000  0.0000000  3
    334    335    338    340     1  0.0000000  1.0460000  1
    334    335    338    340     1  0.0000000  0.0000000  3
    332    334    335    336     1  0.0000000  1.6038667  3
    332    334    335    337     1  0.0000000  1.6038667  3
    330    329    331    332     1  180.0000771  15.1670000  2
    328    327    329    330     1  180.0000771  15.1670000  2
    328    327    329    331     1  180.0000771  15.1670000  2
    326    323    322    327     1  180.0000771  15.1670000  2
    326    323    324    331     1  180.0000771  15.1670000  2
    325    324    323    326     1  180.0000771  15.1670000  2
    325    324    331    329     1  180.0000771  15.1670000  2
    325    324    331    332     1  180.0000771  15.1670000  2
    324    331    329    330     1  180.0000771  15.1670000  2
    323    322    327    328     1  180.0000771  15.1670000  2
    322    323    324    325     1  180.0000771  15.1670000  2
    322    327    329    330     1  180.0000771  15.1670000  2
    320    322    323    326     1  180.0000771  15.1670000  2
    320    322    327    328     1  180.0000771  15.1670000  2
    318    316    319    320     1  0.0000000  1.6038667  3
    317    316    319    320     1  0.0000000  1.6038667  3
    371    369    372    373     1  0.0000000  0.6508444  3
    371    369    372    374     1  0.0000000  0.6508444  3
    371    369    372    375     1  0.0000000  1.0460000  1
    371    369    372    375     1  0.0000000  0.0000000  3
    370    369    372    373     1  0.0000000  0.6508444  3
    370    369    372    374     1  0.0000000  0.6508444  3
    370    369    372    375     1  0.0000000  1.0460000  1
    370    369    372    375     1  0.0000000  0.0000000  3
    368    366    369    370     1  0.0000000  0.5020800  3
    368    366    369    371     1  0.0000000  0.5020800  3
    368    366    369    372     1  0.0000000  0.5439200  3
    367    366    369    370     1  0.0000000  0.5020800  3
    367    366    369    371     1  0.0000000  0.5020800  3
    367    366    369    372     1  0.0000000  0.5439200  3
    366    369    372    373     1  0.0000000  0.6508444  3
    366    369    372    374     1  0.0000000  0.6508444  3
    365    363    366    367     1  0.0000000  0.6508444  3
    365    363    366    368     1  0.0000000  0.6508444  3
    365    363    366    369     1  0.0000000  0.6508444  3
    364    363    366    367     1  0.0000000  0.6508444  3
    364    363    366    368     1  0.0000000  0.6508444  3
    364    363    366    369     1  0.0000000  0.6508444  3
    363    366    369    370     1  0.0000000  0.5439200  3
    363    366    369    371     1  0.0000000  0.5439200  3
    362    363    366    367     1  0.0000000  1.0460000  1
    362    363    366    367     1  0.0000000  0.0000000  3
    362    363    366    368     1  0.0000000  1.0460000  1
    362    363    366    368     1  0.0000000  0.0000000  3
    360    362    363    364     1  0.0000000  1.6038667  3
    360    362    363    365     1  0.0000000  1.6038667  3
    358    357    359    360     1  180.0000771  15.1670000  2
    356    355    357    358     1  180.0000771  15.1670000  2
    356    355    357    359     1  180.0000771  15.1670000  2
    354    351    350    355     1  180.0000771  15.1670000  2
    354    351    352    359     1  180.0000771  15.1670000  2
    353    352    351    354     1  180.0000771  15.1670000  2
    353    352    359    357     1  180.0000771  15.1670000  2
    353    352    359    360     1  180.0000771  15.1670000  2
    352    359    357    358     1  180.0000771  15.1670000  2
    351    350    355    356     1  180.0000771  15.1670000  2
    350    351    352    353     1  180.0000771  15.1670000  2
    350    355    357    358     1  180.0000771  15.1670000  2
    348    350    351    354     1  180.0000771  15.1670000  2
    348    350    355    356     1  180.0000771  15.1670000  2
    346    344    347    348     1  0.0000000  1.6038667  3
    345    344    347    348     1  0.0000000  1.6038667  3
    399    397    400    401     1  0.0000000  0.6508444  3
    399    397    400    402     1  0.0000000  0.6508444  3
    399    397    400    403     1  0.0000000  1.0460000  1
    399    397    400    403     1  0.0000000  0.0000000  3
    398    397    400    401     1  0.0000000  0.6508444  3
    398    397    400    402     1  0.0000000  0.6508444  3
    398    397    400    403     1  0.0000000  1.0460000  1
    398    397    400    403     1  0.0000000  0.0000000  3
    396    394    397    398     1  0.0000000  0.5020800  3
    396    394    397    399     1  0.0000000  0.5020800  3
    396    394    397    400     1  0.0000000  0.5439200  3
    395    394    397    398     1  0.0000000  0.5020800  3
    395    394    397    399     1  0.0000000  0.5020800  3
    395    394    397    400     1  0.0000000  0.5439200  3
    394    397    400    401     1  0.0000000  0.6508444  3
    394    397    400    402     1  0.0000000  0.6508444  3
    393    391    394    395     1  0.0000000  0.6508444  3
    393    391    394    396     1  0.0000000  0.6508444  3
    393    391    394    397     1  0.0000000  0.6508444  3
    392    391    394    395     1  0.0000000  0.6508444  3
    392    391    394    396     1  0.0000000  0.6508444  3
    392    391    394    397     1  0.0000000  0.6508444  3
    391    394    397    398     1  0.0000000  0.5439200  3
    391    394    397    399     1  0.0000000  0.5439200  3
    390    391    394    395     1  0.0000000  1.0460000  1
    390    391    394    395     1  0.0000000  0.0000000  3
    390    391    394    396     1  0.0000000  1.0460000  1
    390    391    394    396     1  0.0000000  0.0000000  3
    388    390    391    392     1  0.0000000  1.6038667  3
    388    390    391    393     1  0.0000000  1.6038667  3
    386    385    387    388     1  180.0000771  15.1670000  2
    384    383    385    386     1  180.0000771  15.1670000  2
    384    383    385    387     1  180.0000771  15.1670000  2
    382    379    378    383     1  180.0000771  15.1670000  2
    382    379    380    387     1  180.0000771  15.1670000  2
    381    380    379    382     1  180.0000771  15.1670000  2
    381    380    387    385     1  180.0000771  15.1670000  2
    381    380    387    388     1  180.0000771  15.1670000  2
    380    387    385    386     1  180.0000771  15.1670000  2
    379    378    383    384     1  180.0000771  15.1670000  2
    378    379    380    381     1  180.0000771  15.1670000  2
    378    383    385    386     1  180.0000771  15.1670000  2
    376    378    379    382     1  180.0000771  15.1670000  2
    376    378    383    384     1  180.0000771  15.1670000  2
    374    372    375    376     1  0.0000000  1.6038667  3
    373    372    375    376     1  0.0000000  1.6038667  3
    427    425    428    429     1  0.0000000  0.6508444  3
    427    425    428    430     1  0.0000000  0.6508444  3
    427    425    428    431     1  0.0000000  1.0460000  1
    427    425    428    431     1  0.0000000  0.0000000  3
    426    425    428    429     1  0.0000000  0.6508444  3
    426    425    428    430     1  0.0000000  0.6508444  3
    426    425    428    431     1  0.0000000  1.0460000  1
    426    425    428    431     1  0.0000000  0.0000000  3
    424    422    425    426     1  0.0000000  0.5020800  3
    424    422    425    427     1  0.0000000  0.5020800  3
    424    422    425    428     1  0.0000000  0.5439200  3
    423    422    425    426     1  0.0000000  0.5020800  3
    423    422    425    427     1  0.0000000  0.5020800  3
    423    422    425    428     1  0.0000000  0.5439200  3
    422    425    428    429     1  0.0000000  0.6508444  3
    422    425    428    430     1  0.0000000  0.6508444  3
    421    419    422    423     1  0.0000000  0.6508444  3
    421    419    422    424     1  0.0000000  0.6508444  3
    421    419    422    425     1  0.0000000  0.6508444  3
    420    419    422    423     1  0.0000000  0.6508444  3
    420    419    422    424     1  0.0000000  0.6508444  3
    420    419    422    425     1  0.0000000  0.6508444  3
    419    422    425    426     1  0.0000000  0.5439200  3
    419    422    425    427     1  0.0000000  0.5439200  3
    418    419    422    423     1  0.0000000  1.0460000  1
    418    419    422    423     1  0.0000000  0.0000000  3
    418    419    422    424     1  0.0000000  1.0460000  1
    418    419    422    424     1  0.0000000  0.0000000  3
    416    418    419    420     1  0.0000000  1.6038667  3
    416    418    419    421     1  0.0000000  1.6038667  3
    414    413    415    416     1  180.0000771  15.1670000  2
    412    411    413    414     1  180.0000771  15.1670000  2
    412    411    413    415     1  180.0000771  15.1670000  2
    410    407    406    411     1  180.0000771  15.1670000  2
    410    407    408    415     1  180.0000771  15.1670000  2
    409    408    407    410     1  180.0000771  15.1670000  2
    409    408    415    413     1  180.0000771  15.1670000  2
    409    408    415    416     1  180.0000771  15.1670000  2
    408    415    413    414     1  180.0000771  15.1670000  2
    407    406    411    412     1  180.0000771  15.1670000  2
    406    407    408    409     1  180.0000771  15.1670000  2
    406    411    413    414     1  180.0000771  15.1670000  2
    404    406    407    410     1  180.0000771  15.1670000  2
    404    406    411    412     1  180.0000771  15.1670000  2
    402    400    403    404     1  0.0000000  1.6038667  3
    401    400    403    404     1  0.0000000  1.6038667  3
    455    453    456    457     1  0.0000000  0.6508444  3
    455    453    456    458     1  0.0000000  0.6508444  3
    455    453    456    459     1  0.0000000  1.0460000  1
    455    453    456    459     1  0.0000000  0.0000000  3
    454    453    456    457     1  0.0000000  0.6508444  3
    454    453    456    458     1  0.0000000  0.6508444  3
    454    453    456    459     1  0.0000000  1.0460000  1
    454    453    456    459     1  0.0000000  0.0000000  3
    452    450    453    454     1  0.0000000  0.5020800  3
    452    450    453    455     1  0.0000000  0.5020800  3
    452    450    453    456     1  0.0000000  0.5439200  3
    451    450    453    454     1  0.0000000  0.5020800  3
    451    450    453    455     1  0.0000000  0.5020800  3
    451    450    453    456     1  0.0000000  0.5439200  3
    450    453    456    457     1  0.0000000  0.6508444  3
    450    453    456    458     1  0.0000000  0.6508444  3
    449    447    450    451     1  0.0000000  0.6508444  3
    449    447    450    452     1  0.0000000  0.6508444  3
    449    447    450    453     1  0.0000000  0.6508444  3
    448    447    450    451     1  0.0000000  0.6508444  3
    448    447    450    452     1  0.0000000  0.6508444  3
    448    447    450    453     1  0.0000000  0.6508444  3
    447    450    453    454     1  0.0000000  0.5439200  3
    447    450    453    455     1  0.0000000  0.5439200  3
    446    447    450    451     1  0.0000000  1.0460000  1
    446    447    450    451     1  0.0000000  0.0000000  3
    446    447    450    452     1  0.0000000  1.0460000  1
    446    447    450    452     1  0.0000000  0.0000000  3
    444    446    447    448     1  0.0000000  1.6038667  3
    444    446    447    449     1  0.0000000  1.6038667  3
    442    441    443    444     1  180.0000771  15.1670000  2
    440    439    441    442     1  180.0000771  15.1670000  2
    440    439    441    443     1  180.0000771  15.1670000  2
    438    435    434    439     1  180.0000771  15.1670000  2
    438    435    436    443     1  180.0000771  15.1670000  2
    437    436    435    438     1  180.0000771  15.1670000  2
    437    436    443    441     1  180.0000771  15.1670000  2
    437    436    443    444     1  180.0000771  15.1670000  2
    436    443    441    442     1  180.0000771  15.1670000  2
    435    434    439    440     1  180.0000771  15.1670000  2
    434    435    436    437     1  180.0000771  15.1670000  2
    434    439    441    442     1  180.0000771  15.1670000  2
    432    434    435    438     1  180.0000771  15.1670000  2
    432    434    439    440     1  180.0000771  15.1670000  2
    430    428    431    432     1  0.0000000  1.6038667  3
    429    428    431    432     1  0.0000000  1.6038667  3
    483    481    484    485     1  0.0000000  0.6508444  3
    483    481    484    486     1  0.0000000  0.6508444  3
    483    481    484    487     1  0.0000000  1.0460000  1
    483    481    484    487     1  0.0000000  0.0000000  3
    482    481    484    485     1  0.0000000  0.6508444  3
    482    481    484    486     1  0.0000000  0.6508444  3
    482    481    484    487     1  0.0000000  1.0460000  1
    482    481    484    487     1  0.0000000  0.0000000  3
    480    478    481    482     1  0.0000000  0.5020800  3
    480    478    481    483     1  0.0000000  0.5020800  3
    480    478    481    484     1  0.0000000  0.5439200  3
    479    478    481    482     1  0.0000000  0.5020800  3
    479    478    481    483     1  0.0000000  0.5020800  3
    479    478    481    484     1  0.0000000  0.5439200  3
    478    481    484    485     1  0.0000000  0.6508444  3
    478    481    484    486     1  0.0000000  0.6508444  3
    477    475    478    479     1  0.0000000  0.6508444  3
    477    475    478    480     1  0.0000000  0.6508444  3
    477    475    478    481     1  0.0000000  0.6508444  3
    476    475    478    479     1  0.0000000  0.6508444  3
    476    475    478    480     1  0.0000000  0.6508444  3
    476    475    478    481     1  0.0000000  0.6508444  3
    475    478    481    482     1  0.0000000  0.5439200  3
    475    478    481    483     1  0.0000000  0.5439200  3
    474    475    478    479     1  0.0000000  1.0460000  1
    474    475    478    479     1  0.0000000  0.0000000  3
    474    475    478    480     1  0.0000000  1.0460000  1
    474    475    478    480     1  0.0000000  0.0000000  3
    472    474    475    476     1  0.0000000  1.6038667  3
    472    474    475    477     1  0.0000000  1.6038667  3
    470    469    471    472     1  180.0000771  15.1670000  2
    468    467    469    470     1  180.0000771  15.1670000  2
    468    467    469    471     1  180.0000771  15.1670000  2
    466    463    462    467     1  180.0000771  15.1670000  2
    466    463    464    471     1  180.0000771  15.1670000  2
    465    464    463    466     1  180.0000771  15.1670000  2
    465    464    471    469     1  180.0000771  15.1670000  2
    465    464    471    472     1  180.0000771  15.1670000  2
    464    471    469    470     1  180.0000771  15.1670000  2
    463    462    467    468     1  180.0000771  15.1670000  2
    462    463    464    465     1  180.0000771  15.1670000  2
    462    467    469    470     1  180.0000771  15.1670000  2
    460    462    463    466     1  180.0000771  15.1670000  2
    460    462    467    468     1  180.0000771  15.1670000  2
    458    456    459    460     1  0.0000000  1.6038667  3
    457    456    459    460     1  0.0000000  1.6038667  3
    511    509    512    513     1  0.0000000  0.6508444  3
    511    509    512    514     1  0.0000000  0.6508444  3
    511    509    512    515     1  0.0000000  1.0460000  1
    511    509    512    515     1  0.0000000  0.0000000  3
    510    509    512    513     1  0.0000000  0.6508444  3
    510    509    512    514     1  0.0000000  0.6508444  3
    510    509    512    515     1  0.0000000  1.0460000  1
    510    509    512    515     1  0.0000000  0.0000000  3
    508    506    509    510     1  0.0000000  0.5020800  3
    508    506    509    511     1  0.0000000  0.5020800  3
    508    506    509    512     1  0.0000000  0.5439200  3
    507    506    509    510     1  0.0000000  0.5020800  3
    507    506    509    511     1  0.0000000  0.5020800  3
    507    506    509    512     1  0.0000000  0.5439200  3
    506    509    512    513     1  0.0000000  0.6508444  3
    506    509    512    514     1  0.0000000  0.6508444  3
    505    503    506    507     1  0.0000000  0.6508444  3
    505    503    506    508     1  0.0000000  0.6508444  3
    505    503    506    509     1  0.0000000  0.6508444  3
    504    503    506    507     1  0.0000000  0.6508444  3
    504    503    506    508     1  0.0000000  0.6508444  3
    504    503    506    509     1  0.0000000  0.6508444  3
    503    506    509    510     1  0.0000000  0.5439200  3
    503    506    509    511     1  0.0000000  0.5439200  3
    502    503    506    507     1  0.0000000  1.0460000  1
    502    503    506    507     1  0.0000000  0.0000000  3
    502    503    506    508     1  0.0000000  1.0460000  1
    502    503    506    508     1  0.0000000  0.0000000  3
    500    502    503    504     1  0.0000000  1.6038667  3
    500    502    503    505     1  0.0000000  1.6038667  3
    498    497    499    500     1  180.0000771  15.1670000  2
    496    495    497    498     1  180.0000771  15.1670000  2
    496    495    497    499     1  180.0000771  15.1670000  2
    494    491    490    495     1  180.0000771  15.1670000  2
    494    491    492    499     1  180.0000771  15.1670000  2
    493    492    491    494     1  180.0000771  15.1670000  2
    493    492    499    497     1  180.0000771  15.1670000  2
    493    492    499    500     1  180.0000771  15.1670000  2
    492    499    497    498     1  180.0000771  15.1670000  2
    491    490    495    496     1  180.0000771  15.1670000  2
    490    491    492    493     1  180.0000771  15.1670000  2
    490    495    497    498     1  180.0000771  15.1670000  2
    488    490    491    494     1  180.0000771  15.1670000  2
    488    490    495    496     1  180.0000771  15.1670000  2
    486    484    487    488     1  0.0000000  1.6038667  3
    485    484    487    488     1  0.0000000  1.6038667  3
    539    537    540    541     1  0.0000000  0.6508444  3
    539    537    540    542     1  0.0000000  0.6508444  3
    539    537    540    543     1  0.0000000  1.0460000  1
    539    537    540    543     1  0.0000000  0.0000000  3
    538    537    540    541     1  0.0000000  0.6508444  3
    538    537    540    542     1  0.0000000  0.6508444  3
    538    537    540    543     1  0.0000000  1.0460000  1
    538    537    540    543     1  0.0000000  0.0000000  3
    536    534    537    538     1  0.0000000  0.5020800  3
    536    534    537    539     1  0.0000000  0.5020800  3
    536    534    537    540     1  0.0000000  0.5439200  3
    535    534    537    538     1  0.0000000  0.5020800  3
    535    534    537    539     1  0.0000000  0.5020800  3
    535    534    537    540     1  0.0000000  0.5439200  3
    534    537    540    541     1  0.0000000  0.6508444  3
    534    537    540    542     1  0.0000000  0.6508444  3
    533    531    534    535     1  0.0000000  0.6508444  3
    533    531    534    536     1  0.0000000  0.6508444  3
    533    531    534    537     1  0.0000000  0.6508444  3
    532    531    534    535     1  0.0000000  0.6508444  3
    532    531    534    536     1  0.0000000  0.6508444  3
    532    531    534    537     1  0.0000000  0.6508444  3
    531    534    537    538     1  0.0000000  0.5439200  3
    531    534    537    539     1  0.0000000  0.5439200  3
    530    531    534    535     1  0.0000000  1.0460000  1
    530    531    534    535     1  0.0000000  0.0000000  3
    530    531    534    536     1  0.0000000  1.0460000  1
    530    531    534    536     1  0.0000000  0.0000000  3
    528    530    531    532     1  0.0000000  1.6038667  3
    528    530    531    533     1  0.0000000  1.6038667  3
    526    525    527    528     1  180.0000771  15.1670000  2
    524    523    525    526     1  180.0000771  15.1670000  2
    524    523    525    527     1  180.0000771  15.1670000  2
    522    519    518    523     1  180.0000771  15.1670000  2
    522    519    520    527     1  180.0000771  15.1670000  2
    521    520    519    522     1  180.0000771  15.1670000  2
    521    520    527    525     1  180.0000771  15.1670000  2
    521    520    527    528     1  180.0000771  15.1670000  2
    520    527    525    526     1  180.0000771  15.1670000  2
    519    518    523    524     1  180.0000771  15.1670000  2
    518    519    520    521     1  180.0000771  15.1670000  2
    518    523    525    526     1  180.0000771  15.1670000  2
    516    518    519    522     1  180.0000771  15.1670000  2
    516    518    523    524     1  180.0000771  15.1670000  2
    514    512    515    516     1  0.0000000  1.6038667  3
    513    512    515    516     1  0.0000000  1.6038667  3
    567    565    568    569     1  0.0000000  0.6508444  3
    567    565    568    570     1  0.0000000  0.6508444  3
    567    565    568    571     1  0.0000000  1.0460000  1
    567    565    568    571     1  0.0000000  0.0000000  3
    566    565    568    569     1  0.0000000  0.6508444  3
    566    565    568    570     1  0.0000000  0.6508444  3
    566    565    568    571     1  0.0000000  1.0460000  1
    566    565    568    571     1  0.0000000  0.0000000  3
    564    562    565    566     1  0.0000000  0.5020800  3
    564    562    565    567     1  0.0000000  0.5020800  3
    564    562    565    568     1  0.0000000  0.5439200  3
    563    562    565    566     1  0.0000000  0.5020800  3
    563    562    565    567     1  0.0000000  0.5020800  3
    563    562    565    568     1  0.0000000  0.5439200  3
    562    565    568    569     1  0.0000000  0.6508444  3
    562    565    568    570     1  0.0000000  0.6508444  3
    561    559    562    563     1  0.0000000  0.6508444  3
    561    559    562    564     1  0.0000000  0.6508444  3
    561    559    562    565     1  0.0000000  0.6508444  3
    560    559    562    563     1  0.0000000  0.6508444  3
    560    559    562    564     1  0.0000000  0.6508444  3
    560    559    562    565     1  0.0000000  0.6508444  3
    559    562    565    566     1  0.0000000  0.5439200  3
    559    562    565    567     1  0.0000000  0.5439200  3
    558    559    562    563     1  0.0000000  1.0460000  1
    558    559    562    563     1  0.0000000  0.0000000  3
    558    559    562    564     1  0.0000000  1.0460000  1
    558    559    562    564     1  0.0000000  0.0000000  3
    556    558    559    560     1  0.0000000  1.6038667  3
    556    558    559    561     1  0.0000000  1.6038667  3
    554    553    555    556     1  180.0000771  15.1670000  2
    552    551    553    554     1  180.0000771  15.1670000  2
    552    551    553    555     1  180.0000771  15.1670000  2
    550    547    546    551     1  180.0000771  15.1670000  2
    550    547    548    555     1  180.0000771  15.1670000  2
    549    548    547    550     1  180.0000771  15.1670000  2
    549    548    555    553     1  180.0000771  15.1670000  2
    549    548    555    556     1  180.0000771  15.1670000  2
    548    555    553    554     1  180.0000771  15.1670000  2
    547    546    551    552     1  180.0000771  15.1670000  2
    546    547    548    549     1  180.0000771  15.1670000  2
    546    551    553    554     1  180.0000771  15.1670000  2
    544    546    547    550     1  180.0000771  15.1670000  2
    544    546    551    552     1  180.0000771  15.1670000  2
    542    540    543    544     1  0.0000000  1.6038667  3
    541    540    543    544     1  0.0000000  1.6038667  3
    595    593    596    597     1  0.0000000  0.6508444  3
    595    593    596    598     1  0.0000000  0.6508444  3
    595    593    596    599     1  0.0000000  1.0460000  1
    595    593    596    599     1  0.0000000  0.0000000  3
    594    593    596    597     1  0.0000000  0.6508444  3
    594    593    596    598     1  0.0000000  0.6508444  3
    594    593    596    599     1  0.0000000  1.0460000  1
    594    593    596    599     1  0.0000000  0.0000000  3
    592    590    593    594     1  0.0000000  0.5020800  3
    592    590    593    595     1  0.0000000  0.5020800  3
    592    590    593    596     1  0.0000000  0.5439200  3
    591    590    593    594     1  0.0000000  0.5020800  3
    591    590    593    595     1  0.0000000  0.5020800  3
    591    590    593    596     1  0.0000000  0.5439200  3
    590    593    596    597     1  0.0000000  0.6508444  3
    590    593    596    598     1  0.0000000  0.6508444  3
    589    587    590    591     1  0.0000000  0.6508444  3
    589    587    590    592     1  0.0000000  0.6508444  3
    589    587    590    593     1  0.0000000  0.6508444  3
    588    587    590    591     1  0.0000000  0.6508444  3
    588    587    590    592     1  0.0000000  0.6508444  3
    588    587    590    593     1  0.0000000  0.6508444  3
    587    590    593    594     1  0.0000000  0.5439200  3
    587    590    593    595     1  0.0000000  0.5439200  3
    586    587    590    591     1  0.0000000  1.0460000  1
    586    587    590    591     1  0.0000000  0.0000000  3
    586    587    590    592     1  0.0000000  1.0460000  1
    586    587    590    592     1  0.0000000  0.0000000  3
    584    586    587    588     1  0.0000000  1.6038667  3
    584    586    587    589     1  0.0000000  1.6038667  3
    582    581    583    584     1  180.0000771  15.1670000  2
    580    579    581    582     1  180.0000771  15.1670000  2
    580    579    581    583     1  180.0000771  15.1670000  2
    578    575    574    579     1  180.0000771  15.1670000  2
    578    575    576    583     1  180.0000771  15.1670000  2
    577    576    575    578     1  180.0000771  15.1670000  2
    577    576    583    581     1  180.0000771  15.1670000  2
    577    576    583    584     1  180.0000771  15.1670000  2
    576    583    581    582     1  180.0000771  15.1670000  2
    575    574    579    580     1  180.0000771  15.1670000  2
    574    575    576    577     1  180.0000771  15.1670000  2
    574    579    581    582     1  180.0000771  15.1670000  2
    572    574    575    578     1  180.0000771  15.1670000  2
    572    574    579    580     1  180.0000771  15.1670000  2
    570    568    571    572     1  0.0000000  1.6038667  3
    569    568    571    572     1  0.0000000  1.6038667  3
    623    621    624    625     1  0.0000000  0.6508444  3
    623    621    624    626     1  0.0000000  0.6508444  3
    623    621    624    627     1  0.0000000  1.0460000  1
    623    621    624    627     1  0.0000000  0.0000000  3
    622    621    624    625     1  0.0000000  0.6508444  3
    622    621    624    626     1  0.0000000  0.6508444  3
    622    621    624    627     1  0.0000000  1.0460000  1
    622    621    624    627     1  0.0000000  0.0000000  3
    620    618    621    622     1  0.0000000  0.5020800  3
    620    618    621    623     1  0.0000000  0.5020800  3
    620    618    621    624     1  0.0000000  0.5439200  3
    619    618    621    622     1  0.0000000  0.5020800  3
    619    618    621    623     1  0.0000000  0.5020800  3
    619    618    621    624     1  0.0000000  0.5439200  3
    618    621    624    625     1  0.0000000  0.6508444  3
    618    621    624    626     1  0.0000000  0.6508444  3
    617    615    618    619     1  0.0000000  0.6508444  3
    617    615    618    620     1  0.0000000  0.6508444  3
    617    615    618    621     1  0.0000000  0.6508444  3
    616    615    618    619     1  0.0000000  0.6508444  3
    616    615    618    620     1  0.0000000  0.6508444  3
    616    615    618    621     1  0.0000000  0.6508444  3
    615    618    621    622     1  0.0000000  0.5439200  3
    615    618    621    623     1  0.0000000  0.5439200  3
    614    615    618    619     1  0.0000000  1.0460000  1
    614    615    618    619     1  0.0000000  0.0000000  3
    614    615    618    620     1  0.0000000  1.0460000  1
    614    615    618    620     1  0.0000000  0.0000000  3
    612    614    615    616     1  0.0000000  1.6038667  3
    612    614    615    617     1  0.0000000  1.6038667  3
    610    609    611    612     1  180.0000771  15.1670000  2
    608    607    609    610     1  180.0000771  15.1670000  2
    608    607    609    611     1  180.0000771  15.1670000  2
    606    603    602    607     1  180.0000771  15.1670000  2
    606    603    604    611     1  180.0000771  15.1670000  2
    605    604    603    606     1  180.0000771  15.1670000  2
    605    604    611    609     1  180.0000771  15.1670000  2
    605    604    611    612     1  180.0000771  15.1670000  2
    604    611    609    610     1  180.0000771  15.1670000  2
    603    602    607    608     1  180.0000771  15.1670000  2
    602    603    604    605     1  180.0000771  15.1670000  2
    602    607    609    610     1  180.0000771  15.1670000  2
    600    602    603    606     1  180.0000771  15.1670000  2
    600    602    607    608     1  180.0000771  15.1670000  2
    598    596    599    600     1  0.0000000  1.6038667  3
    597    596    599    600     1  0.0000000  1.6038667  3
    651    649    652    653     1  0.0000000  0.6508444  3
    651    649    652    654     1  0.0000000  0.6508444  3
    651    649    652    655     1  0.0000000  1.0460000  1
    651    649    652    655     1  0.0000000  0.0000000  3
    650    649    652    653     1  0.0000000  0.6508444  3
    650    649    652    654     1  0.0000000  0.6508444  3
    650    649    652    655     1  0.0000000  1.0460000  1
    650    649    652    655     1  0.0000000  0.0000000  3
    648    646    649    650     1  0.0000000  0.5020800  3
    648    646    649    651     1  0.0000000  0.5020800  3
    648    646    649    652     1  0.0000000  0.5439200  3
    647    646    649    650     1  0.0000000  0.5020800  3
    647    646    649    651     1  0.0000000  0.5020800  3
    647    646    649    652     1  0.0000000  0.5439200  3
    646    649    652    653     1  0.0000000  0.6508444  3
    646    649    652    654     1  0.0000000  0.6508444  3
    645    643    646    647     1  0.0000000  0.6508444  3
    645    643    646    648     1  0.0000000  0.6508444  3
    645    643    646    649     1  0.0000000  0.6508444  3
    644    643    646    647     1  0.0000000  0.6508444  3
    644    643    646    648     1  0.0000000  0.6508444  3
    644    643    646    649     1  0.0000000  0.6508444  3
    643    646    649    650     1  0.0000000  0.5439200  3
    643    646    649    651     1  0.0000000  0.5439200  3
    642    643    646    647     1  0.0000000  1.0460000  1
    642    643    646    647     1  0.0000000  0.0000000  3
    642    643    646    648     1  0.0000000  1.0460000  1
    642    643    646    648     1  0.0000000  0.0000000  3
    640    642    643    644     1  0.0000000  1.6038667  3
    640    642    643    645     1  0.0000000  1.6038667  3
    638    637    639    640     1  180.0000771  15.1670000  2
    636    635    637    638     1  180.0000771  15.1670000  2
    636    635    637    639     1  180.0000771  15.1670000  2
    634    631    630    635     1  180.0000771  15.1670000  2
    634    631    632    639     1  180.0000771  15.1670000  2
    633    632    631    634     1  180.0000771  15.1670000  2
    633    632    639    637     1  180.0000771  15.1670000  2
    633    632    639    640     1  180.0000771  15.1670000  2
    632    639    637    638     1  180.0000771  15.1670000  2
    631    630    635    636     1  180.0000771  15.1670000  2
    630    631    632    633     1  180.0000771  15.1670000  2
    630    635    637    638     1  180.0000771  15.1670000  2
    628    630    631    634     1  180.0000771  15.1670000  2
    628    630    635    636     1  180.0000771  15.1670000  2
    626    624    627    628     1  0.0000000  1.6038667  3
    625    624    627    628     1  0.0000000  1.6038667  3
    679    677    680    681     1  0.0000000  0.6508444  3
    679    677    680    682     1  0.0000000  0.6508444  3
    679    677    680    683     1  0.0000000  1.0460000  1
    679    677    680    683     1  0.0000000  0.0000000  3
    678    677    680    681     1  0.0000000  0.6508444  3
    678    677    680    682     1  0.0000000  0.6508444  3
    678    677    680    683     1  0.0000000  1.0460000  1
    678    677    680    683     1  0.0000000  0.0000000  3
    676    674    677    678     1  0.0000000  0.5020800  3
    676    674    677    679     1  0.0000000  0.5020800  3
    676    674    677    680     1  0.0000000  0.5439200  3
    675    674    677    678     1  0.0000000  0.5020800  3
    675    674    677    679     1  0.0000000  0.5020800  3
    675    674    677    680     1  0.0000000  0.5439200  3
    674    677    680    681     1  0.0000000  0.6508444  3
    674    677    680    682     1  0.0000000  0.6508444  3
    673    671    674    675     1  0.0000000  0.6508444  3
    673    671    674    676     1  0.0000000  0.6508444  3
    673    671    674    677     1  0.0000000  0.6508444  3
    672    671    674    675     1  0.0000000  0.6508444  3
    672    671    674    676     1  0.0000000  0.6508444  3
    672    671    674    677     1  0.0000000  0.6508444  3
    671    674    677    678     1  0.0000000  0.5439200  3
    671    674    677    679     1  0.0000000  0.5439200  3
    670    671    674    675     1  0.0000000  1.0460000  1
    670    671    674    675     1  0.0000000  0.0000000  3
    670    671    674    676     1  0.0000000  1.0460000  1
    670    671    674    676     1  0.0000000  0.0000000  3
    668    670    671    672     1  0.0000000  1.6038667  3
    668    670    671    673     1  0.0000000  1.6038667  3
    666    665    667    668     1  180.0000771  15.1670000  2
    664    663    665    666     1  180.0000771  15.1670000  2
    664    663    665    667     1  180.0000771  15.1670000  2
    662    659    658    663     1  180.0000771  15.1670000  2
    662    659    660    667     1  180.0000771  15.1670000  2
    661    660    659    662     1  180.0000771  15.1670000  2
    661    660    667    665     1  180.0000771  15.1670000  2
    661    660    667    668     1  180.0000771  15.1670000  2
    660    667    665    666     1  180.0000771  15.1670000  2
    659    658    663    664     1  180.0000771  15.1670000  2
    658    659    660    661     1  180.0000771  15.1670000  2
    658    663    665    666     1  180.0000771  15.1670000  2
    656    658    659    662     1  180.0000771  15.1670000  2
    656    658    663    664     1  180.0000771  15.1670000  2
    654    652    655    656     1  0.0000000  1.6038667  3
    653    652    655    656     1  0.0000000  1.6038667  3
    707    705    708    709     1  0.0000000  0.6508444  3
    707    705    708    710     1  0.0000000  0.6508444  3
    707    705    708    711     1  0.0000000  1.0460000  1
    707    705    708    711     1  0.0000000  0.0000000  3
    706    705    708    709     1  0.0000000  0.6508444  3
    706    705    708    710     1  0.0000000  0.6508444  3
    706    705    708    711     1  0.0000000  1.0460000  1
    706    705    708    711     1  0.0000000  0.0000000  3
    704    702    705    706     1  0.0000000  0.5020800  3
    704    702    705    707     1  0.0000000  0.5020800  3
    704    702    705    708     1  0.0000000  0.5439200  3
    703    702    705    706     1  0.0000000  0.5020800  3
    703    702    705    707     1  0.0000000  0.5020800  3
    703    702    705    708     1  0.0000000  0.5439200  3
    702    705    708    709     1  0.0000000  0.6508444  3
    702    705    708    710     1  0.0000000  0.6508444  3
    701    699    702    703     1  0.0000000  0.6508444  3
    701    699    702    704     1  0.0000000  0.6508444  3
    701    699    702    705     1  0.0000000  0.6508444  3
    700    699    702    703     1  0.0000000  0.6508444  3
    700    699    702    704     1  0.0000000  0.6508444  3
    700    699    702    705     1  0.0000000  0.6508444  3
    699    702    705    706     1  0.0000000  0.5439200  3
    699    702    705    707     1  0.0000000  0.5439200  3
    698    699    702    703     1  0.0000000  1.0460000  1
    698    699    702    703     1  0.0000000  0.0000000  3
    698    699    702    704     1  0.0000000  1.0460000  1
    698    699    702    704     1  0.0000000  0.0000000  3
    696    698    699    700     1  0.0000000  1.6038667  3
    696    698    699    701     1  0.0000000  1.6038667  3
    694    693    695    696     1  180.0000771  15.1670000  2
    692    691    693    694     1  180.0000771  15.1670000  2
    692    691    693    695     1  180.0000771  15.1670000  2
    690    687    686    691     1  180.0000771  15.1670000  2
    690    687    688    695     1  180.0000771  15.1670000  2
    689    688    687    690     1  180.0000771  15.1670000  2
    689    688    695    693     1  180.0000771  15.1670000  2
    689    688    695    696     1  180.0000771  15.1670000  2
    688    695    693    694     1  180.0000771  15.1670000  2
    687    686    691    692     1  180.0000771  15.1670000  2
    686    687    688    689     1  180.0000771  15.1670000  2
    686    691    693    694     1  180.0000771  15.1670000  2
    684    686    687    690     1  180.0000771  15.1670000  2
    684    686    691    692     1  180.0000771  15.1670000  2
    682    680    683    684     1  0.0000000  1.6038667  3
    681    680    683    684     1  0.0000000  1.6038667  3
    735    733    736    737     1  0.0000000  0.6508444  3
    735    733    736    738     1  0.0000000  0.6508444  3
    735    733    736    739     1  0.0000000  1.0460000  1
    735    733    736    739     1  0.0000000  0.0000000  3
    734    733    736    737     1  0.0000000  0.6508444  3
    734    733    736    738     1  0.0000000  0.6508444  3
    734    733    736    739     1  0.0000000  1.0460000  1
    734    733    736    739     1  0.0000000  0.0000000  3
    732    730    733    734     1  0.0000000  0.5020800  3
    732    730    733    735     1  0.0000000  0.5020800  3
    732    730    733    736     1  0.0000000  0.5439200  3
    731    730    733    734     1  0.0000000  0.5020800  3
    731    730    733    735     1  0.0000000  0.5020800  3
    731    730    733    736     1  0.0000000  0.5439200  3
    730    733    736    737     1  0.0000000  0.6508444  3
    730    733    736    738     1  0.0000000  0.6508444  3
    729    727    730    731     1  0.0000000  0.6508444  3
    729    727    730    732     1  0.0000000  0.6508444  3
    729    727    730    733     1  0.0000000  0.6508444  3
    728    727    730    731     1  0.0000000  0.6508444  3
    728    727    730    732     1  0.0000000  0.6508444  3
    728    727    730    733     1  0.0000000  0.6508444  3
    727    730    733    734     1  0.0000000  0.5439200  3
    727    730    733    735     1  0.0000000  0.5439200  3
    726    727    730    731     1  0.0000000  1.0460000  1
    726    727    730    731     1  0.0000000  0.0000000  3
    726    727    730    732     1  0.0000000  1.0460000  1
    726    727    730    732     1  0.0000000  0.0000000  3
    724    726    727    728     1  0.0000000  1.6038667  3
    724    726    727    729     1  0.0000000  1.6038667  3
    722    721    723    724     1  180.0000771  15.1670000  2
    720    719    721    722     1  180.0000771  15.1670000  2
    720    719    721    723     1  180.0000771  15.1670000  2
    718    715    714    719     1  180.0000771  15.1670000  2
    718    715    716    723     1  180.0000771  15.1670000  2
    717    716    715    718     1  180.0000771  15.1670000  2
    717    716    723    721     1  180.0000771  15.1670000  2
    717    716    723    724     1  180.0000771  15.1670000  2
    716    723    721    722     1  180.0000771  15.1670000  2
    715    714    719    720     1  180.0000771  15.1670000  2
    714    715    716    717     1  180.0000771  15.1670000  2
    714    719    721    722     1  180.0000771  15.1670000  2
    712    714    715    718     1  180.0000771  15.1670000  2
    712    714    719    720     1  180.0000771  15.1670000  2
    710    708    711    712     1  0.0000000  1.6038667  3
    709    708    711    712     1  0.0000000  1.6038667  3
    763    761    764    765     1  0.0000000  0.6508444  3
    763    761    764    766     1  0.0000000  0.6508444  3
    763    761    764    767     1  0.0000000  1.0460000  1
    763    761    764    767     1  0.0000000  0.0000000  3
    762    761    764    765     1  0.0000000  0.6508444  3
    762    761    764    766     1  0.0000000  0.6508444  3
    762    761    764    767     1  0.0000000  1.0460000  1
    762    761    764    767     1  0.0000000  0.0000000  3
    760    758    761    762     1  0.0000000  0.5020800  3
    760    758    761    763     1  0.0000000  0.5020800  3
    760    758    761    764     1  0.0000000  0.5439200  3
    759    758    761    762     1  0.0000000  0.5020800  3
    759    758    761    763     1  0.0000000  0.5020800  3
    759    758    761    764     1  0.0000000  0.5439200  3
    758    761    764    765     1  0.0000000  0.6508444  3
    758    761    764    766     1  0.0000000  0.6508444  3
    757    755    758    759     1  0.0000000  0.6508444  3
    757    755    758    760     1  0.0000000  0.6508444  3
    757    755    758    761     1  0.0000000  0.6508444  3
    756    755    758    759     1  0.0000000  0.6508444  3
    756    755    758    760     1  0.0000000  0.6508444  3
    756    755    758    761     1  0.0000000  0.6508444  3
    755    758    761    762     1  0.0000000  0.5439200  3
    755    758    761    763     1  0.0000000  0.5439200  3
    754    755    758    759     1  0.0000000  1.0460000  1
    754    755    758    759     1  0.0000000  0.0000000  3
    754    755    758    760     1  0.0000000  1.0460000  1
    754    755    758    760     1  0.0000000  0.0000000  3
    752    754    755    756     1  0.0000000  1.6038667  3
    752    754    755    757     1  0.0000000  1.6038667  3
    750    749    751    752     1  180.0000771  15.1670000  2
    748    747    749    750     1  180.0000771  15.1670000  2
    748    747    749    751     1  180.0000771  15.1670000  2
    746    743    742    747     1  180.0000771  15.1670000  2
    746    743    744    751     1  180.0000771  15.1670000  2
    745    744    743    746     1  180.0000771  15.1670000  2
    745    744    751    749     1  180.0000771  15.1670000  2
    745    744    751    752     1  180.0000771  15.1670000  2
    744    751    749    750     1  180.0000771  15.1670000  2
    743    742    747    748     1  180.0000771  15.1670000  2
    742    743    744    745     1  180.0000771  15.1670000  2
    742    747    749    750     1  180.0000771  15.1670000  2
    740    742    743    746     1  180.0000771  15.1670000  2
    740    742    747    748     1  180.0000771  15.1670000  2
    738    736    739    740     1  0.0000000  1.6038667  3
    737    736    739    740     1  0.0000000  1.6038667  3
    791    789    792    793     1  0.0000000  0.6508444  3
    791    789    792    794     1  0.0000000  0.6508444  3
    791    789    792    795     1  0.0000000  1.0460000  1
    791    789    792    795     1  0.0000000  0.0000000  3
    790    789    792    793     1  0.0000000  0.6508444  3
    790    789    792    794     1  0.0000000  0.6508444  3
    790    789    792    795     1  0.0000000  1.0460000  1
    790    789    792    795     1  0.0000000  0.0000000  3
    788    786    789    790     1  0.0000000  0.5020800  3
    788    786    789    791     1  0.0000000  0.5020800  3
    788    786    789    792     1  0.0000000  0.5439200  3
    787    786    789    790     1  0.0000000  0.5020800  3
    787    786    789    791     1  0.0000000  0.5020800  3
    787    786    789    792     1  0.0000000  0.5439200  3
    786    789    792    793     1  0.0000000  0.6508444  3
    786    789    792    794     1  0.0000000  0.6508444  3
    785    783    786    787     1  0.0000000  0.6508444  3
    785    783    786    788     1  0.0000000  0.6508444  3
    785    783    786    789     1  0.0000000  0.6508444  3
    784    783    786    787     1  0.0000000  0.6508444  3
    784    783    786    788     1  0.0000000  0.6508444  3
    784    783    786    789     1  0.0000000  0.6508444  3
    783    786    789    790     1  0.0000000  0.5439200  3
    783    786    789    791     1  0.0000000  0.5439200  3
    782    783    786    787     1  0.0000000  1.0460000  1
    782    783    786    787     1  0.0000000  0.0000000  3
    782    783    786    788     1  0.0000000  1.0460000  1
    782    783    786    788     1  0.0000000  0.0000000  3
    780    782    783    784     1  0.0000000  1.6038667  3
    780    782    783    785     1  0.0000000  1.6038667  3
    778    777    779    780     1  180.0000771  15.1670000  2
    776    775    777    778     1  180.0000771  15.1670000  2
    776    775    777    779     1  180.0000771  15.1670000  2
    774    771    770    775     1  180.0000771  15.1670000  2
    774    771    772    779     1  180.0000771  15.1670000  2
    773    772    771    774     1  180.0000771  15.1670000  2
    773    772    779    777     1  180.0000771  15.1670000  2
    773    772    779    780     1  180.0000771  15.1670000  2
    772    779    777    778     1  180.0000771  15.1670000  2
    771    770    775    776     1  180.0000771  15.1670000  2
    770    771    772    773     1  180.0000771  15.1670000  2
    770    775    777    778     1  180.0000771  15.1670000  2
    768    770    771    774     1  180.0000771  15.1670000  2
    768    770    775    776     1  180.0000771  15.1670000  2
    766    764    767    768     1  0.0000000  1.6038667  3
    765    764    767    768     1  0.0000000  1.6038667  3
    819    817    820    821     1  0.0000000  0.6508444  3
    819    817    820    822     1  0.0000000  0.6508444  3
    819    817    820    823     1  0.0000000  1.0460000  1
    819    817    820    823     1  0.0000000  0.0000000  3
    818    817    820    821     1  0.0000000  0.6508444  3
    818    817    820    822     1  0.0000000  0.6508444  3
    818    817    820    823     1  0.0000000  1.0460000  1
    818    817    820    823     1  0.0000000  0.0000000  3
    816    814    817    818     1  0.0000000  0.5020800  3
    816    814    817    819     1  0.0000000  0.5020800  3
    816    814    817    820     1  0.0000000  0.5439200  3
    815    814    817    818     1  0.0000000  0.5020800  3
    815    814    817    819     1  0.0000000  0.5020800  3
    815    814    817    820     1  0.0000000  0.5439200  3
    814    817    820    821     1  0.0000000  0.6508444  3
    814    817    820    822     1  0.0000000  0.6508444  3
    813    811    814    815     1  0.0000000  0.6508444  3
    813    811    814    816     1  0.0000000  0.6508444  3
    813    811    814    817     1  0.0000000  0.6508444  3
    812    811    814    815     1  0.0000000  0.6508444  3
    812    811    814    816     1  0.0000000  0.6508444  3
    812    811    814    817     1  0.0000000  0.6508444  3
    811    814    817    818     1  0.0000000  0.5439200  3
    811    814    817    819     1  0.0000000  0.5439200  3
    810    811    814    815     1  0.0000000  1.0460000  1
    810    811    814    815     1  0.0000000  0.0000000  3
    810    811    814    816     1  0.0000000  1.0460000  1
    810    811    814    816     1  0.0000000  0.0000000  3
    808    810    811    812     1  0.0000000  1.6038667  3
    808    810    811    813     1  0.0000000  1.6038667  3
    806    805    807    808     1  180.0000771  15.1670000  2
    804    803    805    806     1  180.0000771  15.1670000  2
    804    803    805    807     1  180.0000771  15.1670000  2
    802    799    798    803     1  180.0000771  15.1670000  2
    802    799    800    807     1  180.0000771  15.1670000  2
    801    800    799    802     1  180.0000771  15.1670000  2
    801    800    807    805     1  180.0000771  15.1670000  2
    801    800    807    808     1  180.0000771  15.1670000  2
    800    807    805    806     1  180.0000771  15.1670000  2
    799    798    803    804     1  180.0000771  15.1670000  2
    798    799    800    801     1  180.0000771  15.1670000  2
    798    803    805    806     1  180.0000771  15.1670000  2
    796    798    799    802     1  180.0000771  15.1670000  2
    796    798    803    804     1  180.0000771  15.1670000  2
    794    792    795    796     1  0.0000000  1.6038667  3
    793    792    795    796     1  0.0000000  1.6038667  3
    847    845    848    849     1  0.0000000  0.6508444  3
    847    845    848    850     1  0.0000000  0.6508444  3
    847    845    848    851     1  0.0000000  1.0460000  1
    847    845    848    851     1  0.0000000  0.0000000  3
    846    845    848    849     1  0.0000000  0.6508444  3
    846    845    848    850     1  0.0000000  0.6508444  3
    846    845    848    851     1  0.0000000  1.0460000  1
    846    845    848    851     1  0.0000000  0.0000000  3
    844    842    845    846     1  0.0000000  0.5020800  3
    844    842    845    847     1  0.0000000  0.5020800  3
    844    842    845    848     1  0.0000000  0.5439200  3
    843    842    845    846     1  0.0000000  0.5020800  3
    843    842    845    847     1  0.0000000  0.5020800  3
    843    842    845    848     1  0.0000000  0.5439200  3
    842    845    848    849     1  0.0000000  0.6508444  3
    842    845    848    850     1  0.0000000  0.6508444  3
    841    839    842    843     1  0.0000000  0.6508444  3
    841    839    842    844     1  0.0000000  0.6508444  3
    841    839    842    845     1  0.0000000  0.6508444  3
    840    839    842    843     1  0.0000000  0.6508444  3
    840    839    842    844     1  0.0000000  0.6508444  3
    840    839    842    845     1  0.0000000  0.6508444  3
    839    842    845    846     1  0.0000000  0.5439200  3
    839    842    845    847     1  0.0000000  0.5439200  3
    838    839    842    843     1  0.0000000  1.0460000  1
    838    839    842    843     1  0.0000000  0.0000000  3
    838    839    842    844     1  0.0000000  1.0460000  1
    838    839    842    844     1  0.0000000  0.0000000  3
    836    838    839    840     1  0.0000000  1.6038667  3
    836    838    839    841     1  0.0000000  1.6038667  3
    834    833    835    836     1  180.0000771  15.1670000  2
    832    831    833    834     1  180.0000771  15.1670000  2
    832    831    833    835     1  180.0000771  15.1670000  2
    830    827    826    831     1  180.0000771  15.1670000  2
    830    827    828    835     1  180.0000771  15.1670000  2
    829    828    827    830     1  180.0000771  15.1670000  2
    829    828    835    833     1  180.0000771  15.1670000  2
    829    828    835    836     1  180.0000771  15.1670000  2
    828    835    833    834     1  180.0000771  15.1670000  2
    827    826    831    832     1  180.0000771  15.1670000  2
    826    827    828    829     1  180.0000771  15.1670000  2
    826    831    833    834     1  180.0000771  15.1670000  2
    824    826    827    830     1  180.0000771  15.1670000  2
    824    826    831    832     1  180.0000771  15.1670000  2
    822    820    823    824     1  0.0000000  1.6038667  3
    821    820    823    824     1  0.0000000  1.6038667  3
    872    870    873    874     1  0.0000000  0.5020800  3
    872    870    873    875     1  0.0000000  0.5020800  3
    871    870    873    874     1  0.0000000  0.5020800  3
    871    870    873    875     1  0.0000000  0.5020800  3
    869    867    870    871     1  0.0000000  0.6508444  3
    869    867    870    872     1  0.0000000  0.6508444  3
    869    867    870    873     1  0.0000000  0.6508444  3
    868    867    870    871     1  0.0000000  0.6508444  3
    868    867    870    872     1  0.0000000  0.6508444  3
    868    867    870    873     1  0.0000000  0.6508444  3
    867    870    873    874     1  0.0000000  0.5439200  3
    867    870    873    875     1  0.0000000  0.5439200  3
    866    867    870    871     1  0.0000000  1.0460000  1
    866    867    870    871     1  0.0000000  0.0000000  3
    866    867    870    872     1  0.0000000  1.0460000  1
    866    867    870    872     1  0.0000000  0.0000000  3
    864    866    867    868     1  0.0000000  1.6038667  3
    864    866    867    869     1  0.0000000  1.6038667  3
    862    861    863    864     1  180.0000771  15.1670000  2
    860    859    861    862     1  180.0000771  15.1670000  2
    860    859    861    863     1  180.0000771  15.1670000  2
    858    855    854    859     1  180.0000771  15.1670000  2
    858    855    856    863     1  180.0000771  15.1670000  2
    857    856    855    858     1  180.0000771  15.1670000  2
    857    856    863    861     1  180.0000771  15.1670000  2
    857    856    863    864     1  180.0000771  15.1670000  2
    856    863    861    862     1  180.0000771  15.1670000  2
    855    854    859    860     1  180.0000771  15.1670000  2
    854    855    856    857     1  180.0000771  15.1670000  2
    854    859    861    862     1  180.0000771  15.1670000  2
    852    854    855    858     1  180.0000771  15.1670000  2
    852    854    859    860     1  180.0000771  15.1670000  2
    850    848    851    852     1  0.0000000  1.6038667  3
    849    848    851    852     1  0.0000000  1.6038667  3
    187    191    189    190     4  180.0000771  4.6024000  2
    182    189    187    188     4  180.0000771  4.6024000  2
    183    191    184    185     4  180.0000771  4.6024000  2
    182    184    183    186     4  180.0000771  4.6024000  2
    215    219    217    218     4  180.0000771  4.6024000  2
    210    217    215    216     4  180.0000771  4.6024000  2
    211    219    212    213     4  180.0000771  4.6024000  2
    210    212    211    214     4  180.0000771  4.6024000  2
    243    247    245    246     4  180.0000771  4.6024000  2
    238    245    243    244     4  180.0000771  4.6024000  2
    239    247    240    241     4  180.0000771  4.6024000  2
    238    240    239    242     4  180.0000771  4.6024000  2
    271    275    273    274     4  180.0000771  4.6024000  2
    266    273    271    272     4  180.0000771  4.6024000  2
    267    275    268    269     4  180.0000771  4.6024000  2
    266    268    267    270     4  180.0000771  4.6024000  2
    299    303    301    302     4  180.0000771  4.6024000  2
    294    301    299    300     4  180.0000771  4.6024000  2
    295    303    296    297     4  180.0000771  4.6024000  2
    294    296    295    298     4  180.0000771  4.6024000  2
    327    331    329    330     4  180.0000771  4.6024000  2
    322    329    327    328     4  180.0000771  4.6024000  2
    323    331    324    325     4  180.0000771  4.6024000  2
    322    324    323    326     4  180.0000771  4.6024000  2
    355    359    357    358     4  180.0000771  4.6024000  2
    350    357    355    356     4  180.0000771  4.6024000  2
    351    359    352    353     4  180.0000771  4.6024000  2
    350    352    351    354     4  180.0000771  4.6024000  2
    383    387    385    386     4  180.0000771  4.6024000  2
    378    385    383    384     4  180.0000771  4.6024000  2
    379    387    380    381     4  180.0000771  4.6024000  2
    378    380    379    382     4  180.0000771  4.6024000  2
    411    415    413    414     4  180.0000771  4.6024000  2
    406    413    411    412     4  180.0000771  4.6024000  2
    407    415    408    409     4  180.0000771  4.6024000  2
    406    408    407    410     4  180.0000771  4.6024000  2
    439    443    441    442     4  180.0000771  4.6024000  2
    434    441    439    440     4  180.0000771  4.6024000  2
    435    443    436    437     4  180.0000771  4.6024000  2
    434    436    435    438     4  180.0000771  4.6024000  2
    467    471    469    470     4  180.0000771  4.6024000  2
    462    469    467    468     4  180.0000771  4.6024000  2
    463    471    464    465     4  180.0000771  4.6024000  2
    462    464    463    466     4  180.0000771  4.6024000  2
    495    499    497    498     4  180.0000771  4.6024000  2
    490    497    495    496     4  180.0000771  4.6024000  2
    491    499    492    493     4  180.0000771  4.6024000  2
    490    492    491    494     4  180.0000771  4.6024000  2
    523    527    525    526     4  180.0000771  4.6024000  2
    518    525    523    524     4  180.0000771  4.6024000  2
    519    527    520    521     4  180.0000771  4.6024000  2
    518    520    519    522     4  180.0000771  4.6024000  2
    551    555    553    554     4  180.0000771  4.6024000  2
    546    553    551    552     4  180.0000771  4.6024000  2
    547    555    548    549     4  180.0000771  4.6024000  2
    546    548    547    550     4  180.0000771  4.6024000  2
    579    583    581    582     4  180.0000771  4.6024000  2
    574    581    579    580     4  180.0000771  4.6024000  2
    575    583    576    577     4  180.0000771  4.6024000  2
    574    576    575    578     4  180.0000771  4.6024000  2
    607    611    609    610     4  180.0000771  4.6024000  2
    602    609    607    608     4  180.0000771  4.6024000  2
    603    611    604    605     4  180.0000771  4.6024000  2
    602    604    603    606     4  180.0000771  4.6024000  2
    635    639    637    638     4  180.0000771  4.6024000  2
    630    637    635    636     4  180.0000771  4.6024000  2
    631    639    632    633     4  180.0000771  4.6024000  2
    630    632    631    634     4  180.0000771  4.6024000  2
    663    667    665    666     4  180.0000771  4.6024000  2
    658    665    663    664     4  180.0000771  4.6024000  2
    659    667    660    661     4  180.0000771  4.6024000  2
    658    660    659    662     4  180.0000771  4.6024000  2
    691    695    693    694     4  180.0000771  4.6024000  2
    686    693    691    692     4  180.0000771  4.6024000  2
    687    695    688    689     4  180.0000771  4.6024000  2
    686    688    687    690     4  180.0000771  4.6024000  2
    719    723    721    722     4  180.0000771  4.6024000  2
    714    721    719    720     4  180.0000771  4.6024000  2
    715    723    716    717     4  180.0000771  4.6024000  2
    714    716    715    718     4  180.0000771  4.6024000  2
    747    751    749    750     4  180.0000771  4.6024000  2
    742    749    747    748     4  180.0000771  4.6024000  2
    743    751    744    745     4  180.0000771  4.6024000  2
    742    744    743    746     4  180.0000771  4.6024000  2
    775    779    777    778     4  180.0000771  4.6024000  2
    770    777    775    776     4  180.0000771  4.6024000  2
    771    779    772    773     4  180.0000771  4.6024000  2
    770    772    771    774     4  180.0000771  4.6024000  2
    803    807    805    806     4  180.0000771  4.6024000  2
    798    805    803    804     4  180.0000771  4.6024000  2
    799    807    800    801     4  180.0000771  4.6024000  2
    798    800    799    802     4  180.0000771  4.6024000  2
    831    835    833    834     4  180.0000771  4.6024000  2
    826    833    831    832     4  180.0000771  4.6024000  2
    827    835    828    829     4  180.0000771  4.6024000  2
    826    828    827    830     4  180.0000771  4.6024000  2
    859    863    861    862     4  180.0000771  4.6024000  2
    854    861    859    860     4  180.0000771  4.6024000  2
    855    863    856    857     4  180.0000771  4.6024000  2
    854    856    855    858     4  180.0000771  4.6024000  2

[ system ]
; Name
Generic title in water

[ molecules ]
; Compound       #mols
system1              1
SOL         804
NA               98
CL               98
