Generic title in water
 3483
    1PEO     C1    1   3.276   1.942   2.389  0.4512 -0.0572  0.2575
    1PEO     H3    2   3.199   1.894   2.449 -0.8032  2.1613  0.5287
    1PEO     H4    3   3.316   2.039   2.424 -0.1237  0.1178  0.4289
    1PEO      O    4   3.372   1.850   2.334 -0.4077  0.1836  0.2361
    1PEO     C2    5   3.413   1.754   2.436 -0.4950  0.5609 -0.1242
    1PEO     H5    6   3.475   1.678   2.387 -0.3366 -0.9398  2.2467
    1PEO     H6    7   3.328   1.706   2.485  0.5610 -2.3318 -0.9626
    1PEO     C3    8   3.511   1.819   2.537 -0.0850 -0.3278  0.7752
    1PEO     H7    9   3.534   1.745   2.614  1.8952 -0.9193 -0.2968
    1PEO     H8   10   3.464   1.908   2.580 -0.1478  0.2282 -0.4017
    1PEO     O1   11   3.629   1.841   2.451 -0.4902  0.3077 -0.1271
    1PEO     C4   12   3.735   1.907   2.519  0.4224  0.2870  0.0550
    1PEO     H9   13   3.754   1.866   2.619 -2.4756  1.3222  1.1200
    1PEO    H10   14   3.703   2.009   2.541 -1.8619  0.2178 -2.4138
    1PEO     C5   15   3.865   1.907   2.427  1.1028 -0.1840  0.1429
    1PEO    H11   16   3.930   1.983   2.473  0.6708  1.0154 -1.1738
    1PEO    H12   17   3.828   1.941   2.330  1.7000 -2.2353 -0.8685
    1PEO     O2   18   3.934   1.779   2.422 -0.0590 -0.2650 -0.5162
    1PEO     C6   19   4.053   1.770   2.335  0.4107  0.4867  1.1266
    1PEO    H13   20   4.027   1.782   2.229  0.4308 -0.3663  1.0214
    1PEO    H14   21   4.090   1.667   2.327  0.2545  0.5790 -2.5037
    1PEO     C7   22   4.170   1.864   2.384 -0.1899 -0.0210 -0.1707
    1PEO    H15   23   4.126   1.964   2.396 -0.4031 -0.0620 -0.5846
    1PEO    H16   24   4.246   1.868   2.305 -0.5055 -1.9626 -0.6181
    1PEO     O3   25   4.224   1.823   2.509 -0.3093  0.5058  0.3184
    1PEO     C8   26   4.282   1.696   2.525 -0.2124  0.4645 -0.2536
    1PEO    H17   27   4.217   1.622   2.478  1.6388 -0.2115 -1.8809
    1PEO    H18   28   4.304   1.679   2.631  4.4166 -1.2672 -1.2348
    1PEO     C9   29   4.423   1.700   2.448 -0.4426  0.5985 -0.6285
    1PEO    H19   30   4.477   1.607   2.466  1.3931  0.8111 -4.0723
    1PEO    H20   31   4.487   1.784   2.479  0.8931 -0.8625  0.7735
    1PEO     O4   32   4.405   1.703   2.312  0.4594 -0.0725 -0.3572
    1PEO    C10   33   4.526   1.734   2.238 -0.4046  0.2492 -0.1089
    1PEO    H21   34   4.590   1.807   2.290  1.2163 -0.5416 -0.9283
    1PEO    H22   35   4.504   1.780   2.141  0.9576  0.5667 -0.2909
    2PEO     C1   36   4.608   1.604   2.209 -0.1527 -0.0538 -0.5900
    2PEO     H3   37   4.683   1.639   2.137 -0.9769  0.4176 -1.2404
    2PEO     H4   38   4.539   1.535   2.159 -0.2681  0.0121 -0.5204
    2PEO      O   39   4.665   1.537   2.325  0.2169 -0.5256 -0.4353
    2PEO     C2   40   4.780   1.594   2.387  0.1065  0.5489 -0.2536
    2PEO     H5   41   4.801   1.542   2.481 -0.0040 -1.2196 -1.1599
    2PEO     H6   42   4.764   1.698   2.417 -0.3629  0.0401  1.3671
    2PEO     C3   43   4.905   1.582   2.289 -0.1423  0.2754 -0.3462
    2PEO     H7   44   4.988   1.643   2.326  2.3179 -1.6979 -2.2857
    2PEO     H8   45   4.886   1.629   2.192 -1.5640 -1.1432 -0.8041
    2PEO     O1   46   4.947   1.445   2.267 -0.2185  0.0031 -0.0270
    2PEO     C4   47   4.993   1.367   2.381 -0.0170  0.3498 -0.3390
    2PEO     H9   48   5.018   1.264   2.353 -0.2777  0.2565 -0.2307
    2PEO    H10   49   4.907   1.349   2.445 -0.5420  0.5920 -0.9624
    2PEO     C5   50   5.109   1.431   2.467 -0.1185 -0.2119  0.0460
    2PEO    H11   51   5.132   1.362   2.550 -1.0898  0.2531  0.7261
    2PEO    H12   52   5.070   1.518   2.522 -0.5296 -0.6370  0.4352
    2PEO     O2   53   5.221   1.456   2.381 -0.4585 -0.5521  0.2688
    2PEO     C6   54   5.332   1.378   2.414 -0.3883 -0.4397  0.5257
    2PEO    H13   55   5.346   1.362   2.521  1.0370  2.3731  0.8608
    2PEO    H14   56   5.418   1.441   2.389 -0.3306 -0.4043  0.8136
    2PEO     C7   57   5.335   1.241   2.336  0.5670  0.1257 -0.3944
    2PEO    H15   58   5.241   1.185   2.347  0.3566  0.2946 -1.2250
    2PEO    H16   59   5.412   1.176   2.379 -0.5638 -0.7215  0.4378
    2PEO     O3   60   5.350   1.258   2.193  0.5048 -0.0322 -0.6402
    2PEO     C8   61   5.476   1.311   2.157  0.4051 -0.0004  0.0223
    2PEO    H17   62   5.561   1.243   2.165 -0.4440 -1.0242  0.5814
    2PEO    H18   63   5.501   1.406   2.206 -0.0367 -0.1671  0.5839
    2PEO     C9   64   5.471   1.352   2.004  0.7518 -0.2447  0.1145
    2PEO    H19   65   5.405   1.277   1.959  1.0382 -1.2180  1.2602
    2PEO    H20   66   5.571   1.345   1.959  0.4208 -0.2522 -0.6306
    2PEO     O4   67   5.416   1.485   1.997 -0.1406 -0.0609  0.0078
    2PEO    C10   68   5.484   1.602   2.047 -0.3618 -0.0792  0.4699
    2PEO    H21   69   5.500   1.590   2.155 -2.3487 -2.2034  0.6002
    2PEO    H22   70   5.416   1.688   2.037 -0.6410 -0.3850 -0.3321
    3PEO     C1   71   5.607   1.634   1.957 -0.4218 -0.1958 -0.3611
    3PEO     H3   72   5.630   1.739   1.979 -0.2480  0.2336 -2.4213
    3PEO     H4   73   5.581   1.632   1.851 -0.6028  0.7348 -0.3387
    3PEO      O   74   5.722   1.542   1.979 -0.5022 -0.0079 -0.8557
    3PEO     C2   75   5.838   1.547   1.892 -0.1715  0.5034  0.0085
    3PEO     H5   76   5.811   1.537   1.786 -0.1433  1.1599 -0.0605
    3PEO     H6   77   5.902   1.463   1.924 -0.5583  0.7663  1.5683
    3PEO     C3   78   5.916   1.672   1.911  0.0289  0.0101  0.4579
    3PEO     H7   79   5.853   1.760   1.894  0.6722  0.4576  0.3797
    3PEO     H8   80   5.990   1.675   1.830 -0.7762 -1.2705 -0.3702
    3PEO     O1   81   5.967   1.676   2.044 -0.0081 -0.1413 -0.3194
    3PEO     C4   82   6.072   1.781   2.056  0.3872 -0.0400 -0.3428
    3PEO     H9   83   6.039   1.884   2.035  0.2822 -0.1871 -0.9403
    3PEO    H10   84   6.159   1.762   1.993  2.0782 -1.0483  2.1563
    3PEO     C5   85   6.123   1.780   2.202  0.3732 -0.5520 -0.9592
    3PEO    H11   86   6.078   1.703   2.266  0.1593  0.3067 -0.0288
    3PEO    H12   87   6.102   1.879   2.245 -1.9337 -1.2512 -0.2903
    3PEO     O2   88   6.258   1.743   2.204 -0.3330  0.1403 -0.1664
    3PEO     C6   89   6.318   1.687   2.325  0.2589 -0.2658 -0.1785
    3PEO    H13   90   6.260   1.727   2.408 -1.5604  0.0443 -1.5427
    3PEO    H14   91   6.423   1.710   2.349 -0.3550  0.8623  1.6007
    3PEO     C7   92   6.293   1.537   2.329 -0.1036 -0.2283  0.1935
    3PEO    H15   93   6.185   1.516   2.329 -0.2796  0.5611 -1.3168
    3PEO    H16   94   6.336   1.503   2.424  0.5682 -0.0828 -0.0592
    3PEO     O3   95   6.354   1.459   2.221 -0.5822 -0.1294 -0.3201
    3PEO     C8   96   6.495   1.476   2.191  0.0517 -0.1598  0.4312
    3PEO    H17   97   6.519   1.582   2.175 -0.4814 -0.1671 -0.4975
    3PEO    H18   98   6.517   1.418   2.101 -1.6980 -1.2218  0.6414
    3PEO     C9   99   6.590   1.427   2.305  0.3424 -0.1354  0.1842
    3PEO    H19  100   6.576   1.497   2.388 -0.9593  1.2782 -1.1745
    3PEO    H20  101   6.694   1.442   2.273 -0.1751 -0.4631 -1.7760
    3PEO     O4  102   6.570   1.291   2.345  0.1304  0.2622  0.4424
    3PEO    C10  103   6.581   1.191   2.253  0.3052  0.4481 -0.2526
    3PEO    H21  104   6.505   1.203   2.175  1.2474  0.8179 -1.1512
    3PEO    H22  105   6.568   1.098   2.310  0.8744  1.2632  1.2405
    4PEO     C1  106   6.723   1.181   2.199 -0.7893 -0.2642  0.0918
    4PEO     H3  107   6.735   1.081   2.156 -2.1059  1.0767 -3.9100
    4PEO     H4  108   6.798   1.214   2.272  0.4638 -0.2993 -1.1259
    4PEO      O  109   6.738   1.270   2.083 -0.2409  0.3246  0.1586
    4PEO     C2  110   6.857   1.250   1.998  0.2784 -0.3670  0.1114
    4PEO     H5  111   6.943   1.223   2.061  1.0374 -1.3782 -1.2999
    4PEO     H6  112   6.880   1.351   1.962 -0.7155  0.7165  2.3287
    4PEO     C3  113   6.830   1.143   1.882 -0.3726 -0.5110 -0.1520
    4PEO     H7  114   6.903   1.158   1.801  1.5400 -1.9170  1.2179
    4PEO     H8  115   6.733   1.160   1.835  0.3048 -0.5529 -1.6037
    4PEO     O1  116   6.836   1.011   1.938 -0.1236 -0.0683 -0.1398
    4PEO     C4  117   6.965   0.970   1.998  0.2877  0.2884  0.6583
    4PEO     H9  118   6.959   0.866   2.031 -0.1431  0.3253  0.6958
    4PEO    H10  119   6.982   1.029   2.089 -0.4362  1.5509  0.0029
    4PEO     C5  120   7.084   0.998   1.899  0.1679 -0.1555 -0.3068
    4PEO    H11  121   7.043   0.988   1.798  1.3382  1.6090 -0.9891
    4PEO    H12  122   7.164   0.924   1.914 -0.1403 -0.4986 -0.3431
    4PEO     O2  123   7.136   1.130   1.927  0.1487 -0.3431  0.6659
    4PEO     C6  124   7.245   1.171   1.840 -0.4299 -0.3792  0.1530
    4PEO    H13  125   7.330   1.101   1.850 -0.2820 -0.3580 -0.8573
    4PEO    H14  126   7.278   1.271   1.873  1.2077 -0.0805 -2.0886
    4PEO     C7  127   7.198   1.182   1.696  0.4130 -0.0644 -0.5136
    4PEO    H15  128   7.175   1.082   1.657  0.5124  0.2207 -1.3299
    4PEO    H16  129   7.278   1.222   1.632 -0.0161 -1.5223 -2.0249
    4PEO     O3  130   7.087   1.274   1.692 -0.1566  0.2620  0.2254
    4PEO     C8  131   7.041   1.295   1.557 -0.4091 -0.1071  0.2608
    4PEO    H17  132   7.021   1.202   1.503 -0.7728 -0.7011  1.4026
    4PEO    H18  133   7.108   1.356   1.494 -0.3859  1.3770  1.6618
    4PEO     C9  134   6.910   1.370   1.562  0.1108 -0.4521  0.7728
    4PEO    H19  135   6.833   1.316   1.619  1.1029 -2.5980  0.1571
    4PEO    H20  136   6.873   1.379   1.459 -0.6245  0.2625  1.0774
    4PEO     O4  137   6.929   1.501   1.615 -0.3707 -0.1559 -0.2234
    4PEO    C10  138   6.817   1.587   1.645 -0.2397 -0.4618  0.2074
    4PEO    H21  139   6.746   1.531   1.706  1.2408 -0.6550  1.8174
    4PEO    H22  140   6.772   1.625   1.552  0.5790  0.3120  0.1076
    5PEO     C1  141   6.877   1.711   1.718  0.2305 -0.3311  0.4065
    5PEO     H3  142   6.920   1.680   1.814 -0.7593  0.5314  1.1504
    5PEO     H4  143   6.793   1.775   1.747 -0.5002 -0.5677 -1.1186
    5PEO      O  144   6.965   1.770   1.634  0.1627 -0.1984 -0.1377
    5PEO     C2  145   6.988   1.909   1.665  0.1069 -0.0177 -0.0613
    5PEO     H5  146   7.035   1.912   1.764  0.7783  2.6119 -0.3982
    5PEO     H6  147   6.893   1.963   1.663 -1.7822 -3.0866 -0.0651
    5PEO     C3  148   7.077   1.968   1.552  0.0290 -0.2624  0.2395
    5PEO     H7  149   7.095   2.075   1.573 -0.4867  0.2078 -1.5236
    5PEO     H8  150   7.028   1.959   1.454 -2.5205 -0.2593  1.4394
    5PEO     O1  151   7.200   1.902   1.546 -0.0718 -0.5915  0.4769
    5PEO     C4  152   7.292   1.951   1.448 -0.3938 -0.1329 -0.1364
    5PEO     H9  153   7.295   2.060   1.446 -2.6814  0.0071 -2.7141
    5PEO    H10  154   7.260   1.922   1.347  3.4987 -0.7074 -1.3751
    5PEO     C5  155   7.434   1.893   1.492 -0.2801 -0.1759 -0.8451
    5PEO    H11  156   7.437   1.880   1.601  0.2828  1.7595 -0.5996
    5PEO    H12  157   7.508   1.971   1.470 -0.7352  0.3506 -0.5294
    5PEO     O2  158   7.467   1.772   1.428 -0.1358  0.5481 -0.0442
    5PEO     C6  159   7.415   1.652   1.487  0.0080 -0.1191 -0.5095
    5PEO    H13  160   7.431   1.569   1.416 -0.7325 -0.8345  0.1363
    5PEO    H14  161   7.306   1.663   1.488 -0.1565 -1.4360 -1.0888
    5PEO     C7  162   7.464   1.630   1.635 -0.0444  0.1948  0.9084
    5PEO    H15  163   7.558   1.683   1.653 -0.1959  1.2456 -1.1301
    5PEO    H16  164   7.493   1.524   1.634 -0.1799  0.1442 -0.9454
    5PEO     O3  165   7.364   1.650   1.735 -0.3501  0.6203  0.3534
    5PEO     C8  166   7.262   1.553   1.729 -0.5760 -0.0683 -0.7838
    5PEO    H17  167   7.297   1.449   1.727  0.0099  0.0802 -4.3564
    5PEO    H18  168   7.206   1.573   1.637  0.8669  1.6239 -1.3655
    5PEO     C9  169   7.171   1.571   1.857  0.0898  0.1604  0.0027
    5PEO    H19  170   7.081   1.511   1.841  0.1555  0.3988 -1.3981
    5PEO    H20  171   7.135   1.674   1.856 -0.6054 -0.0767 -0.9038
    5PEO     O4  172   7.234   1.537   1.984 -0.0854 -0.0693  0.2424
    5PEO    C10  173   7.151   1.515   2.098  0.5113  0.1185 -0.2349
    5PEO    H21  174   7.208   1.479   2.185 -0.0950 -0.0200  0.1061
    5PEO    H22  175   7.077   1.435   2.085  1.2030 -0.7645  1.0271
    6PET     C9  176   7.088   1.650   2.145  0.2427  0.9679  0.2246
    6PET     H6  177   7.150   1.731   2.104  1.9663 -0.9208 -1.1108
    6PET     H7  178   7.085   1.644   2.254  2.8292 -0.9019  0.2744
    6PET     O2  179   6.957   1.655   2.087 -0.0564 -0.3963 -0.1248
    6PET     C8  180   6.883   1.767   2.089 -0.0115 -0.3441 -0.2781
    6PET     O1  181   6.928   1.865   2.140 -0.6977 -0.3817 -0.2331
    6PET     C4  182   6.747   1.746   2.034  0.0296 -0.3865 -0.0194
    6PET     C5  183   6.646   1.851   2.023 -0.3663  0.4855 -0.5732
    6PET     C6  184   6.525   1.829   1.956 -0.1733  0.0980 -0.4012
    6PET     H4  185   6.457   1.913   1.946  0.6223  0.8408  0.2525
    6PET     H3  186   6.669   1.951   2.061  0.4786 -0.3027  1.0661
    6PET     C3  187   6.704   1.623   1.977 -0.1049 -0.0879  0.2729
    6PET     H2  188   6.764   1.534   1.990  0.0837 -0.2801 -1.6479
    6PET     C2  189   6.579   1.608   1.916  0.3110  0.5795  0.0103
    6PET     H1  190   6.560   1.511   1.872  0.5702  0.3074  0.4821
    6PET     C1  191   6.487   1.705   1.903  0.1724 -0.5851 -0.7242
    6PET     C7  192   6.355   1.683   1.829 -0.4169 -0.2645  0.1573
    6PET     O3  193   6.282   1.772   1.790 -0.2870  0.0803 -0.2022
    6PET     O4  194   6.338   1.553   1.796  0.0705 -0.1222  0.2917
    6PET    C10  195   6.238   1.515   1.698  0.0263 -0.2531 -0.3679
    6PET     H8  196   6.258   1.552   1.596 -1.4028  0.6677 -0.3403
    6PET     H9  197   6.142   1.558   1.728 -1.3128 -1.6435 -2.4279
    6PET    C11  198   6.222   1.362   1.705  0.1119  0.0815  0.1045
    6PET    H10  199   6.153   1.318   1.633 -0.6935 -1.8304  1.9275
    6PET    H11  200   6.171   1.341   1.800  0.8844 -1.7482  0.1567
    6PET    C12  201   6.348   1.275   1.703  0.0445  0.3007  0.1301
    6PET    H13  202   6.324   1.173   1.669  1.1525  0.3945 -0.9884
    6PET    H14  203   6.400   1.270   1.800  0.2893  1.4515  0.0706
    7PET     C9  204   6.466   1.319   1.600  0.2571  1.2351  0.0559
    7PET     H6  205   6.526   1.401   1.642  1.3636  0.9273 -0.8780
    7PET     H7  206   6.418   1.340   1.504 -0.3981 -0.7730 -0.0828
    7PET     O2  207   6.558   1.201   1.587  0.0676 -0.5571 -0.0644
    7PET     C8  208   6.630   1.195   1.469  0.4745  0.1597  0.0967
    7PET     O1  209   6.649   1.282   1.387  0.9172  0.0946 -0.5159
    7PET     C4  210   6.729   1.081   1.482 -0.1254 -0.4256  0.1984
    7PET     C5  211   6.827   1.057   1.378 -0.4938 -0.1979 -0.9387
    7PET     C6  212   6.923   0.950   1.393  0.2446 -0.0446  0.5381
    7PET     H4  213   6.996   0.936   1.314  0.7688  2.7242  0.4304
    7PET     H3  214   6.834   1.122   1.291  0.0733  1.8256  0.5356
    7PET     C3  215   6.732   0.991   1.595 -0.2250 -0.3697  0.2160
    7PET     H2  216   6.659   0.993   1.675 -0.1393  0.5052  0.2834
    7PET     C2  217   6.831   0.890   1.600  0.1592 -0.2987 -0.1405
    7PET     H1  218   6.827   0.823   1.686  0.8619  0.9955  0.9379
    7PET     C1  219   6.936   0.876   1.510 -0.3491  0.0952 -0.2198
    7PET     C7  220   7.048   0.774   1.512  0.3480  0.5739 -0.1446
    7PET     O3  221   7.138   0.763   1.431  0.8144 -0.2293  0.2116
    7PET     O4  222   7.036   0.694   1.625 -0.2285  0.2484 -0.3057
    7PET    C10  223   7.108   0.567   1.618  0.9929  0.1640 -0.3476
    7PET     H8  224   7.216   0.585   1.625  1.1444 -0.9421  0.3143
    7PET     H9  225   7.098   0.518   1.520  1.1734  0.5580 -0.5689
    7PET    C11  226   7.076   0.486   1.745  0.1652 -0.3388  0.1974
    7PET    H10  227   7.152   0.407   1.754  1.2231  0.8506  2.9359
    7PET    H11  228   6.980   0.433   1.737  0.7888 -1.6916  1.1435
    7PET    C12  229   7.080   0.566   1.878 -0.6660 -0.6548  0.6175
    7PET    H13  230   7.005   0.646   1.874  0.1840  0.2156  1.4579
    7PET    H14  231   7.175   0.618   1.897 -2.0339  2.2604  0.0985
    8PET     C9  232   7.040   0.489   2.003 -0.4929  0.0535 -0.4424
    8PET     H6  233   7.125   0.442   2.054 -0.8224  0.3882  0.4389
    8PET     H7  234   6.971   0.410   1.971 -1.2526  0.3613  0.4123
    8PET     O2  235   6.973   0.572   2.095  0.0033 -0.5530  0.1717
    8PET     C8  236   6.929   0.506   2.207  0.0843 -0.2325  0.0333
    8PET     O1  237   6.952   0.389   2.241  0.5747 -0.0588  0.5172
    8PET     C4  238   6.841   0.595   2.289  0.1534 -0.5522 -0.7494
    8PET     C5  239   6.814   0.557   2.420 -0.4662  0.3079 -0.3699
    8PET     C6  240   6.737   0.628   2.505  0.0027 -0.5195 -0.3843
    8PET     H4  241   6.723   0.595   2.608 -3.2273 -3.2714 -1.5625
    8PET     H3  242   6.849   0.458   2.448 -1.6055 -0.3914 -1.2685
    8PET     C3  243   6.782   0.709   2.241 -0.2454 -0.2357  0.1368
    8PET     H2  244   6.802   0.743   2.140 -0.0290 -2.2299 -0.5375
    8PET     C2  245   6.706   0.795   2.326  0.0784  0.3393  0.4118
    8PET     H1  246   6.671   0.889   2.284 -0.9905  0.0319  0.5981
    8PET     C1  247   6.686   0.752   2.461  0.2182  0.0420 -1.1159
    8PET     C7  248   6.603   0.832   2.553  0.5856  0.1863 -0.0966
    8PET     O3  249   6.561   0.937   2.515 -0.3239  0.3628 -0.3001
    8PET     O4  250   6.589   0.782   2.678  0.4633  0.4714 -0.2061
    8PET    C10  251   6.525   0.862   2.776 -0.0313  0.4613  0.0218
    8PET     H8  252   6.440   0.919   2.737 -0.4596  1.4145  2.2026
    8PET     H9  253   6.589   0.941   2.818 -0.6712  0.6073  0.7420
    8PET    C11  254   6.478   0.770   2.891 -0.5318 -0.3023  0.1240
    8PET    H10  255   6.553   0.784   2.970  0.1100 -0.2766 -0.4826
    8PET    H11  256   6.490   0.664   2.863  2.9071  0.1474 -0.5640
    8PET    C12  257   6.343   0.796   2.945  0.2965  0.1894  0.0458
    8PET    H13  258   6.272   0.793   2.862  1.0251  0.1917 -0.5913
    8PET    H14  259   6.329   0.897   2.984 -2.2305 -0.7047  1.7063
    9PET     C9  260   6.305   0.691   3.048 -0.3831  0.0488  0.2520
    9PET     H6  261   6.206   0.708   3.093 -0.3080 -0.0414  0.4507
    9PET     H7  262   6.374   0.683   3.132 -0.3198 -0.6285  0.1466
    9PET     O2  263   6.298   0.571   2.971 -0.1088 -0.4033 -0.4081
    9PET     C8  264   6.244   0.456   3.034 -0.1626  0.2741 -0.0150
    9PET     O1  265   6.208   0.460   3.152  0.1114  0.4349  0.0080
    9PET     C4  266   6.223   0.342   2.936 -0.5379  0.1461 -0.2841
    9PET     C5  267   6.283   0.349   2.811  0.2405  0.1758  0.9674
    9PET     C6  268   6.255   0.252   2.712 -0.0098  0.0917 -0.0823
    9PET     H4  269   6.296   0.261   2.612  0.4865  0.8384  0.1819
    9PET     H3  270   6.333   0.439   2.776 -0.4759 -0.4325 -1.8265
    9PET     C3  271   6.146   0.235   2.979 -0.1097 -0.6706 -0.5184
    9PET     H2  272   6.107   0.231   3.080  2.1636 -0.6425  0.4034
    9PET     C2  273   6.120   0.141   2.879  0.1675  0.3775  0.2729
    9PET     H1  274   6.051   0.059   2.898 -0.0218  0.2250 -1.0054
    9PET     C1  275   6.177   0.142   2.750 -0.5601 -0.3294  0.0876
    9PET     C7  276   6.136   0.041   2.648 -0.2980 -0.4483  0.3407
    9PET     O3  277   6.060  -0.049   2.670 -0.1908  0.3266 -0.2435
    9PET     O4  278   6.192   0.063   2.525  0.1132 -0.6049  0.2129
    9PET    C10  279   6.167  -0.027   2.422 -0.0223  0.4684  0.4306
    9PET     H8  280   6.060  -0.022   2.398  0.2870 -0.3865 -1.2519
    9PET     H9  281   6.198  -0.127   2.455 -0.6059 -0.0309 -0.5115
    9PET    C11  282   6.243   0.018   2.301  0.3624  0.4273  0.2097
    9PET    H10  283   6.212  -0.055   2.226 -0.6073  0.6258  0.4142
    9PET    H11  284   6.351   0.012   2.322  0.0002 -1.5918  1.7376
    9PET    C12  285   6.212   0.162   2.257 -0.1486 -0.0512  0.2783
    9PET    H13  286   6.231   0.231   2.340 -1.9985 -0.2431  0.9073
    9PET    H14  287   6.105   0.175   2.237 -0.2847 -0.9863  0.3586
   10PET     C9  288   6.278   0.189   2.116  0.1830  0.3987 -0.1632
   10PET     H6  289   6.245   0.112   2.046  1.0338  0.4453 -0.6259
   10PET     H7  290   6.387   0.181   2.127  0.3582  1.8087 -0.6127
   10PET     O2  291   6.238   0.320   2.069 -0.0826  0.1787  0.0307
   10PET     C8  292   6.291   0.365   1.954  0.9008  0.1257  1.0122
   10PET     O1  293   6.369   0.300   1.882 -0.1033  0.9384  0.1193
   10PET     C4  294   6.241   0.501   1.909 -0.2161 -0.6307  0.4670
   10PET     C5  295   6.175   0.586   2.007 -0.7083 -0.4003  0.2692
   10PET     C6  296   6.136   0.715   1.968 -0.7139 -0.3512 -0.1942
   10PET     H4  297   6.077   0.780   2.032  1.5910  1.7513 -0.0203
   10PET     H3  298   6.167   0.552   2.110  1.3459  0.9457  0.9556
   10PET     C3  299   6.264   0.550   1.779 -0.0049 -0.2559  0.5815
   10PET     H2  300   6.311   0.489   1.703  0.1462 -1.4578  1.5971
   10PET     C2  301   6.229   0.679   1.742  0.0973 -0.2976  0.5023
   10PET     H1  302   6.246   0.715   1.641  0.5530  1.7697  1.2680
   10PET     C1  303   6.169   0.763   1.836  0.1916  0.1850  0.0599
   10PET     C7  304   6.130   0.893   1.793  0.2951 -0.2278  0.0777
   10PET     O3  305   6.190   0.968   1.711 -0.6390  0.1557 -0.1785
   10PET     O4  306   6.003   0.919   1.845 -0.4976  0.2314  0.4660
   10PET    C10  307   5.961   1.055   1.842  0.1063 -0.2113  0.5085
   10PET     H8  308   5.972   1.102   1.743 -2.1697  0.6302  0.5868
   10PET     H9  309   6.024   1.119   1.905 -0.3336  0.2128  0.5284
   10PET    C11  310   5.819   1.067   1.898 -0.4600  0.0736 -0.6398
   10PET    H10  311   5.755   1.023   1.820 -1.7153  0.3794  0.1799
   10PET    H11  312   5.789   1.172   1.889  0.0528  0.2706 -0.0629
   10PET    C12  313   5.789   0.999   2.038 -0.4643  0.2670  0.5686
   10PET    H13  314   5.794   0.891   2.025 -2.6559  0.0751  0.8734
   10PET    H14  315   5.697   1.034   2.088 -0.7815 -0.0364  0.2034
   11PET     C9  316   5.889   1.039   2.147 -0.2360 -0.1899  0.2191
   11PET     H6  317   5.882   1.148   2.160 -1.7967 -0.2588  0.1578
   11PET     H7  318   5.992   1.015   2.115  0.0102  2.1214 -0.9754
   11PET     O2  319   5.864   0.994   2.277 -0.0785 -0.1542 -0.6013
   11PET     C8  320   5.870   0.855   2.301  0.0800  0.0939  0.2362
   11PET     O1  321   5.923   0.776   2.228  0.3816  0.0707  0.1260
   11PET     C4  322   5.812   0.816   2.430 -0.0601  0.8585 -0.2394
   11PET     C5  323   5.783   0.680   2.457  0.5506  0.0456 -0.0015
   11PET     C6  324   5.722   0.640   2.576  0.5435 -0.2679  0.2102
   11PET     H4  325   5.691   0.538   2.600  0.8074 -0.2474  0.6420
   11PET     H3  326   5.822   0.608   2.386  0.6157  0.8480 -0.8098
   11PET     C3  327   5.788   0.909   2.535  0.3502  0.2265 -0.0639
   11PET     H2  328   5.811   1.013   2.515 -0.8514  0.4624 -0.2963
   11PET     C2  329   5.745   0.866   2.661  0.2170 -0.0817  0.2612
   11PET     H1  330   5.731   0.945   2.735  1.9390  0.1197  0.4262
   11PET     C1  331   5.706   0.733   2.681 -0.1132 -0.7627 -0.4524
   11PET     C7  332   5.658   0.694   2.820 -0.3838 -0.0754 -0.3826
   11PET     O3  333   5.648   0.575   2.846 -0.2829  0.0413 -1.2124
   11PET     O4  334   5.640   0.796   2.907  0.9163  0.4444  0.1196
   11PET    C10  335   5.574   0.773   3.030 -0.4293  0.3851  0.3787
   11PET     H8  336   5.562   0.867   3.085  0.4291 -0.4789  2.1245
   11PET     H9  337   5.635   0.702   3.087 -0.0812  0.3795  0.0071
   11PET    C11  338   5.435   0.731   3.009  0.2577  0.3503  0.2423
   11PET    H10  339   5.378   0.711   3.101 -0.2907 -0.4552 -0.2552
   11PET    H11  340   5.431   0.637   2.952 -1.2555 -0.6105  1.8211
   11PET    C12  341   5.357   0.841   2.930 -0.2825  0.4914 -0.1321
   11PET    H13  342   5.395   0.854   2.829 -2.4672  3.5042 -0.7087
   11PET    H14  343   5.365   0.941   2.974  0.3426 -0.0551  1.0405
   12PET     C9  344   5.206   0.796   2.931  0.4215  0.2191 -0.4421
   12PET     H6  345   5.139   0.865   2.879 -0.2224  0.9077  1.2097
   12PET     H7  346   5.186   0.787   3.039  0.3875 -1.5062 -0.5607
   12PET     O2  347   5.196   0.665   2.874 -0.2481 -0.1662 -0.1564
   12PET     C8  348   5.077   0.599   2.884  0.2612  0.7037 -0.0298
   12PET     O1  349   4.975   0.643   2.929 -0.3104 -0.0479 -0.0296
   12PET     C4  350   5.090   0.460   2.835  0.0514 -0.2712 -0.2145
   12PET     C5  351   5.215   0.398   2.823  0.4825 -0.3798 -0.3863
   12PET     C6  352   5.228   0.276   2.762 -0.3916  0.2802  0.7957
   12PET     H4  353   5.329   0.238   2.752  0.6809  3.3725 -2.5466
   12PET     H3  354   5.303   0.455   2.850  0.2017  0.1068 -0.4860
   12PET     C3  355   4.978   0.388   2.792  0.0684  0.0368  0.4738
   12PET     H2  356   4.878   0.427   2.805 -0.3729 -0.9312  0.0208
   12PET     C2  357   4.986   0.264   2.729  0.2832  0.1894  0.3820
   12PET     H1  358   4.898   0.215   2.689 -0.6294  0.7367  1.6390
   12PET     C1  359   5.116   0.210   2.714  0.1012  0.0462 -0.0671
   12PET     C7  360   5.131   0.079   2.641 -0.3975 -0.2451 -1.1515
   12PET     O3  361   5.043   0.014   2.588 -0.3262 -0.3956  0.2309
   12PET     O4  362   5.261   0.032   2.656  0.6317  0.3956 -0.0194
   12PET    C10  363   5.294  -0.088   2.586  0.3554 -0.2084 -0.2033
   12PET     H8  364   5.266  -0.082   2.480 -0.1172 -0.2992 -0.0881
   12PET     H9  365   5.246  -0.175   2.632  0.1663 -0.3213 -0.6109
   12PET    C11  366   5.448  -0.111   2.594  0.2212  0.1230  0.2019
   12PET    H10  367   5.467  -0.189   2.520 -1.4832  0.7336 -0.9484
   12PET    H11  368   5.462  -0.136   2.700  1.3796  2.2619  0.6351
   12PET    C12  369   5.532   0.022   2.572  0.1821  0.0574 -0.6713
   12PET    H13  370   5.499   0.101   2.640 -1.3780 -1.0484 -0.0662
   12PET    H14  371   5.517   0.052   2.468 -0.1427 -1.4254 -1.0761
   13PET     C9  372   5.681  -0.005   2.588  0.4058 -0.3346  0.5099
   13PET     H6  373   5.723  -0.079   2.519 -0.6768 -0.0378 -0.5066
   13PET     H7  374   5.709  -0.048   2.684  0.8004 -1.1961  0.0168
   13PET     O2  375   5.762   0.113   2.558  0.6650 -0.1605 -0.8515
   13PET     C8  376   5.792   0.201   2.659 -0.0878  0.1527 -0.2830
   13PET     O1  377   5.758   0.180   2.778  0.3539 -0.3562  0.1793
   13PET     C4  378   5.884   0.314   2.617 -0.0924  0.7902  0.0639
   13PET     C5  379   5.936   0.306   2.489 -0.5865  0.2052 -0.3265
   13PET     C6  380   6.022   0.405   2.445 -0.1434  0.4333 -0.3538
   13PET     H4  381   6.073   0.390   2.350  0.9388  0.6538  0.1735
   13PET     H3  382   5.903   0.225   2.425  0.0724  0.6948 -1.3137
   13PET     C3  383   5.911   0.417   2.704 -0.0382 -0.0349  0.6036
   13PET     H2  384   5.866   0.429   2.803 -1.6882  1.6613 -0.2729
   13PET     C2  385   6.005   0.514   2.662  0.0772  0.0685  0.2390
   13PET     H1  386   6.041   0.593   2.727 -0.3433 -0.3015  0.9316
   13PET     C1  387   6.063   0.505   2.533  0.4092 -0.6783  0.0451
   13PET     C7  388   6.160   0.620   2.480  0.2953  0.4114  0.1220
   13PET     O3  389   6.239   0.601   2.388 -0.0546  0.5931  0.2939
   13PET     O4  390   6.145   0.736   2.541  0.3451  0.4894  0.0133
   13PET    C10  391   6.221   0.848   2.493 -0.0397  0.8394 -0.3414
   13PET     H8  392   6.202   0.858   2.385  2.1841  2.4725 -0.6298
   13PET     H9  393   6.329   0.833   2.501 -0.2488 -2.2224 -1.7504
   13PET    C11  394   6.173   0.977   2.558  0.2127 -0.1483  0.2673
   13PET    H10  395   6.181   0.968   2.667 -0.5022 -1.0224  0.2670
   13PET    H11  396   6.065   0.981   2.538  0.5290  2.0064 -1.4052
   13PET    C12  397   6.239   1.108   2.505 -0.3716  0.1095 -0.4432
   13PET    H13  398   6.347   1.105   2.526  0.3391 -1.4498 -3.5781
   13PET    H14  399   6.205   1.198   2.558 -0.5106 -0.6615  0.8081
   14PET     C9  400   6.222   1.134   2.354 -0.7886 -0.8467 -0.7276
   14PET     H6  401   6.258   1.234   2.327  0.3246 -0.5111  1.6958
   14PET     H7  402   6.116   1.121   2.333 -1.0506  0.5567 -0.3456
   14PET     O2  403   6.301   1.038   2.284  0.6281  0.3536  0.0685
   14PET     C8  404   6.287   1.030   2.151 -0.2646  0.5869  0.0611
   14PET     O1  405   6.209   1.095   2.092 -0.2900 -0.1421 -0.1102
   14PET     C4  406   6.382   0.924   2.090 -0.0873  0.4028  0.1774
   14PET     C5  407   6.411   0.940   1.957 -0.3786 -0.1543 -0.0473
   14PET     C6  408   6.482   0.843   1.885 -0.6315 -0.0707  0.0481
   14PET     H4  409   6.502   0.862   1.780 -0.5919 -2.6156 -0.4887
   14PET     H3  410   6.375   1.027   1.903  1.1971 -0.4931 -1.7426
   14PET     C3  411   6.426   0.808   2.152 -0.4689  0.1406  0.1820
   14PET     H2  412   6.403   0.805   2.258  0.8278  1.7947  0.5576
   14PET     C2  413   6.501   0.714   2.085 -0.6344  0.0519  0.1831
   14PET     H1  414   6.539   0.627   2.138  1.8737  0.3456 -0.9940
   14PET     C1  415   6.530   0.727   1.951 -0.0316  0.1057 -0.2048
   14PET     C7  416   6.596   0.611   1.878 -0.1159 -0.6925 -0.3926
   14PET     O3  417   6.631   0.511   1.937 -0.1955 -1.0373 -0.3519
   14PET     O4  418   6.620   0.631   1.747  0.5654 -0.2924  0.2484
   14PET    C10  419   6.653   0.519   1.662  0.0594 -0.5719  0.0923
   14PET     H8  420   6.578   0.441   1.673 -0.6752 -0.1068 -1.3355
   14PET     H9  421   6.752   0.486   1.695  0.5122  0.2328 -0.4268
   14PET    C11  422   6.675   0.569   1.517 -0.1462  0.1183 -0.4677
   14PET    H10  423   6.691   0.486   1.447  2.4107 -0.5181  0.7393
   14PET    H11  424   6.772   0.619   1.531  0.8433 -2.0025  0.7752
   14PET    C12  425   6.566   0.659   1.467  0.0038  0.0357  0.7395
   14PET    H13  426   6.542   0.740   1.536  0.4607  0.9470 -0.1477
   14PET    H14  427   6.477   0.595   1.456  1.3302 -1.5214 -1.7784
   15PET     C9  428   6.600   0.731   1.336 -0.4617  0.1073 -0.4295
   15PET     H6  429   6.572   0.665   1.253 -0.1823 -0.3246 -0.1852
   15PET     H7  430   6.707   0.752   1.334 -0.2768 -0.6232  0.5648
   15PET     O2  431   6.527   0.854   1.339 -0.0054  0.1559 -0.2916
   15PET     C8  432   6.532   0.944   1.233 -0.5014  0.0538  0.5538
   15PET     O1  433   6.595   0.921   1.130 -0.0544 -0.1829 -0.6221
   15PET     C4  434   6.437   1.065   1.260 -0.1991  0.1404 -0.6618
   15PET     C5  435   6.318   1.045   1.334 -0.1842  0.0260  0.1908
   15PET     C6  436   6.220   1.142   1.341  0.2207 -0.0201  0.5679
   15PET     H4  437   6.130   1.118   1.397  0.6950 -2.1180  0.5173
   15PET     H3  438   6.305   0.949   1.382  0.4848 -0.8028 -1.2399
   15PET     C3  439   6.454   1.183   1.190  0.1293 -0.2012 -0.9010
   15PET     H2  440   6.545   1.202   1.133  2.6927 -1.2287  2.5098
   15PET     C2  441   6.359   1.282   1.198  0.0605  0.4384 -0.6838
   15PET     H1  442   6.382   1.378   1.155  2.8514  0.0733 -0.2056
   15PET     C1  443   6.242   1.267   1.281  0.1609 -0.2990  0.1729
   15PET     C7  444   6.146   1.383   1.310  0.0371 -0.2012  0.6088
   15PET     O3  445   6.158   1.482   1.239  0.8724  0.3069  0.2186
   15PET     O4  446   6.057   1.362   1.407 -0.4104 -0.0908  0.0314
   15PET    C10  447   5.957   1.458   1.420  0.3372 -0.3769  0.7293
   15PET     H8  448   5.907   1.469   1.322  1.0752  0.2326  0.4131
   15PET     H9  449   5.988   1.560   1.445  0.2601 -0.1003 -0.2667
   15PET    C11  450   5.853   1.415   1.525  0.3655 -0.3191 -0.0928
   15PET    H10  451   5.785   1.500   1.537 -0.0127 -0.5119 -0.7536
   15PET    H11  452   5.898   1.400   1.624 -0.7393 -0.0275  0.4663
   15PET    C12  453   5.768   1.293   1.475 -0.9015 -0.0956  0.0210
   15PET    H13  454   5.837   1.210   1.452 -1.5201  0.0071 -2.4435
   15PET    H14  455   5.709   1.326   1.389  0.5879  0.3428 -0.8682
   16PET     C9  456   5.675   1.244   1.577  0.2644  0.6599 -0.2830
   16PET     H6  457   5.727   1.211   1.668 -1.1101 -1.3443 -0.1487
   16PET     H7  458   5.618   1.162   1.532 -0.0962  1.9819 -2.3710
   16PET     O2  459   5.584   1.353   1.601 -0.4774  0.2721  0.2111
   16PET     C8  460   5.472   1.327   1.661 -0.6317 -0.0974  0.6025
   16PET     O1  461   5.442   1.217   1.701 -0.0551 -0.1447 -0.1840
   16PET     C4  462   5.385   1.450   1.680  1.0975  0.3782 -0.2415
   16PET     C5  463   5.261   1.440   1.753 -0.3946  0.4806  1.0119
   16PET     C6  464   5.173   1.544   1.750  0.0633 -0.0719 -0.0401
   16PET     H4  465   5.079   1.529   1.802  0.4655  1.8630  1.3562
   16PET     H3  466   5.221   1.353   1.804 -2.5212  1.5731  1.3005
   16PET     C3  467   5.428   1.576   1.631 -0.4056  0.3027 -0.3145
   16PET     H2  468   5.521   1.582   1.574  0.6634 -1.5633  1.1271
   16PET     C2  469   5.338   1.683   1.636  0.4435 -0.1348 -0.1256
   16PET     H1  470   5.370   1.775   1.590  1.4359 -0.1977  0.4172
   16PET     C1  471   5.207   1.669   1.697  0.0392  0.1816  0.6803
   16PET     C7  472   5.115   1.791   1.700  0.2120  0.1275  0.2258
   16PET     O3  473   5.127   1.891   1.634 -0.0810 -0.1428  0.4353
   16PET     O4  474   5.012   1.770   1.782  0.7006  0.0750 -0.1846
   16PET    C10  475   4.909   1.867   1.789  0.1232  0.0025  0.1608
   16PET     H8  476   4.869   1.882   1.688  0.5771  1.7815  0.2042
   16PET     H9  477   4.947   1.964   1.822 -0.9973  0.2753  0.7163
   16PET    C11  478   4.798   1.815   1.883  0.1883  0.3072 -0.6018
   16PET    H10  479   4.728   1.895   1.907  1.0419  0.8277  0.2140
   16PET    H11  480   4.853   1.789   1.974  1.1774  0.2518 -1.1946
   16PET    C12  481   4.733   1.680   1.839  0.2634  0.0566 -0.5887
   16PET    H13  482   4.656   1.650   1.911 -0.4402 -0.2639 -1.4537
   16PET    H14  483   4.805   1.598   1.832  1.2208  0.6760  1.4841
   17PET     C9  484   4.663   1.685   1.699 -0.0161  0.2974 -0.3301
   17PET     H6  485   4.739   1.690   1.620 -1.4339 -0.2712 -1.7882
   17PET     H7  486   4.589   1.766   1.690 -1.1506 -0.6400  0.2668
   17PET     O2  487   4.584   1.566   1.683  0.2554  0.2754  0.1506
   17PET     C8  488   4.511   1.559   1.566 -0.3641  0.2728  0.0937
   17PET     O1  489   4.506   1.650   1.485  0.0887  0.2083  0.2521
   17PET     C4  490   4.430   1.432   1.553  0.0452  0.9348  0.1428
   17PET     C5  491   4.415   1.334   1.658 -0.7155  0.2404  0.2047
   17PET     C6  492   4.336   1.221   1.636  0.0237 -1.1216  0.4896
   17PET     H4  493   4.334   1.149   1.718  0.0522 -0.0737  1.4398
   17PET     H3  494   4.480   1.342   1.745 -0.7766 -1.0147  0.3859
   17PET     C3  495   4.351   1.418   1.433  0.4079 -0.2844 -0.5710
   17PET     H2  496   4.338   1.497   1.359 -0.5163  1.3331  1.2085
   17PET     C2  497   4.271   1.300   1.421  0.1400 -0.3962  0.2519
   17PET     H1  498   4.212   1.295   1.331  0.2525  1.3730  0.0445
   17PET     C1  499   4.255   1.203   1.522  0.0024  0.7360  0.2675
   17PET     C7  500   4.167   1.079   1.496 -0.0633  0.3212  0.1505
   17PET     O3  501   4.114   1.060   1.385  0.0679  0.5297 -0.1573
   17PET     O4  502   4.165   0.993   1.598  0.2311 -0.2007 -0.2291
   17PET    C10  503   4.111   0.867   1.569 -0.4637 -0.0206 -0.1812
   17PET     H8  504   4.183   0.802   1.517  0.9532  1.2037  0.1904
   17PET     H9  505   4.015   0.877   1.517 -0.7226  0.0795  0.3054
   17PET    C11  506   4.100   0.798   1.710  0.5440  0.7119  0.8293
   17PET    H10  507   4.067   0.694   1.700  0.3226  0.8474  0.0968
   17PET    H11  508   4.013   0.844   1.759  0.0470  0.1111  0.5222
   17PET    C12  509   4.222   0.808   1.801 -0.3557  0.3780  0.2395
   17PET    H13  510   4.247   0.914   1.814  0.7018  0.0091  1.3570
   17PET    H14  511   4.310   0.768   1.750  0.2657  0.5573  1.1651
   18PET     C9  512   4.206   0.752   1.940 -0.2049 -0.6568  0.2201
   18PET     H6  513   4.298   0.763   1.999  0.0487  1.1962 -0.4637
   18PET     H7  514   4.167   0.650   1.925  0.4199 -0.6093 -2.0429
   18PET     O2  515   4.103   0.831   2.008 -0.7533 -0.2121  0.0325
   18PET     C8  516   4.040   0.769   2.113 -0.4349 -0.0924  0.2073
   18PET     O1  517   4.050   0.650   2.142 -0.3312  0.1571  0.0050
   18PET     C4  518   3.958   0.864   2.191  0.1886 -0.0491  0.1163
   18PET     C5  519   3.854   0.817   2.276 -0.3308 -0.3067  0.4067
   18PET     C6  520   3.767   0.909   2.343 -0.3600 -0.1514  0.0684
   18PET     H4  521   3.698   0.865   2.414  0.8880  0.9703  2.0957
   18PET     H3  522   3.843   0.710   2.292 -0.9538 -0.1392  1.1572
   18PET     C3  523   3.966   1.005   2.186 -0.1842 -0.4388 -0.3632
   18PET     H2  524   4.050   1.042   2.129 -2.2535 -0.0979 -3.4253
   18PET     C2  525   3.884   1.091   2.258  0.6499 -0.0325 -0.6654
   18PET     H1  526   3.903   1.197   2.247 -0.1259  0.2148  0.2316
   18PET     C1  527   3.776   1.048   2.332  0.6656  0.0162 -0.3403
   18PET     C7  528   3.685   1.135   2.421  0.0356 -0.2666  0.2415
   18PET     O3  529   3.598   1.092   2.495 -0.0369  0.6270  0.2108
   18PET     O4  530   3.721   1.264   2.415 -0.1477 -0.1291  0.3439
   18PET    C10  531   3.662   1.346   2.511  0.2265  0.1744  0.2999
   18PET     H8  532   3.656   1.298   2.610 -1.9999 -1.9077 -0.7277
   18PET     H9  533   3.558   1.367   2.482  0.5096 -1.2525 -1.9663
   18PET    C11  534   3.743   1.474   2.515  0.2061 -0.0416  0.6097
   18PET    H10  535   3.689   1.556   2.564 -1.3269  0.3712 -1.6315
   18PET    H11  536   3.755   1.508   2.412 -0.9050 -0.1377  0.4412
   18PET    C12  537   3.884   1.457   2.577  0.4851 -0.2263 -0.2884
   18PET    H13  538   3.881   1.449   2.686 -2.3679  0.4957 -0.2192
   18PET    H14  539   3.934   1.553   2.566 -0.2686  0.1324 -0.7107
   19PET     C9  540   3.973   1.361   2.502 -0.4351  0.0358 -0.0529
   19PET     H6  541   3.982   1.388   2.396 -0.4108  1.0580  0.2013
   19PET     H7  542   3.934   1.259   2.513  0.6961 -0.5012 -0.8469
   19PET     O2  543   4.101   1.371   2.564  0.0540  0.0171  0.2122
   19PET     C8  544   4.210   1.312   2.501 -0.0866  0.1497 -0.4598
   19PET     O1  545   4.201   1.275   2.383 -0.0238  0.1321 -0.0248
   19PET     C4  546   4.334   1.311   2.586  0.2779  0.4101 -0.3880
   19PET     C5  547   4.349   1.395   2.693  0.4265 -0.0507  0.5598
   19PET     C6  548   4.466   1.394   2.762 -0.2400  0.1681 -0.0292
   19PET     H4  549   4.468   1.463   2.847 -2.7730  0.9459 -0.5255
   19PET     H3  550   4.264   1.453   2.727 -0.3063 -0.6246 -0.2240
   19PET     C3  551   4.439   1.225   2.542  0.4101 -0.2896  0.5700
   19PET     H2  552   4.425   1.165   2.453 -0.1362  0.2124  0.3136
   19PET     C2  553   4.559   1.225   2.615  0.5429 -0.2137  0.6154
   19PET     H1  554   4.639   1.160   2.579 -0.3014 -0.8258 -0.1948
   19PET     C1  555   4.568   1.311   2.725 -0.1304  0.3412 -0.4087
   19PET     C7  556   4.695   1.305   2.812  0.7977 -0.3729 -0.3553
   19PET     O3  557   4.703   1.380   2.907 -0.5744  0.1804 -0.3864
   19PET     O4  558   4.794   1.220   2.764 -0.4512  0.1400  0.2003
   19PET    C10  559   4.915   1.208   2.834 -0.0319  0.3923 -0.0280
   19PET     H8  560   4.898   1.159   2.930  1.6213  0.9242  0.5778
   19PET     H9  561   4.956   1.309   2.848 -0.8113  0.8627 -0.9986
   19PET    C11  562   5.011   1.117   2.754  0.4650  0.1157  0.7903
   19PET    H10  563   5.002   1.151   2.650  1.2094 -2.3980 -0.1637
   19PET    H11  564   4.988   1.011   2.766 -0.9832  0.2462 -0.4671
   19PET    C12  565   5.152   1.148   2.795 -0.5196 -0.4798  0.4290
   19PET    H13  566   5.172   1.104   2.893 -0.8544  1.0497  1.2282
   19PET    H14  567   5.157   1.255   2.817 -0.8789 -0.4302  0.2931
   20PET     C9  568   5.271   1.106   2.700 -0.0055 -0.4940  0.4429
   20PET     H6  569   5.361   1.114   2.762 -0.5197  0.7031  1.0611
   20PET     H7  570   5.287   1.187   2.627  1.9348 -1.2364 -0.0259
   20PET     O2  571   5.241   0.985   2.638 -0.6258 -0.0123  0.2462
   20PET     C8  572   5.339   0.932   2.557  0.2896  0.4550  0.4030
   20PET     O1  573   5.442   0.988   2.527  0.1940 -0.0035  0.0523
   20PET     C4  574   5.306   0.797   2.503 -1.0777 -0.0939  0.3408
   20PET     C5  575   5.392   0.740   2.399  0.6213 -0.2440 -0.0452
   20PET     C6  576   5.375   0.614   2.354 -0.5125 -0.0714  0.1660
   20PET     H4  577   5.439   0.573   2.277  0.4262  0.6503  0.5505
   20PET     H3  578   5.471   0.805   2.362  1.0624 -0.4794  0.4813
   20PET     C3  579   5.199   0.721   2.544  0.0593 -0.3750 -0.1295
   20PET     H2  580   5.130   0.764   2.615 -0.4088  0.8775 -1.2882
   20PET     C2  581   5.173   0.597   2.486  0.5838 -0.2632 -0.2764
   20PET     H1  582   5.090   0.540   2.527  0.9338 -0.5991 -0.0160
   20PET     C1  583   5.267   0.535   2.398  0.6188  0.2907  0.2437
   20PET     C7  584   5.241   0.399   2.339 -0.1427  0.2405 -0.2904
   20PET     O3  585   5.158   0.320   2.396 -0.3764 -0.1997 -0.0079
   20PET     O4  586   5.326   0.367   2.235  0.0052 -0.7555  0.7164
   20PET    C10  587   5.315   0.237   2.175 -0.3873 -0.0789  0.1416
   20PET     H8  588   5.213   0.225   2.136 -0.2678 -1.4886  0.1981
   20PET     H9  589   5.336   0.163   2.254  1.5226  0.5800  0.2910
   20PET    C11  590   5.424   0.224   2.061 -0.2862  0.3581  0.0486
   20PET    H10  591   5.523   0.209   2.106  0.1917 -0.7555 -1.3179
   20PET    H11  592   5.430   0.312   1.996  0.5754  1.7129  1.8752
   20PET    C12  593   5.394   0.098   1.976  0.0189 -0.8885 -0.0088
   20PET    H13  594   5.317   0.126   1.904  1.4718  0.0679 -1.2498
   20PET    H14  595   5.366   0.009   2.034 -1.0364 -0.3221  0.3708
   21PET     C9  596   5.510   0.052   1.877 -0.4572  0.4382  0.1470
   21PET     H6  597   5.483  -0.042   1.830 -0.4837  0.2142  0.6034
   21PET     H7  598   5.606   0.042   1.929  1.6131  3.0693 -2.7928
   21PET     O2  599   5.524   0.159   1.778 -0.1848 -0.1676  0.4903
   21PET     C8  600   5.622   0.143   1.681  0.3237  0.0999  0.4107
   21PET     O1  601   5.675   0.033   1.657 -0.1884  0.1535 -0.4428
   21PET     C4  602   5.654   0.271   1.605  0.3513  0.5820 -0.3564
   21PET     C5  603   5.594   0.393   1.643  0.0665  0.6900 -0.6603
   21PET     C6  604   5.614   0.504   1.564 -0.2344  0.0464  0.4587
   21PET     H4  605   5.572   0.597   1.601 -0.9484 -0.2498  0.3947
   21PET     H3  606   5.532   0.395   1.733  1.2610  0.8780  0.1879
   21PET     C3  607   5.726   0.266   1.486 -0.3408 -0.2386  0.0035
   21PET     H2  608   5.772   0.171   1.459  0.2464 -0.0209  0.2312
   21PET     C2  609   5.752   0.384   1.410 -0.3713  0.3638  0.2769
   21PET     H1  610   5.811   0.386   1.319 -1.9739  0.4881 -0.8059
   21PET     C1  611   5.691   0.505   1.448 -0.3963  0.4422  0.4327
   21PET     C7  612   5.695   0.625   1.353  0.4087  0.4969 -0.3364
   21PET     O3  613   5.742   0.615   1.239  0.1905  0.1713  0.4507
   21PET     O4  614   5.645   0.744   1.402 -0.2414  0.1924 -0.8249
   21PET    C10  615   5.628   0.854   1.309  0.1194  0.7703 -0.0455
   21PET     H8  616   5.720   0.885   1.257 -0.4573  1.5674 -0.6083
   21PET     H9  617   5.597   0.942   1.365  1.2376 -0.3711  2.5200
   21PET    C11  618   5.506   0.826   1.218  0.0848 -0.2733  0.2451
   21PET    H10  619   5.428   0.771   1.272 -0.5878 -0.9665 -1.3653
   21PET    H11  620   5.541   0.762   1.136  1.7747 -0.9126  1.4180
   21PET    C12  621   5.451   0.962   1.168 -0.0325 -0.5186 -0.2006
   21PET    H13  622   5.527   1.016   1.110 -0.3349  0.0242 -0.0988
   21PET    H14  623   5.422   1.020   1.257 -0.5279 -0.4395 -0.4129
   22PET     C9  624   5.320   0.954   1.091  0.8930 -0.1781 -0.6405
   22PET     H6  625   5.325   0.894   0.999 -1.1825 -1.0596 -0.2232
   22PET     H7  626   5.286   1.056   1.076 -0.6123 -0.0267  2.9648
   22PET     O2  627   5.229   0.887   1.175  0.4088 -0.7337 -0.4406
   22PET     C8  628   5.099   0.891   1.146  0.2240  0.1451 -0.3727
   22PET     O1  629   5.047   0.944   1.048 -0.1840 -0.7348  0.0550
   22PET     C4  630   5.019   0.810   1.243  0.6809  0.3923 -0.7047
   22PET     C5  631   5.078   0.707   1.321 -0.3669 -0.0476 -0.4377
   22PET     C6  632   5.013   0.638   1.429  0.9585 -0.3242  0.1367
   22PET     H4  633   5.062   0.560   1.486 -0.6409 -0.4573  1.4104
   22PET     H3  634   5.180   0.673   1.303  0.3183 -0.3145  3.2125
   22PET     C3  635   4.890   0.847   1.282  0.3233 -0.1423  0.2994
   22PET     H2  636   4.850   0.936   1.234 -0.3372 -0.5574  0.0545
   22PET     C2  637   4.825   0.781   1.387  0.4411  0.2113  0.1136
   22PET     H1  638   4.726   0.819   1.410  0.2900  0.6423 -1.1628
   22PET     C1  639   4.881   0.684   1.464  0.5703  0.1676  0.1139
   22PET     C7  640   4.819   0.648   1.598 -0.0782  0.2859 -0.4470
   22PET     O3  641   4.724   0.715   1.639 -0.3066 -0.4880  0.1955
   22PET     O4  642   4.874   0.537   1.661 -0.2095 -0.0861 -0.0122
   22PET    C10  643   4.830   0.511   1.792 -0.0466  0.3820 -0.1335
   22PET     H8  644   4.721   0.501   1.801 -0.3132  2.3588 -0.5605
   22PET     H9  645   4.863   0.596   1.854 -2.0663  0.3548  1.0874
   22PET    C11  646   4.902   0.386   1.849 -0.0550  0.9855 -0.4084
   22PET    H10  647   4.887   0.300   1.783 -0.9233 -0.6923  1.8413
   22PET    H11  648   4.869   0.357   1.950 -1.4030  1.2309 -0.7602
   22PET    C12  649   5.056   0.398   1.847  0.2290  0.2115  0.1134
   22PET    H13  650   5.095   0.407   1.745 -0.5605  0.5564 -0.1591
   22PET    H14  651   5.098   0.300   1.874 -0.1626  0.1853  0.6464
   23PET     C9  652   5.104   0.509   1.951 -0.0302  0.2262 -0.4963
   23PET     H6  653   5.199   0.499   2.004 -0.9420  0.8377  1.3114
   23PET     H7  654   5.028   0.516   2.030  1.7582  2.4545  1.1761
   23PET     O2  655   5.106   0.636   1.880 -0.1798  0.1366  0.1560
   23PET     C8  656   5.204   0.651   1.785  0.1450 -0.2313 -0.0787
   23PET     O1  657   5.302   0.575   1.773 -0.2844  0.3886  0.1927
   23PET     C4  658   5.173   0.779   1.698 -1.5549 -0.3745  0.3133
   23PET     C5  659   5.057   0.857   1.711  0.0806  0.2540 -0.4107
   23PET     C6  660   5.027   0.957   1.617  0.0075  0.5005  0.5350
   23PET     H4  661   4.930   1.005   1.626 -0.2322  0.0060  0.6661
   23PET     H3  662   4.978   0.838   1.783 -0.0001  2.2776  0.1165
   23PET     C3  663   5.273   0.816   1.605 -0.2633 -0.5942 -0.2298
   23PET     H2  664   5.367   0.763   1.599 -0.7342 -1.7676  1.8724
   23PET     C2  665   5.250   0.934   1.528 -0.1876 -0.0013 -0.3500
   23PET     H1  666   5.337   0.971   1.474 -0.7120  0.0436 -1.1890
   23PET     C1  667   5.124   0.997   1.520 -0.3146 -0.5692  0.1064
   23PET     C7  668   5.095   1.121   1.436  0.3526  0.0583  0.6588
   23PET     O3  669   4.979   1.145   1.402 -0.0924 -0.3095 -0.4973
   23PET     O4  670   5.204   1.196   1.400  0.2620 -0.1334 -0.1486
   23PET    C10  671   5.170   1.318   1.328  0.1146  0.0247 -0.0100
   23PET     H8  672   5.085   1.356   1.386  2.0470 -0.3224  3.2975
   23PET     H9  673   5.147   1.296   1.223  0.3856  0.7906 -0.2357
   23PET    C11  674   5.282   1.426   1.315  0.7210 -0.2130  0.3330
   23PET    H10  675   5.316   1.462   1.412  0.9619 -0.1156  0.2144
   23PET    H11  676   5.242   1.511   1.258  0.0707 -2.1306 -2.2502
   23PET    C12  677   5.398   1.362   1.242 -0.1868 -0.3883  0.0144
   23PET    H13  678   5.375   1.324   1.142  0.3204 -0.2285 -0.1643
   23PET    H14  679   5.437   1.275   1.296 -2.4365 -1.3093  0.2701
   24PET     C9  680   5.508   1.468   1.222 -0.0457 -0.7960  0.4091
   24PET     H6  681   5.546   1.507   1.317 -1.4822 -0.8223  1.0121
   24PET     H7  682   5.473   1.552   1.160  0.4247 -0.7448  0.2071
   24PET     O2  683   5.624   1.403   1.159 -0.2145 -0.0021 -0.2354
   24PET     C8  684   5.735   1.478   1.122  0.7462  0.8572 -0.2325
   24PET     O1  685   5.735   1.597   1.126 -0.5036 -0.6003  0.3755
   24PET     C4  686   5.853   1.406   1.062  0.0365  0.5296 -0.5579
   24PET     C5  687   5.957   1.473   0.997 -0.7070  0.0760  0.0201
   24PET     C6  688   6.073   1.408   0.951  0.3061  0.7903 -0.3833
   24PET     H4  689   6.149   1.461   0.895 -0.0903  0.2465 -1.4522
   24PET     H3  690   5.950   1.581   0.989  0.9345  0.4456  2.3820
   24PET     C3  691   5.861   1.267   1.067 -0.2801  0.3522  0.0512
   24PET     H2  692   5.776   1.209   1.101 -0.9761  0.9348 -0.6538
   24PET     C2  693   5.975   1.201   1.019 -0.1806 -0.1468  0.1352
   24PET     H1  694   5.983   1.093   1.023 -0.4047 -0.1701 -0.0500
   24PET     C1  695   6.087   1.269   0.966 -0.1441  0.4815  0.7919
   24PET     C7  696   6.202   1.189   0.914 -0.2462  0.5743 -0.2205
   24PET     O3  697   6.296   1.235   0.854 -0.3025 -0.2298  0.5833
   24PET     O4  698   6.200   1.059   0.956 -0.2366 -0.2091  0.1346
   24PET    C10  699   6.299   0.975   0.903 -0.4237  0.3894  0.1638
   24PET     H8  700   6.396   0.994   0.950 -0.0598  1.2929 -0.8912
   24PET     H9  701   6.319   0.996   0.797 -0.2942  1.7798  0.4473
   24PET    C11  702   6.262   0.823   0.919  0.2893 -0.2275 -0.0669
   24PET    H10  703   6.339   0.759   0.874  0.0560 -0.0316 -0.7587
   24PET    H11  704   6.166   0.798   0.872  0.7250  0.2268 -1.2271
   24PET    C12  705   6.252   0.771   1.062  0.1373 -0.3501  0.1278
   24PET    H13  706   6.347   0.800   1.108  0.0177  1.3624 -0.6531
   24PET    H14  707   6.262   0.662   1.056  0.5043 -0.2559 -1.5471
   25PET     C9  708   6.124   0.821   1.141  0.6286 -0.4093 -0.2493
   25PET     H6  709   6.033   0.827   1.082  1.4126  2.1887 -1.3284
   25PET     H7  710   6.142   0.927   1.161 -2.8783  0.2151  0.1411
   25PET     O2  711   6.099   0.736   1.261  0.0925 -0.0303  0.2419
   25PET     C8  712   6.007   0.779   1.356  0.8421  0.4419  0.0048
   25PET     O1  713   5.951   0.885   1.353  0.9799  0.0177 -0.1814
   25PET     C4  714   5.993   0.671   1.465  0.0994  0.2857  0.6114
   25PET     C5  715   6.044   0.538   1.450  0.1037  0.1547 -0.4320
   25PET     C6  716   6.031   0.448   1.558  0.2255 -0.1294 -0.2910
   25PET     H4  717   6.067   0.347   1.543  0.2502 -0.0797 -0.5645
   25PET     H3  718   6.092   0.498   1.361  0.2641 -3.0245  0.9624
   25PET     C3  719   5.931   0.706   1.586  0.1697  0.1837 -0.0527
   25PET     H2  720   5.884   0.803   1.592 -0.3367  0.0173 -1.2061
   25PET     C2  721   5.920   0.617   1.691  0.5967 -0.2421  0.0032
   25PET     H1  722   5.868   0.660   1.777  0.1857  0.6255 -0.6655
   25PET     C1  723   5.969   0.487   1.678  0.6254  0.1669  0.1660
   25PET     C7  724   5.949   0.385   1.791 -0.2742  0.0476 -0.0742
   25PET     O3  725   5.962   0.267   1.781  0.0560 -0.3250  0.4133
   25PET     O4  726   5.929   0.443   1.911  0.3959 -0.2571 -0.3539
   25PET    C10  727   5.899   0.361   2.023 -0.1077 -0.1239  0.5531
   25PET     H8  728   5.993   0.312   2.053  0.7850  1.2024  0.0143
   25PET     H9  729   5.824   0.286   1.994 -1.3799  1.0613  0.6849
   25PET    C11  730   5.857   0.453   2.140 -0.2084  0.3959 -0.0244
   25PET    H10  731   5.935   0.529   2.150 -1.2751  1.2951  2.0745
   25PET    H11  732   5.863   0.395   2.233  0.4615 -0.1553 -0.4050
   25PET    C12  733   5.713   0.510   2.125  0.1629 -0.2455  0.2531
   25PET    H13  734   5.686   0.561   2.218 -1.6168  1.0037 -0.8712
   25PET    H14  735   5.636   0.432   2.114  0.6115 -0.4202 -2.1251
   26PET     C9  736   5.694   0.595   1.993  0.0328 -0.3680  0.2493
   26PET     H6  737   5.691   0.540   1.898 -0.6569 -0.3199  0.2421
   26PET     H7  738   5.774   0.670   1.990 -0.2282 -0.1012 -0.3296
   26PET     O2  739   5.573   0.661   2.011 -0.1060  0.4274 -0.4346
   26PET     C8  740   5.532   0.754   1.921  0.3729 -1.0588 -0.3672
   26PET     O1  741   5.595   0.776   1.820 -0.1132  0.9535 -0.6758
   26PET     C4  742   5.412   0.838   1.967 -0.5026 -0.4227 -0.4170
   26PET     C5  743   5.374   0.952   1.893 -0.7872 -0.9921  0.3497
   26PET     C6  744   5.262   1.029   1.932 -0.0715 -0.6731  0.6303
   26PET     H4  745   5.244   1.125   1.885  2.0987 -0.4313  0.2152
   26PET     H3  746   5.440   0.984   1.813  0.8101 -0.9726  1.6158
   26PET     C3  747   5.323   0.786   2.055 -0.1706  0.1173 -0.7728
   26PET     H2  748   5.342   0.690   2.103  1.7897  0.1494 -1.3881
   26PET     C2  749   5.215   0.860   2.097  0.3331 -0.1997  0.0775
   26PET     H1  750   5.150   0.832   2.179 -1.3451  0.4212 -0.9841
   26PET     C1  751   5.185   0.982   2.038  0.2498  0.0937  0.0592
   26PET     C7  752   5.061   1.058   2.086  0.1294 -0.1774 -0.4688
   26PET     O3  753   5.004   1.033   2.190 -0.1875 -0.6680 -0.3585
   26PET     O4  754   5.018   1.157   2.000 -0.0285  0.2295 -0.1664
   26PET    C10  755   4.889   1.215   2.026 -0.1342  0.4040 -0.1705
   26PET     H8  756   4.895   1.275   2.117 -0.5530 -1.3242  1.0465
   26PET     H9  757   4.809   1.142   2.047 -1.4011  1.8422  0.1581
   26PET    C11  758   4.856   1.316   1.915  0.1685  0.1150 -0.4281
   26PET    H10  759   4.928   1.398   1.915 -0.8203  1.1137  2.8916
   26PET    H11  760   4.757   1.360   1.933 -0.2085 -0.9471  0.2283
   26PET    C12  761   4.845   1.251   1.776  0.3244  0.1489 -0.4131
   26PET    H13  762   4.942   1.204   1.757 -0.2862 -1.4587  0.2460
   26PET    H14  763   4.821   1.335   1.710 -2.1249  0.3922  0.6767
   27PET     C9  764   4.722   1.149   1.768 -0.4952  0.6300 -0.7809
   27PET     H6  765   4.718   1.125   1.661 -0.2150  1.5320 -1.0037
   27PET     H7  766   4.627   1.202   1.784 -0.8971  0.3044 -2.0027
   27PET     O2  767   4.737   1.031   1.854  0.2467 -0.2606  0.3624
   27PET     C8  768   4.645   0.936   1.848  0.3380  0.0077  0.8951
   27PET     O1  769   4.547   0.942   1.775  0.1121  0.3329 -0.2351
   27PET     C4  770   4.675   0.819   1.930 -0.0519  0.0014  0.2910
   27PET     C5  771   4.592   0.705   1.939  0.1283 -0.3485  0.4156
   27PET     C6  772   4.620   0.605   2.034 -0.1614 -0.2434  0.4670
   27PET     H4  773   4.553   0.520   2.034  1.1813 -1.3966 -1.9896
   27PET     H3  774   4.503   0.696   1.877 -0.8724  0.0810  1.7475
   27PET     C3  775   4.784   0.828   2.022 -0.2764 -0.1144  0.7578
   27PET     H2  776   4.850   0.913   2.006 -1.4977  0.5203 -1.4254
   27PET     C2  777   4.813   0.726   2.112  0.4733 -0.4210  0.2777
   27PET     H1  778   4.896   0.724   2.182  1.7784 -2.0020 -1.2205
   27PET     C1  779   4.730   0.615   2.116 -0.0030 -0.2540  0.5781
   27PET     C7  780   4.771   0.501   2.213  0.3557 -0.5353 -0.3015
   27PET     O3  781   4.855   0.513   2.308 -0.0029 -0.0600 -0.3109
   27PET     O4  782   4.692   0.388   2.195 -0.3113  0.3614 -0.0298
   27PET    C10  783   4.691   0.285   2.294  0.2544 -0.1664 -0.9139
   27PET     H8  784   4.787   0.239   2.320 -0.0782 -1.4800 -1.8608
   27PET     H9  785   4.627   0.205   2.254  0.8605 -2.2043  1.8531
   27PET    C11  786   4.625   0.341   2.427  0.3314 -0.5190  0.1869
   27PET    H10  787   4.703   0.386   2.490  0.0440  1.4871 -0.8132
   27PET    H11  788   4.576   0.259   2.480 -1.6502 -0.3623 -1.2861
   27PET    C12  789   4.522   0.452   2.411  0.0871  0.0392  0.0818
   27PET    H13  790   4.562   0.539   2.359  2.2393 -1.4405 -0.9105
   27PET    H14  791   4.483   0.482   2.508  0.0254  3.4678 -0.8867
   28PET     C9  792   4.398   0.428   2.321  0.2928 -0.1049 -0.2937
   28PET     H6  793   4.368   0.322   2.327 -2.3104  0.4196 -2.2927
   28PET     H7  794   4.412   0.452   2.215  2.0508 -0.6045 -0.1993
   28PET     O2  795   4.295   0.503   2.366  0.4704  0.1851  0.0226
   28PET     C8  796   4.298   0.643   2.358  0.2232  0.2530  0.1099
   28PET     O1  797   4.381   0.709   2.295 -0.1381 -0.0079 -0.1542
   28PET     C4  798   4.193   0.715   2.435  0.4058  0.0011  0.4176
   28PET     C5  799   4.202   0.859   2.440  0.3923  1.0691 -0.4060
   28PET     C6  800   4.105   0.932   2.506  0.3930  0.0328  0.3814
   28PET     H4  801   4.121   1.039   2.510  2.7534 -0.2780  2.3638
   28PET     H3  802   4.289   0.911   2.401  0.6171  2.3139  1.6344
   28PET     C3  803   4.089   0.650   2.503  0.1567 -0.2247 -0.6492
   28PET     H2  804   4.075   0.542   2.505 -1.3210 -0.0360  0.2937
   28PET     C2  805   3.993   0.726   2.570  0.5486  0.3007  0.2051
   28PET     H1  806   3.904   0.680   2.610  0.7212 -0.9132 -0.7305
   28PET     C1  807   4.004   0.869   2.578  0.4821 -0.0358  0.1325
   28PET     C7  808   3.908   0.954   2.657  0.2364 -0.7782  0.2512
   28PET     O3  809   3.941   1.071   2.678  0.0099  0.2597  0.3879
   28PET     O4  810   3.794   0.892   2.704  0.4970  0.3520 -0.3908
   28PET    C10  811   3.708   0.969   2.794 -0.0245 -0.3607 -0.7499
   28PET     H8  812   3.681   1.065   2.749  0.6185 -0.1422 -0.6779
   28PET     H9  813   3.759   0.993   2.888 -0.9791  0.9392 -0.5339
   28PET    C11  814   3.574   0.896   2.821 -0.3840  0.0155 -0.0813
   28PET    H10  815   3.520   0.886   2.726  2.1276 -0.3135 -1.5627
   28PET    H11  816   3.517   0.967   2.883 -0.4776  1.2199 -1.5002
   28PET    C12  817   3.583   0.761   2.899  0.2955  0.5864  0.4020
   28PET    H13  818   3.638   0.689   2.837 -0.5763  0.9706 -0.8520
   28PET    H14  819   3.481   0.721   2.907  0.0616  1.3538  1.6377
   29PET     C9  820   3.655   0.758   3.035 -0.3380  0.0112 -0.5686
   29PET     H6  821   3.614   0.673   3.091 -0.0743 -0.5612 -1.2199
   29PET     H7  822   3.623   0.851   3.083  1.3836  0.3838 -0.0867
   29PET     O2  823   3.797   0.768   3.021 -0.2615  0.0178  0.8117
   29PET     C8  824   3.862   0.666   2.960 -0.6951  0.3712  0.6129
   29PET     O1  825   3.815   0.553   2.938 -0.1448 -0.8451  0.0014
   29PET     C4  826   4.002   0.703   2.921  0.3721 -0.2110  0.5473
   29PET     C5  827   4.049   0.835   2.933 -0.1213  0.6593  0.3019
   29PET     C6  828   4.174   0.864   2.882 -0.7731 -0.1150  0.0445
   29PET     H4  829   4.213   0.966   2.879  0.5287 -0.5881  0.4596
   29PET     H3  830   3.990   0.913   2.980 -0.6624  0.3454  0.1522
   29PET     C3  831   4.080   0.604   2.853 -0.7053 -0.1119  0.0806
   29PET     H2  832   4.043   0.502   2.860 -1.6372  0.2456  0.6230
   29PET     C2  833   4.208   0.638   2.803  0.6093 -0.2548 -0.1186
   29PET     H1  834   4.274   0.567   2.753  2.6362  0.3074  1.6021
   29PET     C1  835   4.254   0.772   2.808 -0.2522  0.3868 -0.3350
   29PET     C7  836   4.387   0.817   2.739  0.6752  0.2667 -0.1143
   29PET     O3  837   4.444   0.920   2.776 -0.0579  0.0248  0.2219
   29PET     O4  838   4.429   0.735   2.632 -0.0732 -0.1622  0.1463
   29PET    C10  839   4.555   0.780   2.577 -0.4097  0.7630  0.4884
   29PET     H8  840   4.567   0.889   2.567 -0.1884  0.5400 -3.0267
   29PET     H9  841   4.580   0.726   2.485  1.7053 -0.6959  1.8406
   29PET    C11  842   4.668   0.735   2.677  1.0637  0.0001  0.3697
   29PET    H10  843   4.669   0.626   2.666 -2.6485 -0.4799  3.0024
   29PET    H11  844   4.641   0.753   2.781 -1.4763  0.2044 -0.2554
   29PET    C12  845   4.801   0.810   2.646 -0.1463 -0.2046  0.1329
   29PET    H13  846   4.879   0.777   2.715  0.4779 -0.9970 -0.9205
   29PET    H14  847   4.784   0.915   2.672 -0.8212 -0.5861  1.2850
   30PET     C9  848   4.858   0.786   2.500  0.8775 -0.2799  0.5068
   30PET     H6  849   4.853   0.678   2.481 -1.6000 -0.6796  2.9335
   30PET     H7  850   4.963   0.819   2.499  1.1352 -1.0615  0.9897
   30PET     O2  851   4.778   0.857   2.405 -0.0000  0.2534 -0.4666
   30PET     C8  852   4.802   0.994   2.385  0.9737  1.3519  0.3317
   30PET     O1  853   4.885   1.061   2.448  0.3256 -0.3794  0.0814
   30PET     C4  854   4.686   1.051   2.301 -0.5906 -0.1780  0.2611
   30PET     C5  855   4.671   1.187   2.278  0.7348 -0.3971 -0.4722
   30PET     C6  856   4.571   1.236   2.201  0.1242  0.1381 -0.4884
   30PET     H4  857   4.568   1.344   2.189  1.2391  0.6241  2.8507
   30PET     H3  858   4.745   1.253   2.322  1.4930 -0.5363 -1.4906
   30PET     C3  859   4.598   0.961   2.242  0.6705 -0.5161  0.0756
   30PET     H2  860   4.599   0.854   2.257  1.4604 -0.7875 -1.6104
   30PET     C2  861   4.493   1.011   2.154  0.0362 -0.6677  0.3012
   30PET     H1  862   4.439   0.942   2.091 -0.0867  0.6683 -1.1010
   30PET     C1  863   4.477   1.152   2.141 -0.9375 -0.7145 -0.2223
   30PET     C7  864   4.361   1.209   2.060 -0.6878  0.1900 -0.1558
   30PET     O3  865   4.293   1.140   1.984 -0.4040  0.4467  0.6265
   30PET     O4  866   4.341   1.338   2.071 -0.0670 -0.3955  0.1266
   30PET    C10  867   4.244   1.396   1.985 -0.3389 -0.1842  0.4534
   30PET     H8  868   4.147   1.356   2.015 -1.1144  0.6364 -0.8810
   30PET     H9  869   4.253   1.367   1.880  0.2269  3.2043 -0.5593
   30PET    C11  870   4.256   1.548   2.000 -0.3766  0.2909  1.1095
   30PET    H10  871   4.257   1.571   2.107  1.9519 -0.6920  1.3582
   30PET    H11  872   4.169   1.598   1.955 -1.1304 -1.0633  0.9859
   30PET    C12  873   4.382   1.604   1.942 -0.2014 -0.0693  0.3241
   30PET    H13  874   4.396   1.712   1.960  0.7567 -0.0613 -0.3661
   30PET    H14  875   4.370   1.595   1.833  2.2712  0.5893 -0.0562
   31SOL     OW  876   2.364   1.056   0.695  0.2370 -0.3035 -0.2462
   31SOL    HW1  877   2.459   1.060   0.701  0.3974 -1.5217 -1.4820
   31SOL    HW2  878   2.344   1.089   0.607 -0.2373 -2.3421 -0.9715
   32SOL     OW  879   2.169   1.822   2.378 -0.9253 -0.1833 -0.2215
   32SOL    HW1  880   2.229   1.752   2.354 -2.8904 -1.3064 -2.1886
   32SOL    HW2  881   2.171   1.882   2.304 -1.3432  0.4152  0.2364
   33SOL     OW  882   1.799   2.287   3.072 -0.2520  0.0599 -0.0675
   33SOL    HW1  883   1.815   2.379   3.049  0.3505  0.2367  1.0288
   33SOL    HW2  884   1.705   2.275   3.058  0.0975  0.0267 -3.0195
   34SOL     OW  885   0.912   0.679   0.744 -0.7341  0.2856  0.4923
   34SOL    HW1  886   0.860   0.759   0.734 -0.2506  0.4727 -0.7621
   34SOL    HW2  887   0.907   0.637   0.658 -1.0607 -1.0929  1.1742
   35SOL     OW  888   1.566   1.717   1.412 -0.5925  0.4491 -0.1577
   35SOL    HW1  889   1.496   1.781   1.399 -0.2721  0.8832  0.2296
   35SOL    HW2  890   1.645   1.760   1.378 -0.7390 -0.6058 -2.0117
   36SOL     OW  891   1.907   2.559   2.389 -0.3125  0.1906 -0.3244
   36SOL    HW1  892   1.941   2.647   2.403  1.7849 -0.2378 -2.1295
   36SOL    HW2  893   1.985   2.503   2.390 -1.4908 -1.5240 -0.1720
   37SOL     OW  894   2.351   2.838   1.148  0.6083  0.0241  0.1595
   37SOL    HW1  895   2.300   2.758   1.151 -1.0499  1.0246 -0.0207
   37SOL    HW2  896   2.343   2.870   1.058  0.8545  0.6293  0.3416
   38SOL     OW  897   3.295   2.380   1.797  0.4775  0.1891  0.0729
   38SOL    HW1  898   3.272   2.312   1.859  0.9626  1.4260  1.6626
   38SOL    HW2  899   3.391   2.381   1.795  0.4790  0.8563  0.1096
   39SOL     OW  900   2.993   2.878   0.031 -0.6204 -0.3502  0.6199
   39SOL    HW1  901   2.921   2.927   0.071  0.6404  1.3042  0.9778
   39SOL    HW2  902   3.062   2.943   0.018  0.1071 -1.4525 -1.5697
   40SOL     OW  903   2.830   1.742   1.476 -0.4666  0.1704  0.3525
   40SOL    HW1  904   2.820   1.767   1.384 -0.5689  1.5490  0.7272
   40SOL    HW2  905   2.778   1.806   1.524  0.5245  0.1578  1.4674
   41SOL     OW  906   2.788   2.182   1.513  0.1277 -0.0218 -0.3196
   41SOL    HW1  907   2.696   2.160   1.499 -0.0292  0.7754 -0.6232
   41SOL    HW2  908   2.790   2.219   1.602  0.2268 -0.4274 -0.1545
   42SOL     OW  909   1.102   0.797   3.223  0.6122  0.2149 -0.3095
   42SOL    HW1  910   1.083   0.871   3.165 -0.5586  1.1037  1.1440
   42SOL    HW2  911   1.017   0.758   3.240  0.9816 -0.2340  0.5462
   43SOL     OW  912   1.669   2.051   2.073 -0.3418 -0.4152  0.1672
   43SOL    HW1  913   1.743   1.992   2.058  2.2285  2.2421  1.5823
   43SOL    HW2  914   1.650   2.043   2.166  0.3066  1.2074  0.4658
   44SOL     OW  915   2.096   1.054   0.808 -0.0087  0.1385  0.2718
   44SOL    HW1  916   2.183   1.076   0.774 -0.3900  0.1090 -0.7652
   44SOL    HW2  917   2.037   1.114   0.762 -0.3364  1.8511  2.7003
   45SOL     OW  918   2.414   1.302   0.105 -0.3193 -0.5431  0.0317
   45SOL    HW1  919   2.447   1.258   0.183  2.6848  0.4965 -0.5252
   45SOL    HW2  920   2.492   1.332   0.059 -1.8870 -1.5012 -3.6782
   46SOL     OW  921   2.277   1.110   3.235 -0.0413 -0.2942  0.0751
   46SOL    HW1  922   2.307   1.188   3.281 -0.7499  0.0900 -0.1014
   46SOL    HW2  923   2.197   1.084   3.281  1.5588 -2.4715  1.8119
   47SOL     OW  924   2.378   3.027   2.894 -0.0835  0.6128  0.1850
   47SOL    HW1  925   2.396   3.120   2.911  1.1808  0.4140  0.0105
   47SOL    HW2  926   2.377   2.986   2.981  1.1362  0.5015  0.1660
   48SOL     OW  927   0.350   1.090   3.286 -0.5810 -0.1135  0.4062
   48SOL    HW1  928   0.345   1.136   3.202 -1.0055 -0.4288  0.2550
   48SOL    HW2  929   0.267   1.109   3.328 -0.9319 -1.0681  0.1660
   49SOL     OW  930   1.564   0.487   1.191  0.2192 -0.1361 -0.0356
   49SOL    HW1  931   1.571   0.540   1.271  2.7124 -0.1816 -0.1559
   49SOL    HW2  932   1.582   0.397   1.221  1.7059 -0.0786 -0.6901
   50SOL     OW  933   1.048   1.010   3.066 -0.0718  0.0430  0.8154
   50SOL    HW1  934   1.103   1.010   2.987 -1.7707  0.1014 -0.4453
   50SOL    HW2  935   1.021   1.102   3.076 -0.5635 -0.1099  0.9340
   51SOL     OW  936   0.185   0.202   2.078 -0.3103  0.1337 -0.7801
   51SOL    HW1  937   0.238   0.267   2.124  0.4137 -1.0540  0.1070
   51SOL    HW2  938   0.095   0.234   2.087 -0.2432 -0.2064  1.7998
   52SOL     OW  939   1.093   0.199   2.807  0.4971  0.0571  0.0033
   52SOL    HW1  940   1.056   0.206   2.719 -0.1440  1.1973  0.3385
   52SOL    HW2  941   1.025   0.234   2.865  1.8249  1.6904  0.6955
   53SOL     OW  942   2.794   1.215   3.071  0.2702 -0.2408 -0.2482
   53SOL    HW1  943   2.733   1.190   3.002  1.8358 -0.6959 -1.5224
   53SOL    HW2  944   2.797   1.140   3.129  2.1025 -1.6456 -2.0178
   54SOL     OW  945   2.640   2.268   1.994 -0.1242  0.1539  0.4643
   54SOL    HW1  946   2.592   2.350   1.996 -0.9561 -0.3082 -0.0492
   54SOL    HW2  947   2.590   2.212   1.935  1.6121  0.0036 -0.9276
   55SOL     OW  948   3.040   0.262   0.417 -0.0637  0.2079  0.1533
   55SOL    HW1  949   2.977   0.193   0.438  0.3360 -0.4129 -0.6293
   55SOL    HW2  950   3.031   0.326   0.488 -1.4507  0.0456  0.1496
   56SOL     OW  951   0.674   2.403   1.002  0.4391 -0.1484  0.2223
   56SOL    HW1  952   0.659   2.494   1.027  1.8249  0.2186 -0.2007
   56SOL    HW2  953   0.758   2.404   0.957 -0.8306 -1.1454 -2.3990
   57SOL     OW  954   3.083   3.308   1.504 -0.4768  0.3965 -0.6207
   57SOL    HW1  955   3.159   3.362   1.525 -0.7230  0.4602  0.1726
   57SOL    HW2  956   3.116   3.243   1.441  0.3829  0.0635  0.1402
   58SOL     OW  957   2.908   1.695   2.880  0.4912 -0.2266  0.0323
   58SOL    HW1  958   2.933   1.695   2.973 -0.7800  1.3379  0.4156
   58SOL    HW2  959   2.950   1.773   2.844 -0.8428  0.4577 -0.1291
   59SOL     OW  960   3.030   2.056   1.585 -0.1566 -0.7367  0.0628
   59SOL    HW1  961   3.077   2.139   1.574  1.5859 -1.8991 -2.1375
   59SOL    HW2  962   2.938   2.080   1.576  0.2354  1.0764  0.3946
   60SOL     OW  963   1.392   1.559   3.285 -0.1036 -0.1253  0.1271
   60SOL    HW1  964   1.440   1.640   3.300 -0.1745 -0.2156  0.8561
   60SOL    HW2  965   1.312   1.568   3.336 -0.2189 -0.5604  0.0323
   61SOL     OW  966   2.429   2.889   0.346 -0.7080  0.2596  0.3130
   61SOL    HW1  967   2.489   2.848   0.408 -1.7737  0.1025  1.2843
   61SOL    HW2  968   2.360   2.823   0.332  0.0422 -0.1456 -1.9054
   62SOL     OW  969   1.158   0.875   1.525  0.2709  0.1352  0.0048
   62SOL    HW1  970   1.164   0.965   1.492 -0.7074  0.2275  0.0215
   62SOL    HW2  971   1.192   0.879   1.614  1.3594  0.2334 -0.4061
   63SOL     OW  972   1.660   0.512   0.700  0.0902  0.3559 -0.0065
   63SOL    HW1  973   1.573   0.500   0.739  0.1188  1.0432  0.2864
   63SOL    HW2  974   1.665   0.605   0.680  0.6158  0.2533 -0.3781
   64SOL     OW  975   1.421   1.735   0.708  0.6780  0.1126 -0.0095
   64SOL    HW1  976   1.397   1.660   0.653  0.7241 -0.6346  0.9685
   64SOL    HW2  977   1.416   1.702   0.798  2.4694  0.7754  0.3695
   65SOL     OW  978   1.362   3.280   2.144  0.3327 -0.3440 -0.4501
   65SOL    HW1  979   1.290   3.221   2.168 -0.3102  1.0734  1.3452
   65SOL    HW2  980   1.434   3.254   2.200  0.4145 -0.1374 -0.4607
   66SOL     OW  981   0.138   0.027   2.831 -0.0769 -0.2477  0.2500
   66SOL    HW1  982   0.197  -0.040   2.797  0.4667  0.7029 -0.7860
   66SOL    HW2  983   0.051   0.001   2.801  0.2059 -0.2098 -0.6281
   67SOL     OW  984   0.411   1.677   1.408  0.7146  0.4117 -0.2021
   67SOL    HW1  985   0.359   1.663   1.487  0.9450 -0.5188 -0.2064
   67SOL    HW2  986   0.466   1.752   1.429  1.0641 -0.0719  0.6791
   68SOL     OW  987   2.189   2.600   2.523 -0.3002 -0.1993  0.6766
   68SOL    HW1  988   2.234   2.623   2.442 -1.3823  0.5627  0.2767
   68SOL    HW2  989   2.230   2.517   2.549  0.4596 -0.1701 -0.3279
   69SOL     OW  990   1.766   2.419   2.594  0.2944 -0.0583 -0.0548
   69SOL    HW1  991   1.678   2.455   2.606 -0.4394 -1.3769 -1.2764
   69SOL    HW2  992   1.808   2.479   2.532 -0.0225  0.1205 -0.0973
   70SOL     OW  993   2.160   2.021   0.395  0.1274 -0.3192  0.3118
   70SOL    HW1  994   2.082   2.073   0.373  0.0443 -0.4572  0.2849
   70SOL    HW2  995   2.134   1.968   0.469 -0.3254 -1.5987 -0.7276
   71SOL     OW  996   1.310   1.004   2.956  0.0387 -0.0874  0.0654
   71SOL    HW1  997   1.279   0.984   2.868 -0.3888  0.3433  0.1141
   71SOL    HW2  998   1.317   0.919   2.999 -1.2666 -0.1864  0.1192
   72SOL     OW  999   1.855   1.567   2.087 -0.8405 -0.2240 -0.0479
   72SOL    HW1 1000   1.831   1.504   2.155 -1.4292 -0.6549 -0.6424
   72SOL    HW2 1001   1.935   1.532   2.048 -1.9566 -1.4136 -1.3645
   73SOL     OW 1002   1.852   2.570   1.326 -0.0966  0.4446  0.6439
   73SOL    HW1 1003   1.853   2.488   1.278  0.3487  1.0974 -0.5105
   73SOL    HW2 1004   1.763   2.604   1.315 -0.3258  0.0677  1.2476
   74SOL     OW 1005   0.736   0.237   2.351  0.0834  0.0477  0.5201
   74SOL    HW1 1006   0.686   0.316   2.371 -0.0513 -0.4281  2.2352
   74SOL    HW2 1007   0.669   0.169   2.341  0.2717 -0.2159  0.9844
   75SOL     OW 1008   0.151   0.418   3.091 -0.1645  0.2296 -0.0299
   75SOL    HW1 1009   0.243   0.405   3.069 -0.2930 -0.6160 -0.0765
   75SOL    HW2 1010   0.153   0.482   3.162  0.4180  0.6878 -0.4493
   76SOL     OW 1011   2.890   2.082   0.719 -0.6372 -0.3394  0.4110
   76SOL    HW1 1012   2.924   2.019   0.782  1.4047 -0.4238 -0.6934
   76SOL    HW2 1013   2.946   2.072   0.642 -0.6217  2.3499 -0.0406
   77SOL     OW 1014   1.677   3.249   1.159  0.2114  0.0626 -0.4725
   77SOL    HW1 1015   1.726   3.327   1.134  0.9496 -0.2408 -0.0072
   77SOL    HW2 1016   1.712   3.225   1.245 -0.7813 -0.1415 -0.1034
   78SOL     OW 1017   1.947   2.909   3.140 -0.4882 -0.2606  0.5539
   78SOL    HW1 1018   1.930   2.818   3.163 -0.1328 -0.3860  0.3337
   78SOL    HW2 1019   1.881   2.959   3.188 -0.7311 -0.6399  0.6154
   79SOL     OW 1020   0.949   0.592   1.194 -0.6136  0.2748  0.4703
   79SOL    HW1 1021   1.026   0.642   1.221  0.3823 -0.1180 -1.5388
   79SOL    HW2 1022   0.876   0.653   1.205  0.3922  1.7114 -0.5243
   80SOL     OW 1023   0.544   3.091   1.888  0.2643 -0.1596  0.3823
   80SOL    HW1 1024   0.471   3.038   1.857  0.4116 -0.4431  0.5115
   80SOL    HW2 1025   0.524   3.180   1.859  0.5735 -0.4701 -0.8514
   81SOL     OW 1026   1.344   0.182   3.097 -0.0839 -0.6043  0.2368
   81SOL    HW1 1027   1.369   0.272   3.117 -0.3157 -0.4566 -0.1334
   81SOL    HW2 1028   1.411   0.151   3.036 -1.2426  0.0820 -1.4587
   82SOL     OW 1029   2.016   1.843   0.012 -0.8324  0.0033  0.0282
   82SOL    HW1 1030   2.096   1.893  -0.003 -1.9134  1.8954  0.2396
   82SOL    HW2 1031   2.027   1.762  -0.039  0.4781  0.9990 -1.3357
   83SOL     OW 1032   1.482   0.066   2.892  0.5094  0.3085  0.3358
   83SOL    HW1 1033   1.411   0.015   2.852  0.3092  0.3856  0.5894
   83SOL    HW2 1034   1.543   0.000   2.926  2.5260  0.1258 -3.1650
   84SOL     OW 1035   1.895   2.225   0.699 -0.3499 -0.5312  0.0431
   84SOL    HW1 1036   1.918   2.166   0.771  1.6256  1.2717  0.9998
   84SOL    HW2 1037   1.977   2.239   0.652 -1.2868 -0.4218 -1.6485
   85SOL     OW 1038   2.569   1.322   2.447 -0.4036  0.7440  0.1335
   85SOL    HW1 1039   2.489   1.271   2.460 -0.8175  1.0797 -0.9404
   85SOL    HW2 1040   2.564   1.351   2.356  1.5885 -0.3317 -0.4006
   86SOL     OW 1041   3.015   3.175   0.225  0.2149  0.2472 -0.2891
   86SOL    HW1 1042   3.080   3.240   0.196  0.2674 -0.0794 -0.9292
   86SOL    HW2 1043   2.939   3.226   0.250  0.9620  0.6927  1.1752
   87SOL     OW 1044   3.141   2.555   2.175 -0.6441  0.0939  0.0021
   87SOL    HW1 1045   3.052   2.521   2.178 -0.5261 -0.4801 -1.7201
   87SOL    HW2 1046   3.196   2.477   2.177 -0.2113  0.4021  0.1894
   88SOL     OW 1047   1.498   0.856   0.797  0.0169 -0.1461  0.3231
   88SOL    HW1 1048   1.538   0.806   0.726 -0.7792  0.4462 -0.5700
   88SOL    HW2 1049   1.485   0.792   0.867  0.2108 -0.8928 -0.3074
   89SOL     OW 1050   0.664   1.745   2.727  0.0173 -0.0590 -0.3767
   89SOL    HW1 1051   0.667   1.764   2.634  0.9432 -1.4150 -0.6586
   89SOL    HW2 1052   0.755   1.751   2.756 -0.1765 -0.2546  0.2958
   90SOL     OW 1053   2.567   1.166   0.356 -0.2294 -0.2743 -0.2294
   90SOL    HW1 1054   2.474   1.145   0.359 -0.2298 -0.3761 -0.8510
   90SOL    HW2 1055   2.586   1.205   0.441 -0.4460 -1.8766  0.5788
   91SOL     OW 1056   0.046   2.753   2.061 -0.3399  0.4595  0.3795
   91SOL    HW1 1057   0.089   2.830   2.023 -1.0950  0.4244 -0.5641
   91SOL    HW2 1058  -0.041   2.752   2.023 -0.5354 -0.5572  0.8093
   92SOL     OW 1059   1.383   1.021   0.122  0.1633  0.2979  0.2540
   92SOL    HW1 1060   1.318   0.951   0.113 -0.1041  0.4096  1.1732
   92SOL    HW2 1061   1.395   1.054   0.033 -1.5815  0.7443  0.1340
   93SOL     OW 1062   0.769   3.218   1.283  0.2590 -0.0688 -0.2582
   93SOL    HW1 1063   0.854   3.176   1.289  0.6057  0.5399 -0.7554
   93SOL    HW2 1064   0.762   3.271   1.363 -0.1401 -0.9647  0.3242
   94SOL     OW 1065   2.102   0.332   0.055 -0.1711  0.4066  0.1347
   94SOL    HW1 1066   2.084   0.375   0.139 -1.2858  0.2210  0.0075
   94SOL    HW2 1067   2.157   0.257   0.078 -0.5491  0.3033  0.7201
   95SOL     OW 1068   0.225   2.568   2.438  0.0207  0.1681 -0.1401
   95SOL    HW1 1069   0.147   2.614   2.405 -0.1901  0.3589  0.6208
   95SOL    HW2 1070   0.295   2.596   2.380 -0.2328  0.9680 -0.0657
   96SOL     OW 1071   2.520   2.103   1.479  0.2556  0.1308 -0.2248
   96SOL    HW1 1072   2.475   2.166   1.536  1.1482  0.5222  0.0579
   96SOL    HW2 1073   2.486   2.121   1.392 -0.7603 -0.1437  0.0975
   97SOL     OW 1074   0.533   1.315   0.420  0.1426  0.0464 -0.4406
   97SOL    HW1 1075   0.521   1.302   0.326 -1.2794  0.2672 -0.3174
   97SOL    HW2 1076   0.504   1.404   0.436 -0.6377 -0.3290  0.3441
   98SOL     OW 1077   2.777   0.038   1.031  0.9646  0.1080  0.2018
   98SOL    HW1 1078   2.707   0.038   1.097 -1.2104  2.1306 -1.9407
   98SOL    HW2 1079   2.777  -0.052   0.997 -1.0471  0.1795 -0.1333
   99SOL     OW 1080   2.229   2.007   3.291  0.2195  0.3136  0.2682
   99SOL    HW1 1081   2.181   2.073   3.241  0.2198  0.3789  0.3530
   99SOL    HW2 1082   2.229   2.041   3.380 -1.3962 -0.7180  0.6940
  100SOL     OW 1083   2.448   1.785   2.244  0.7356 -0.2370 -0.6581
  100SOL    HW1 1084   2.499   1.756   2.168  0.4501 -0.5622 -0.7294
  100SOL    HW2 1085   2.464   1.718   2.311  0.6775 -0.1584 -0.5653
  101SOL     OW 1086   0.650   0.247   2.735  0.6504 -0.3218  0.4018
  101SOL    HW1 1087   0.587   0.302   2.689 -0.4337 -0.0920  2.0743
  101SOL    HW2 1088   0.623   0.157   2.715 -0.4823 -0.2295  1.4115
  102SOL     OW 1089   2.431   0.111   0.508  0.1360  0.1498  0.2431
  102SOL    HW1 1090   2.444   0.036   0.566  0.0527 -0.1481 -0.1180
  102SOL    HW2 1091   2.469   0.185   0.555  1.2639 -0.3271  0.1011
  103SOL     OW 1092   3.019   1.140   0.189  0.4756  0.0188  0.1639
  103SOL    HW1 1093   3.043   1.123   0.279 -0.5134 -1.0326  0.2593
  103SOL    HW2 1094   2.949   1.205   0.194 -0.1408 -0.6375  0.2218
  104SOL     OW 1095   1.774   3.004   1.025  0.7900 -0.4361  0.1808
  104SOL    HW1 1096   1.781   3.095   1.055  0.4669 -0.5348  0.5609
  104SOL    HW2 1097   1.853   2.962   1.057  0.4363 -0.5480  0.9331
  105SOL     OW 1098   0.243   2.979   1.498  0.1490 -0.5327 -0.4302
  105SOL    HW1 1099   0.261   2.932   1.417 -0.2326  0.1937 -0.9544
  105SOL    HW2 1100   0.246   3.072   1.473  0.1091 -0.2981  0.4017
  106SOL     OW 1101   2.392   1.361   2.894  0.1947  0.0540  0.3196
  106SOL    HW1 1102   2.465   1.382   2.837  0.1306  0.0526  0.2356
  106SOL    HW2 1103   2.403   1.268   2.914 -0.3317 -0.1980 -0.5009
  107SOL     OW 1104   0.735   0.075   1.721 -0.2661 -0.8611 -0.4370
  107SOL    HW1 1105   0.696   0.133   1.786  0.4257 -0.9856  0.1029
  107SOL    HW2 1106   0.753  -0.006   1.770 -1.1737 -1.5240 -1.1619
  108SOL     OW 1107   0.780   2.063   2.679 -0.0878  0.3722 -0.5582
  108SOL    HW1 1108   0.774   2.139   2.621 -0.4182  0.5600 -0.2782
  108SOL    HW2 1109   0.845   2.006   2.636  1.8192  1.7588  0.3245
  109SOL     OW 1110   2.988   2.063   2.603  0.2339  0.0223  0.1628
  109SOL    HW1 1111   2.983   2.116   2.523 -1.0392  1.0079  0.8478
  109SOL    HW2 1112   2.988   2.128   2.674  0.3709 -0.8658  0.9859
  110SOL     OW 1113   1.113   2.795   1.289 -0.2424  0.4019  0.2615
  110SOL    HW1 1114   1.167   2.755   1.357  0.0146 -0.3717 -0.3794
  110SOL    HW2 1115   1.175   2.841   1.233 -0.2608 -0.2961 -0.3459
  111SOL     OW 1116   1.563   2.805   1.085  0.0503  0.0679 -0.0099
  111SOL    HW1 1117   1.630   2.872   1.072 -1.1521  1.2838 -0.0546
  111SOL    HW2 1118   1.568   2.783   1.178 -0.8872  1.7121  0.4674
  112SOL     OW 1119   1.508   1.817   3.039  0.0998  0.3981 -0.6625
  112SOL    HW1 1120   1.503   1.741   2.981  0.2793  0.4763 -0.7829
  112SOL    HW2 1121   1.444   1.878   3.005  1.7487  1.3787 -2.1675
  113SOL     OW 1122   0.860   1.141   0.700  0.4486 -0.0332 -0.3793
  113SOL    HW1 1123   0.910   1.136   0.618  2.6182  1.2154  0.7691
  113SOL    HW2 1124   0.805   1.218   0.690 -0.0058 -0.4322 -1.0104
  114SOL     OW 1125   1.111   1.286   3.314  0.3161  0.0185 -0.1657
  114SOL    HW1 1126   1.139   1.307   3.403 -0.1663 -2.3209  0.6090
  114SOL    HW2 1127   1.185   1.239   3.276  0.1453  0.1496 -0.6728
  115SOL     OW 1128   1.668   1.667   0.110  0.5496 -0.0816 -0.0246
  115SOL    HW1 1129   1.599   1.701   0.166 -1.0631 -0.8582 -1.4495
  115SOL    HW2 1130   1.749   1.707   0.144 -0.5246  0.5926  1.8908
  116SOL     OW 1131   2.065   3.007   0.150 -0.1966 -0.3871 -0.4559
  116SOL    HW1 1132   2.002   3.075   0.171  1.1918  0.5490  0.9356
  116SOL    HW2 1133   2.020   2.925   0.170 -1.2352  0.2134 -0.2719
  117SOL     OW 1134   2.852   0.610   0.386 -0.1316 -0.6685  0.2965
  117SOL    HW1 1135   2.830   0.699   0.360 -0.3885 -0.8176 -0.0147
  117SOL    HW2 1136   2.947   0.605   0.375  0.0002 -0.1798  1.1434
  118SOL     OW 1137   1.926   2.505   0.578 -0.2728  0.1466 -0.1931
  118SOL    HW1 1138   2.000   2.489   0.519 -0.5625 -0.5047 -0.3773
  118SOL    HW2 1139   1.912   2.600   0.572  0.1136  0.1795 -0.6734
  119SOL     OW 1140   0.832   2.414   2.104  0.4348  0.1908 -0.0870
  119SOL    HW1 1141   0.888   2.465   2.162  1.2364  0.3633 -0.9948
  119SOL    HW2 1142   0.767   2.476   2.072 -0.6678 -0.1278  1.3936
  120SOL     OW 1143   2.669   1.822   0.380 -0.1387  0.0883  0.4207
  120SOL    HW1 1144   2.626   1.885   0.437 -0.2914  2.7272 -2.3735
  120SOL    HW2 1145   2.763   1.843   0.389 -0.1954  0.8334 -0.5630
  121SOL     OW 1146   1.338   0.257   1.190  0.2189  0.3724  0.3223
  121SOL    HW1 1147   1.350   0.253   1.285  0.6326 -0.8610  0.2353
  121SOL    HW2 1148   1.427   0.254   1.155  0.0188 -1.4272 -0.1387
  122SOL     OW 1149   2.872   2.497   2.489 -0.2610 -0.6424  0.2020
  122SOL    HW1 1150   2.856   2.525   2.399  0.3156  0.4218  0.4190
  122SOL    HW2 1151   2.823   2.559   2.543  0.9516 -0.0871  0.6940
  123SOL     OW 1152   1.790   2.928   2.699  0.4303 -0.2372 -0.6970
  123SOL    HW1 1153   1.866   2.875   2.678  0.5151 -1.0612  1.4676
  123SOL    HW2 1154   1.823   2.997   2.756 -0.2805 -0.0540 -0.4874
  124SOL     OW 1155   1.412   2.525   2.231  0.3842  0.4604  0.1889
  124SOL    HW1 1156   1.375   2.461   2.291  0.3362  0.1593 -0.1600
  124SOL    HW2 1157   1.469   2.579   2.286 -0.8135  1.1407  0.8016
  125SOL     OW 1158   0.217   2.299   2.961 -0.1267  0.1930  0.2444
  125SOL    HW1 1159   0.240   2.245   2.886 -1.3245 -0.2129  0.1548
  125SOL    HW2 1160   0.256   2.255   3.036 -1.5448 -1.1389  0.2467
  126SOL     OW 1161   0.884   2.546   1.694 -0.0793  0.0857  0.0419
  126SOL    HW1 1162   0.831   2.611   1.740  0.6366 -0.2695  1.4176
  126SOL    HW2 1163   0.895   2.475   1.756 -0.1343 -0.9999 -1.1416
  127SOL     OW 1164   2.022   0.141   0.512  0.6014  0.4034 -0.3049
  127SOL    HW1 1165   2.039   0.094   0.430  0.0554  1.1470 -0.8602
  127SOL    HW2 1166   1.929   0.126   0.529  0.8525 -0.2471  0.5093
  128SOL     OW 1167   2.951   2.263   2.367  0.1172 -0.0169  0.1086
  128SOL    HW1 1168   2.912   2.335   2.416  0.9947 -0.6817  1.8332
  128SOL    HW2 1169   2.887   2.245   2.298 -0.7605  1.4839  0.4708
  129SOL     OW 1170   2.393   2.288   2.322  0.1691  0.0572  0.0278
  129SOL    HW1 1171   2.427   2.313   2.407  3.4233 -1.2675 -0.7345
  129SOL    HW2 1172   2.415   2.195   2.314 -0.5999  0.0013 -1.9898
  130SOL     OW 1173   1.816   3.102   0.190  0.3404  0.2696 -0.1033
  130SOL    HW1 1174   1.743   3.087   0.129  0.3766  0.2286 -0.1369
  130SOL    HW2 1175   1.783   3.072   0.274  0.2440  0.4472 -0.0761
  131SOL     OW 1176   2.613   2.759   1.202 -0.1051  0.0049  0.0555
  131SOL    HW1 1177   2.639   2.797   1.286 -1.2335  0.4965  0.2019
  131SOL    HW2 1178   2.522   2.785   1.191 -0.0403 -0.2436 -1.2251
  132SOL     OW 1179   1.251   2.911   1.095 -0.1229  0.1846 -0.1564
  132SOL    HW1 1180   1.307   2.988   1.105  1.4115 -0.7698 -0.9934
  132SOL    HW2 1181   1.273   2.877   1.008 -3.0802  0.5546 -1.1682
  133SOL     OW 1182   1.691   2.621   1.607 -0.1964 -0.0728  0.1318
  133SOL    HW1 1183   1.670   2.545   1.660  1.8349 -0.8102 -0.0151
  133SOL    HW2 1184   1.683   2.590   1.516 -0.2005  0.1328  0.0609
  134SOL     OW 1185   2.678   2.171   0.922 -0.6565  0.3781 -0.2452
  134SOL    HW1 1186   2.698   2.263   0.937 -1.8175  0.9342 -1.9334
  134SOL    HW2 1187   2.738   2.144   0.852 -0.3213 -0.1725  0.2375
  135SOL     OW 1188   2.102   3.110   2.154 -0.1995 -0.0300 -0.4082
  135SOL    HW1 1189   2.104   3.050   2.079 -0.2090 -1.0864  0.4161
  135SOL    HW2 1190   2.011   3.107   2.184 -0.4664  1.2509 -1.0062
  136SOL     OW 1191   0.745   0.887   0.711 -0.0264 -0.0114 -0.0126
  136SOL    HW1 1192   0.758   0.981   0.712 -0.1070  0.0071 -0.5274
  136SOL    HW2 1193   0.723   0.866   0.620 -1.6072 -0.3084  0.4041
  137SOL     OW 1194   0.267   0.374   1.371  0.1037  0.6410 -0.1965
  137SOL    HW1 1195   0.202   0.307   1.349  1.0891 -0.2781 -0.4042
  137SOL    HW2 1196   0.341   0.324   1.406  0.7200  1.6651 -0.0013
  138SOL     OW 1197   0.299   2.181   2.725  0.4592  0.5374 -0.2063
  138SOL    HW1 1198   0.245   2.199   2.647 -0.0190  0.1527  0.0259
  138SOL    HW2 1199   0.292   2.086   2.737  0.4903  0.6007  0.3307
  139SOL     OW 1200   0.307   0.527   0.798  0.5231  0.1079  0.1069
  139SOL    HW1 1201   0.253   0.452   0.773  0.1298  1.2888 -3.0352
  139SOL    HW2 1202   0.245   0.596   0.817  0.8038  0.8842 -1.5464
  140SOL     OW 1203   1.899   1.499   2.847 -0.3274  0.1450 -0.8183
  140SOL    HW1 1204   1.990   1.490   2.876  0.2761  2.5171 -1.7319
  140SOL    HW2 1205   1.849   1.441   2.904  1.6642 -0.5872  0.2433
  141SOL     OW 1206   3.155   0.639   0.436 -0.4161  0.4514  0.2688
  141SOL    HW1 1207   3.233   0.585   0.423  0.1589  1.2077  0.4747
  141SOL    HW2 1208   3.189   0.728   0.444 -1.3048  0.7904  0.4007
  142SOL     OW 1209   0.172   2.975   1.981 -0.3388  0.4128 -0.0930
  142SOL    HW1 1210   0.217   3.003   2.061 -0.6440  0.6896 -0.0192
  142SOL    HW2 1211   0.242   2.969   1.915 -0.3480  1.9841 -0.2813
  143SOL     OW 1212   2.327   1.874   1.109  0.2274  0.0351 -0.3545
  143SOL    HW1 1213   2.362   1.787   1.128  0.1300  0.2987  1.1402
  143SOL    HW2 1214   2.387   1.910   1.044  1.2648 -0.5021  0.2819
  144SOL     OW 1215   0.474   2.016   3.298  0.0255 -0.2296 -0.4260
  144SOL    HW1 1216   0.484   1.936   3.246 -3.9146 -1.7823  0.8066
  144SOL    HW2 1217   0.430   2.077   3.239  0.7915  0.1513 -0.6138
  145SOL     OW 1218   0.656   2.061   2.093 -0.6642 -0.3000  0.4396
  145SOL    HW1 1219   0.582   2.118   2.069 -1.2484 -0.3313  2.0850
  145SOL    HW2 1220   0.662   1.999   2.020 -0.9540  0.9391 -0.6862
  146SOL     OW 1221   3.077   3.090   1.027  0.1842  0.2772  0.1207
  146SOL    HW1 1222   3.042   3.147   1.095 -1.3948 -0.5938  0.0823
  146SOL    HW2 1223   3.157   3.053   1.065  0.3449  1.2463  0.7586
  147SOL     OW 1224   0.743   1.121   0.406 -0.1588 -0.0219 -0.1701
  147SOL    HW1 1225   0.741   1.026   0.407 -1.9226 -0.0405  2.3480
  147SOL    HW2 1226   0.658   1.148   0.441  0.6320  2.4702  0.0763
  148SOL     OW 1227   1.708   3.016   3.228 -0.2960 -0.8102 -0.0404
  148SOL    HW1 1228   1.663   3.101   3.229 -0.2933 -0.7698  2.2349
  148SOL    HW2 1229   1.649   2.959   3.179 -1.3503  0.0001  0.2324
  149SOL     OW 1230   3.111   1.721   1.449 -0.2620  0.5851 -0.0086
  149SOL    HW1 1231   3.153   1.799   1.486  0.1418  0.3365  0.0651
  149SOL    HW2 1232   3.018   1.734   1.466 -0.1627  0.8830  0.3287
  150SOL     OW 1233   0.420   0.895   0.371 -0.4278  0.4929 -0.1288
  150SOL    HW1 1234   0.377   0.978   0.353 -0.4594  0.3830 -0.5758
  150SOL    HW2 1235   0.509   0.906   0.336 -1.0123 -0.3292 -1.9667
  151SOL     OW 1236   1.897   2.511   2.964 -0.0434 -0.4056 -0.3838
  151SOL    HW1 1237   1.856   2.513   2.877 -0.1022  0.7544 -0.3443
  151SOL    HW2 1238   1.984   2.548   2.950 -0.5508  1.1135  0.2817
  152SOL     OW 1239   2.452   2.434   1.030 -0.1484  0.0894 -0.2153
  152SOL    HW1 1240   2.443   2.419   1.124  0.6706 -0.1729 -0.1749
  152SOL    HW2 1241   2.362   2.436   0.998 -0.3986 -1.5879  0.2980
  153SOL     OW 1242   3.287   0.333   2.166 -0.4001 -0.1436 -0.2796
  153SOL    HW1 1243   3.283   0.381   2.083  0.7854  1.7133  0.6774
  153SOL    HW2 1244   3.242   0.389   2.229 -1.2984 -1.5308  0.3795
  154SOL     OW 1245   0.713   2.875   2.666 -0.4801  0.2407  0.3691
  154SOL    HW1 1246   0.671   2.958   2.642 -0.6718  0.8282  2.5112
  154SOL    HW2 1247   0.640   2.818   2.690 -0.4030 -0.8495 -1.7527
  155SOL     OW 1248   2.014   1.312   3.167  0.8575 -0.2374  0.0756
  155SOL    HW1 1249   1.925   1.334   3.139  0.5804 -0.7438  0.5282
  155SOL    HW2 1250   2.005   1.225   3.206  1.6918 -0.6096 -0.5513
  156SOL     OW 1251   1.327   2.055   2.364  0.8129  0.4964 -0.2506
  156SOL    HW1 1252   1.290   2.035   2.450 -0.1059  2.1120 -0.2291
  156SOL    HW2 1253   1.412   2.011   2.364 -0.0207 -1.2119  0.6733
  157SOL     OW 1254   1.177   2.538   1.861  0.4244  0.1453  0.3694
  157SOL    HW1 1255   1.152   2.446   1.871 -1.1300  0.6772  1.9292
  157SOL    HW2 1256   1.114   2.573   1.798 -0.4894  0.6313  1.5102
  158SOL     OW 1257   2.091   1.780   1.306  0.0164  0.1721 -0.0111
  158SOL    HW1 1258   2.028   1.852   1.300 -0.1048  0.0363 -0.3796
  158SOL    HW2 1259   2.167   1.818   1.349 -0.7648  0.0461  1.5577
  159SOL     OW 1260   2.399   2.929   3.140  0.1446  0.4069  0.0110
  159SOL    HW1 1261   2.354   2.996   3.191  1.0955  0.4756  0.8091
  159SOL    HW2 1262   2.437   2.870   3.206  0.8255  0.1076 -0.6317
  160SOL     OW 1263   1.616   1.994   2.358  0.3768 -0.1050  0.3679
  160SOL    HW1 1264   1.681   1.924   2.355  0.4957 -0.0185  0.8776
  160SOL    HW2 1265   1.624   2.031   2.446  0.2758  0.5104  0.1270
  161SOL     OW 1266   1.618   2.756   1.360 -0.2349 -0.5169  0.0496
  161SOL    HW1 1267   1.616   2.841   1.404 -0.1781 -0.9501  0.9221
  161SOL    HW2 1268   1.541   2.710   1.393 -0.2613 -0.8061 -0.4057
  162SOL     OW 1269   2.150   2.889   2.423 -0.4391  0.0248  0.0342
  162SOL    HW1 1270   2.199   2.899   2.504  0.2743  0.3997 -0.4274
  162SOL    HW2 1271   2.212   2.916   2.354 -1.4307  0.9255 -0.5308
  163SOL     OW 1272   2.172   1.380   0.182 -0.2301  0.1616 -0.3199
  163SOL    HW1 1273   2.264   1.364   0.161 -0.2070  0.1003 -0.1726
  163SOL    HW2 1274   2.148   1.455   0.128  0.2712  1.0135  0.5945
  164SOL     OW 1275   0.845   3.045   2.408 -0.2851  0.4117  0.0610
  164SOL    HW1 1276   0.856   3.095   2.328 -0.2782 -0.0102 -0.2020
  164SOL    HW2 1277   0.780   3.094   2.458  0.6444  1.3617  0.3628
  165SOL     OW 1278   2.758   2.999   0.147 -0.3082 -0.3045 -0.2600
  165SOL    HW1 1279   2.782   2.968   0.235  0.1251  0.7601  0.0076
  165SOL    HW2 1280   2.741   3.092   0.158  1.8107  0.3266 -1.6585
  166SOL     OW 1281   1.583   2.842   1.713  0.6346  0.5749  0.1102
  166SOL    HW1 1282   1.596   2.911   1.649  0.3378  0.2551 -0.3003
  166SOL    HW2 1283   1.612   2.762   1.669 -0.8748  0.1339 -0.1484
  167SOL     OW 1284   2.141   1.843   2.730  0.0582 -0.4658  0.2243
  167SOL    HW1 1285   2.121   1.881   2.816 -1.3980  0.3752 -0.4461
  167SOL    HW2 1286   2.191   1.912   2.685  2.0526 -1.4378  0.8475
  168SOL     OW 1287   1.795   1.748   1.106  0.2044 -0.1827  0.3822
  168SOL    HW1 1288   1.871   1.773   1.054  0.4911 -0.5522  0.6149
  168SOL    HW2 1289   1.813   1.784   1.193  0.7350 -1.3576  0.7847
  169SOL     OW 1290   0.205   0.242   1.035 -0.3123 -0.5359 -0.0735
  169SOL    HW1 1291   0.165   0.218   1.118 -1.2065  0.3399 -0.2350
  169SOL    HW2 1292   0.207   0.338   1.036  1.2637 -0.5309 -0.3240
  170SOL     OW 1293   0.712   1.182   3.088 -0.0944  0.5992 -0.0585
  170SOL    HW1 1294   0.807   1.195   3.080 -0.0332  1.7626  1.8634
  170SOL    HW2 1295   0.704   1.099   3.136 -0.0866  0.2218 -0.6954
  171SOL     OW 1296   3.311   2.873   3.129  0.1740 -0.3711  0.1557
  171SOL    HW1 1297   3.264   2.792   3.107 -0.3374  0.0807 -0.4665
  171SOL    HW2 1298   3.311   2.924   3.047  1.7151 -0.3286  0.1554
  172SOL     OW 1299   3.224   0.384   2.610  0.2042 -0.6665 -0.5109
  172SOL    HW1 1300   3.293   0.329   2.575  3.1279  2.4154 -0.0915
  172SOL    HW2 1301   3.234   0.378   2.705 -0.3173 -0.4373 -0.4363
  173SOL     OW 1302   1.507   0.677   1.005  0.1991 -0.1295  0.1074
  173SOL    HW1 1303   1.521   0.605   1.066  1.5263 -1.5269 -1.7114
  173SOL    HW2 1304   1.432   0.725   1.040  1.3205 -0.4205  3.1444
  174SOL     OW 1305   2.185   3.208   0.502 -0.6272 -0.5342  0.0180
  174SOL    HW1 1306   2.234   3.284   0.535 -1.7770 -0.6531  2.1923
  174SOL    HW2 1307   2.144   3.239   0.422  0.7228  0.4265 -0.3390
  175SOL     OW 1308   3.101   1.822   0.534 -0.0153 -0.0192  0.2186
  175SOL    HW1 1309   3.146   1.738   0.524 -1.4332 -0.5712 -2.6698
  175SOL    HW2 1310   3.169   1.883   0.559  1.4993 -1.6013  0.1295
  176SOL     OW 1311   1.622   2.634   2.348 -0.4382 -0.3919 -0.0962
  176SOL    HW1 1312   1.717   2.620   2.352 -0.5944 -1.6838 -0.3939
  176SOL    HW2 1313   1.602   2.686   2.425  0.6499  0.7943 -0.5717
  177SOL     OW 1314   1.614   1.698   2.653 -0.0490 -0.1456 -0.5368
  177SOL    HW1 1315   1.709   1.693   2.642 -0.0265 -1.2691  0.0102
  177SOL    HW2 1316   1.595   1.792   2.655  1.0021  0.0876 -1.0240
  178SOL     OW 1317   1.533   2.169   0.944  0.3092  0.2784  0.1067
  178SOL    HW1 1318   1.566   2.210   1.024  0.4152 -1.4480  0.9893
  178SOL    HW2 1319   1.591   2.094   0.929  1.6639  1.7566 -2.8598
  179SOL     OW 1320   3.273   0.030   1.112 -0.1035  0.3742  0.2651
  179SOL    HW1 1321   3.288   0.005   1.020 -0.1704 -0.4566  0.4774
  179SOL    HW2 1322   3.188   0.074   1.111  0.1396  0.8587 -0.1524
  180SOL     OW 1323   2.206   2.708   2.000 -0.4731 -0.3796  0.0666
  180SOL    HW1 1324   2.128   2.655   1.987  0.3061 -1.2653 -1.2010
  180SOL    HW2 1325   2.176   2.798   1.989 -1.4392 -0.6613  0.3067
  181SOL     OW 1326   2.725   3.165   0.714  0.0902  0.2715 -0.4857
  181SOL    HW1 1327   2.739   3.260   0.710  0.0420  0.2775 -0.5056
  181SOL    HW2 1328   2.744   3.142   0.805  1.0149  0.1588 -0.6941
  182SOL     OW 1329   1.381   0.431   0.494 -0.4466 -0.0708 -0.1065
  182SOL    HW1 1330   1.433   0.427   0.574  1.5970 -0.0993 -1.3848
  182SOL    HW2 1331   1.357   0.524   0.485 -0.0359  0.0570  0.1250
  183SOL     OW 1332   0.491   0.052   2.623 -0.6026  0.1566 -0.1343
  183SOL    HW1 1333   0.440   0.090   2.552 -1.7882 -0.6179  0.2587
  183SOL    HW2 1334   0.426   0.006   2.677  0.4886 -0.6848  0.5169
  184SOL     OW 1335   2.294   1.651   3.251 -0.3965  0.1133 -0.0431
  184SOL    HW1 1336   2.204   1.626   3.230 -0.3388 -0.4028  0.3010
  184SOL    HW2 1337   2.285   1.709   3.327 -0.4111 -0.3517  0.3176
  185SOL     OW 1338   1.288   0.847   1.054  0.1375 -0.0793 -0.3043
  185SOL    HW1 1339   1.221   0.843   0.986 -0.2279  1.5027 -0.0781
  185SOL    HW2 1340   1.242   0.825   1.135  0.2875 -0.6827 -0.3768
  186SOL     OW 1341   1.483   3.186   1.638  0.4142 -0.1117  0.0599
  186SOL    HW1 1342   1.533   3.264   1.664  0.6564  0.7225 -2.6206
  186SOL    HW2 1343   1.432   3.164   1.716  3.8636 -0.2090  2.5433
  187SOL     OW 1344   1.297   1.975   2.964 -0.5255 -0.0988 -0.1814
  187SOL    HW1 1345   1.282   1.991   3.057  0.4683 -1.4667  0.2516
  187SOL    HW2 1346   1.296   2.062   2.924  0.5430  0.6614  1.3395
  188SOL     OW 1347   2.010   0.389   1.294  0.3331  0.0765 -0.1135
  188SOL    HW1 1348   2.001   0.458   1.229 -0.5430  1.0997  1.0367
  188SOL    HW2 1349   2.091   0.343   1.270  1.4178  2.0537 -0.4268
  189SOL     OW 1350   0.866   3.043   1.513  0.8056  0.2600  0.2531
  189SOL    HW1 1351   0.772   3.028   1.523  1.1822 -2.1560  0.5993
  189SOL    HW2 1352   0.888   3.008   1.427  1.1683  2.3073 -0.5583
  190SOL     OW 1353   1.451   1.555   0.917  0.6009  0.0291 -0.3092
  190SOL    HW1 1354   1.545   1.552   0.899  0.5802 -0.4571 -0.3385
  190SOL    HW2 1355   1.445   1.558   1.012  0.6142 -1.6542 -0.2309
  191SOL     OW 1356   1.017   1.086   0.921 -0.6914 -0.0115 -0.0777
  191SOL    HW1 1357   0.968   1.108   0.842  0.1189  0.2055 -0.5335
  191SOL    HW2 1358   1.039   0.993   0.910 -1.8727 -0.4025  0.6220
  192SOL     OW 1359   2.325   2.147   0.224 -0.0541 -0.3674 -0.3437
  192SOL    HW1 1360   2.284   2.096   0.294 -0.4038 -1.5679 -1.3885
  192SOL    HW2 1361   2.276   2.229   0.222 -0.8653 -0.8334 -0.0064
  193SOL     OW 1362   2.115   3.235   3.011  0.5174  0.4641  0.3925
  193SOL    HW1 1363   2.118   3.325   2.978  0.9455  0.2522 -0.1654
  193SOL    HW2 1364   2.207   3.208   3.016  0.3753 -0.0954  0.1129
  194SOL     OW 1365   2.616   1.285   0.603 -0.4993  0.3961  0.4438
  194SOL    HW1 1366   2.543   1.321   0.653  0.6458  2.7538  0.5439
  194SOL    HW2 1367   2.672   1.360   0.585  0.8107 -0.9570 -1.5318
  195SOL     OW 1368   2.503   1.926   0.039  0.4533 -0.5116 -0.6239
  195SOL    HW1 1369   2.496   1.984   0.114 -1.4477 -2.8199  1.1333
  195SOL    HW2 1370   2.424   1.944  -0.013 -1.6588 -3.1743  1.3619
  196SOL     OW 1371   2.795   1.990   1.775  0.2970 -0.1436  0.1650
  196SOL    HW1 1372   2.714   1.942   1.759 -0.4886  0.9407  0.7696
  196SOL    HW2 1373   2.863   1.923   1.772 -0.8613 -1.5235  2.1363
  197SOL     OW 1374   1.535   3.269   2.371 -0.1878  0.3103 -0.2485
  197SOL    HW1 1375   1.613   3.287   2.424  0.2555  0.2571 -0.8666
  197SOL    HW2 1376   1.462   3.272   2.433  0.3968 -0.4965  0.4930
  198SOL     OW 1377   0.759   3.273   0.795 -0.4775 -0.1058 -0.0528
  198SOL    HW1 1378   0.772   3.341   0.862 -1.5964  0.1975 -0.1248
  198SOL    HW2 1379   0.828   3.208   0.813  1.3864  1.5775 -0.7018
  199SOL     OW 1380   1.967   2.960   1.548 -0.2471 -0.3339 -0.3550
  199SOL    HW1 1381   1.959   2.880   1.599 -0.5235  0.3502  0.7017
  199SOL    HW2 1382   1.968   3.030   1.613 -0.0039  0.5232 -1.2600
  200SOL     OW 1383   1.219   2.781   2.564 -0.1177 -0.1874  0.1445
  200SOL    HW1 1384   1.265   2.755   2.644 -0.4093 -0.9999  0.0608
  200SOL    HW2 1385   1.212   2.876   2.570  1.1281 -0.0936  0.3878
  201SOL     OW 1386   3.143   0.454   2.370 -0.0695 -0.0605 -0.0796
  201SOL    HW1 1387   3.174   0.436   2.459  0.2696  1.5144  0.1601
  201SOL    HW2 1388   3.055   0.491   2.383  0.0631  0.3701 -0.3679
  202SOL     OW 1389   0.565   3.112   2.304 -0.1141  0.1266  0.2081
  202SOL    HW1 1390   0.608   3.029   2.284  1.6430  0.7180  1.3059
  202SOL    HW2 1391   0.573   3.120   2.399 -0.9547  1.2022  0.2037
  203SOL     OW 1392   2.752   2.149   2.205  0.1197  0.5082 -0.3644
  203SOL    HW1 1393   2.673   2.113   2.246  0.2157 -1.1396 -1.5481
  203SOL    HW2 1394   2.720   2.189   2.124  0.4887 -0.1183 -0.8225
  204SOL     OW 1395   0.977   2.779   2.727 -0.4033  0.0481 -0.0026
  204SOL    HW1 1396   1.049   2.807   2.670 -0.7582  1.4785  0.2028
  204SOL    HW2 1397   0.902   2.768   2.669 -0.5297  0.5919  0.0519
  205SOL     OW 1398   0.989   1.933   1.820  0.1842  0.1080 -0.5025
  205SOL    HW1 1399   1.033   1.897   1.897 -0.1676  1.7284  0.5136
  205SOL    HW2 1400   0.898   1.904   1.828  0.1753  0.1731 -0.3503
  206SOL     OW 1401   2.196   0.366   0.350  0.1752 -0.2268 -0.1577
  206SOL    HW1 1402   2.137   0.296   0.379 -0.2195 -0.0432 -0.5067
  206SOL    HW2 1403   2.240   0.395   0.430 -1.0944  0.4584  0.3240
  207SOL     OW 1404   2.938   2.791   3.088 -0.6415  0.0192  0.1481
  207SOL    HW1 1405   2.853   2.792   3.131 -0.0153  0.0494  1.4271
  207SOL    HW2 1406   3.000   2.813   3.157  0.3845  0.2540 -0.8242
  208SOL     OW 1407   2.288   1.210   0.468  0.0473 -0.1218  0.8512
  208SOL    HW1 1408   2.194   1.222   0.462  0.1477 -0.1733 -1.9231
  208SOL    HW2 1409   2.325   1.295   0.442  0.7257 -0.6848 -0.0898
  209SOL     OW 1410   3.304   0.996   3.152  0.1249  0.1549  0.1432
  209SOL    HW1 1411   3.219   0.968   3.185  0.0161 -0.1849 -0.4114
  209SOL    HW2 1412   3.365   0.926   3.176 -0.0872 -0.4315 -0.9659
  210SOL     OW 1413   2.594   2.773   0.930  0.4188  0.5256 -0.0996
  210SOL    HW1 1414   2.635   2.856   0.906 -0.0116  0.8277  0.1746
  210SOL    HW2 1415   2.615   2.762   1.023  0.7314  0.1731 -0.2115
  211SOL     OW 1416   1.869   1.853   2.090  0.2283 -0.2232  0.4980
  211SOL    HW1 1417   1.865   1.758   2.084  1.5886 -0.2563 -0.2547
  211SOL    HW2 1418   1.878   1.871   2.184 -1.3709 -0.7351  0.7841
  212SOL     OW 1419   3.053   1.364   2.708 -0.0494  0.4790  0.1354
  212SOL    HW1 1420   3.035   1.351   2.801 -0.0542  1.5457  0.2892
  212SOL    HW2 1421   3.124   1.302   2.689 -0.7375 -0.4759  0.5921
  213SOL     OW 1422   1.563   3.228   3.185 -0.1073 -0.4560  0.1776
  213SOL    HW1 1423   1.616   3.222   3.105 -0.0424 -1.5650  0.2797
  213SOL    HW2 1424   1.589   3.311   3.225  0.1853 -0.1005 -0.7226
  214SOL     OW 1425   0.885   0.499   1.503 -0.4730  0.3381  0.0321
  214SOL    HW1 1426   0.827   0.532   1.434 -0.4386 -1.0621 -0.7104
  214SOL    HW2 1427   0.963   0.554   1.498 -1.1447  1.3159  0.0739
  215SOL     OW 1428   1.088   2.475   1.524  0.2782  0.3985  0.4206
  215SOL    HW1 1429   1.171   2.482   1.571 -0.0713  0.3353  1.0600
  215SOL    HW2 1430   1.024   2.516   1.583 -0.1493  0.4174 -0.0526
  216SOL     OW 1431   2.996   0.410   1.178  0.0887 -0.1255  0.3984
  216SOL    HW1 1432   3.070   0.457   1.140 -0.3854 -0.2285 -0.6765
  216SOL    HW2 1433   2.919   0.450   1.137 -0.3726 -1.0314  0.3701
  217SOL     OW 1434   2.532   0.018   1.191 -0.0695  0.2951  0.6683
  217SOL    HW1 1435   2.497   0.003   1.103  0.5909 -0.3877  0.5144
  217SOL    HW2 1436   2.460  -0.008   1.250 -0.1444 -0.2466  0.3426
  218SOL     OW 1437   1.616   0.464   0.120  0.0341  0.1682 -0.0679
  218SOL    HW1 1438   1.691   0.440   0.173  0.5816  1.2527 -0.3074
  218SOL    HW2 1439   1.541   0.421   0.161  1.0694 -2.9727 -1.2379
  219SOL     OW 1440   2.593   0.549   0.266  0.5140 -0.4469  0.1739
  219SOL    HW1 1441   2.680   0.540   0.305  0.2252  2.4623  1.7539
  219SOL    HW2 1442   2.533   0.521   0.334  0.1113  2.4302  1.1629
  220SOL     OW 1443   1.734   1.972   0.756 -0.2770  0.4642 -0.3433
  220SOL    HW1 1444   1.685   1.945   0.833 -0.9004 -0.8684 -1.1637
  220SOL    HW2 1445   1.673   2.027   0.707 -0.2440  0.4563 -0.3933
  221SOL     OW 1446   2.712   0.229   1.253  0.4270  0.3159 -0.7373
  221SOL    HW1 1447   2.644   0.163   1.248  0.9084 -0.1414 -1.2926
  221SOL    HW2 1448   2.784   0.186   1.299  1.5409 -0.2606 -2.9224
  222SOL     OW 1449   1.378   1.905   1.387 -0.6084 -0.1859 -0.4374
  222SOL    HW1 1450   1.290   1.911   1.425 -0.1662  0.9444  0.4696
  222SOL    HW2 1451   1.406   1.996   1.378  0.9581 -0.5453  0.4711
  223SOL     OW 1452   1.116   2.213   2.674 -0.1426  0.4534  0.2381
  223SOL    HW1 1453   1.074   2.271   2.738 -0.9567  0.8360 -0.6178
  223SOL    HW2 1454   1.084   2.244   2.589  1.4311  0.3779 -0.4134
  224SOL     OW 1455   1.047   2.308   1.210  0.1711  0.1265  0.0376
  224SOL    HW1 1456   1.010   2.276   1.292  0.4321  0.0156  0.1163
  224SOL    HW2 1457   1.010   2.395   1.198 -0.0587  0.0440  0.1470
  225SOL     OW 1458   2.287   2.623   0.657 -0.2856 -0.1215 -0.4588
  225SOL    HW1 1459   2.249   2.551   0.708 -0.6662  0.4612  0.1056
  225SOL    HW2 1460   2.234   2.625   0.577 -1.6109  0.7994  0.4015
  226SOL     OW 1461   0.551   0.593   1.097 -0.0143  0.3332 -0.4478
  226SOL    HW1 1462   0.576   0.503   1.078  1.1460  0.7519 -0.9691
  226SOL    HW2 1463   0.557   0.639   1.013 -0.6352  0.9021 -0.2018
  227SOL     OW 1464   2.429   3.291   0.954 -0.1288  0.5237  0.5730
  227SOL    HW1 1465   2.395   3.202   0.945  1.8634 -0.3895  1.3670
  227SOL    HW2 1466   2.407   3.333   0.871 -0.9403 -0.7691  0.0910
  228SOL     OW 1467   2.450   0.035   0.252 -0.0202  0.3287  0.3423
  228SOL    HW1 1468   2.413  -0.053   0.246 -0.5870  0.5992 -0.2869
  228SOL    HW2 1469   2.467   0.048   0.346  2.6175 -1.4636  0.1991
  229SOL     OW 1470   2.512   1.761   2.819 -0.1809  0.2642 -0.2266
  229SOL    HW1 1471   2.441   1.795   2.873  0.3682  1.4974 -0.2673
  229SOL    HW2 1472   2.565   1.708   2.879 -0.7556 -0.1247 -0.0534
  230SOL     OW 1473   1.041   0.485   3.037 -0.0240 -0.0763 -0.1024
  230SOL    HW1 1474   0.984   0.441   2.974 -0.1664 -1.3625  0.8696
  230SOL    HW2 1475   1.125   0.493   2.991 -0.6963  0.9380 -1.1862
  231SOL     OW 1476   1.946   3.122   1.764  0.1809  0.4619  0.2048
  231SOL    HW1 1477   1.885   3.103   1.836 -2.3072  0.8153 -1.6786
  231SOL    HW2 1478   1.918   3.207   1.731  0.3468 -0.2702 -2.0071
  232SOL     OW 1479   2.298   2.604   2.248  0.3739 -0.0059 -0.0497
  232SOL    HW1 1480   2.249   2.525   2.270  0.5011  0.3098  1.4570
  232SOL    HW2 1481   2.262   2.632   2.164 -0.3825 -1.0794 -0.1046
  233SOL     OW 1482   1.257   0.047   0.366 -0.1492  0.1247 -0.1044
  233SOL    HW1 1483   1.232  -0.042   0.391 -1.5196  0.4113 -0.4141
  233SOL    HW2 1484   1.224   0.102   0.437  0.4525  0.4221 -0.0500
  234SOL     OW 1485   0.357   3.168   2.798 -0.5052  0.3906 -0.1716
  234SOL    HW1 1486   0.323   3.125   2.877 -0.5221 -0.7439 -0.7825
  234SOL    HW2 1487   0.391   3.097   2.745  1.5787  1.3603 -0.2203
  235SOL     OW 1488   0.115   0.704   0.659  0.9056  0.3727 -0.5249
  235SOL    HW1 1489   0.150   0.788   0.690  0.7026  0.3010 -0.0979
  235SOL    HW2 1490   0.169   0.683   0.583  1.7416  0.3085  0.0700
  236SOL     OW 1491   1.154   1.714   3.143  0.0693  0.2527 -0.0702
  236SOL    HW1 1492   1.098   1.646   3.105 -1.3069  1.3355 -0.0221
  236SOL    HW2 1493   1.216   1.665   3.198 -1.0357 -0.9483  0.1514
  237SOL     OW 1494   1.850   1.834   0.224  0.2512 -0.0663 -0.4626
  237SOL    HW1 1495   1.887   1.822   0.312 -1.0209  0.9866  0.2630
  237SOL    HW2 1496   1.924   1.859   0.170  0.7780  1.1439  0.7565
  238SOL     OW 1497   0.544   0.393   2.465  0.0966 -0.1686  0.5974
  238SOL    HW1 1498   0.526   0.427   2.553 -0.5189 -0.7943  0.7307
  238SOL    HW2 1499   0.460   0.358   2.436 -0.0712  1.3196 -0.8500
  239SOL     OW 1500   2.130   2.323   0.183 -0.6014 -0.6683  0.0652
  239SOL    HW1 1501   2.115   2.404   0.134 -0.3135 -1.1885 -0.8878
  239SOL    HW2 1502   2.045   2.278   0.182 -1.1162  0.1837  1.6835
  240SOL     OW 1503   2.662   2.316   2.582  0.1930  0.1074  0.4158
  240SOL    HW1 1504   2.679   2.235   2.630 -0.3674  0.2742  0.9087
  240SOL    HW2 1505   2.741   2.368   2.595  1.4303 -1.1208 -1.5790
  241SOL     OW 1506   3.005   1.381   3.008 -0.1014  0.0006 -0.1017
  241SOL    HW1 1507   2.923   1.334   3.022 -0.2824  0.6787  1.2626
  241SOL    HW2 1508   2.997   1.461   3.061  0.8848  0.7463 -1.0193
  242SOL     OW 1509   3.061   0.201   0.728  0.2374 -0.6065  0.2198
  242SOL    HW1 1510   2.971   0.176   0.752  0.0261  0.7528  0.9127
  242SOL    HW2 1511   3.054   0.294   0.705  1.2037 -0.8604 -1.1824
  243SOL     OW 1512   1.197   0.369   0.944  0.2278  0.2726  0.2439
  243SOL    HW1 1513   1.109   0.401   0.965  0.3013  0.8249 -0.2639
  243SOL    HW2 1514   1.220   0.311   1.017 -0.1513  0.9297  0.9006
  244SOL     OW 1515   3.116   3.196   1.886 -0.8796  0.0624 -0.2912
  244SOL    HW1 1516   3.202   3.180   1.847 -0.1771  0.2009  1.1604
  244SOL    HW2 1517   3.085   3.274   1.840 -0.1194  0.1712 -0.6509
  245SOL     OW 1518   0.929   2.354   1.861 -0.0112 -0.0519  0.0923
  245SOL    HW1 1519   0.892   2.386   1.944 -0.3693 -0.0894 -0.0523
  245SOL    HW2 1520   1.007   2.305   1.887 -0.3486 -0.4085  0.4385
  246SOL     OW 1521   2.162   1.457   2.995  0.1371 -0.1646  0.2954
  246SOL    HW1 1522   2.253   1.453   2.965  0.1730  1.9063 -0.0029
  246SOL    HW2 1523   2.147   1.372   3.036  1.9900 -0.8055 -0.2418
  247SOL     OW 1524   1.757   1.378   3.080 -0.1307 -0.1037 -0.1958
  247SOL    HW1 1525   1.692   1.329   3.131  2.1204 -3.1670  0.0143
  247SOL    HW2 1526   1.736   1.470   3.097 -2.9337 -0.9469  1.6838
  248SOL     OW 1527   2.949   1.916   0.937 -0.1361  0.1150 -0.0990
  248SOL    HW1 1528   2.982   1.852   1.001  0.0004 -0.6479 -0.9152
  248SOL    HW2 1529   2.989   1.999   0.964 -0.4609 -0.0900  1.0904
  249SOL     OW 1530   0.901   1.677   1.176  0.1176 -0.1533  0.5043
  249SOL    HW1 1531   0.965   1.741   1.143  1.5072 -1.1799  1.1616
  249SOL    HW2 1532   0.872   1.714   1.259 -0.6333  0.6090 -0.0691
  250SOL     OW 1533   1.960   2.785   0.553  0.0366 -0.4006 -0.4265
  250SOL    HW1 1534   2.035   2.842   0.569  0.5888 -1.4734  1.1133
  250SOL    HW2 1535   1.885   2.844   0.547  0.7808  0.5740 -0.2977
  251SOL     OW 1536   3.161   1.755   0.022  0.0623  0.1835 -0.7483
  251SOL    HW1 1537   3.213   1.753   0.102  0.8410 -1.5455 -1.2574
  251SOL    HW2 1538   3.224   1.778  -0.047  0.1376 -1.6686 -1.3319
  252SOL     OW 1539   1.758   0.370   0.488  0.0061 -0.4637 -0.1595
  252SOL    HW1 1540   1.743   0.281   0.520 -0.3814 -0.3330  0.0313
  252SOL    HW2 1541   1.720   0.426   0.556  0.7650 -0.1398 -0.0035
  253SOL     OW 1542   1.173   0.245   0.504  0.2840  0.0823  0.2275
  253SOL    HW1 1543   1.103   0.276   0.447  1.3111 -1.2499 -1.8981
  253SOL    HW2 1544   1.235   0.317   0.509  0.3274  0.1075 -0.6197
  254SOL     OW 1545   0.430   0.451   2.713  0.0509  0.0227  0.7628
  254SOL    HW1 1546   0.341   0.426   2.737 -1.2207  2.9514 -0.5241
  254SOL    HW2 1547   0.471   0.474   2.796 -0.1323 -1.8546  1.4334
  255SOL     OW 1548   1.919   2.769   1.128 -0.1996  0.4510  0.3439
  255SOL    HW1 1549   1.970   2.839   1.169 -0.8976  1.2759 -0.1581
  255SOL    HW2 1550   1.887   2.716   1.200 -0.7478  1.4137  0.8192
  256SOL     OW 1551   1.874   1.821   2.368 -0.5525 -0.1471 -0.0285
  256SOL    HW1 1552   1.968   1.840   2.374 -0.7354  1.1751 -1.0749
  256SOL    HW2 1553   1.860   1.751   2.433  1.1825 -0.5246 -0.0095
  257SOL     OW 1554   0.385   2.424   1.246 -0.5481 -0.0312 -0.2575
  257SOL    HW1 1555   0.392   2.462   1.158  0.1450 -0.1182 -0.2419
  257SOL    HW2 1556   0.325   2.351   1.235  0.8674 -1.1180 -1.0358
  258SOL     OW 1557   0.948   0.221   1.612  0.0646 -0.0849 -0.7076
  258SOL    HW1 1558   0.885   0.180   1.671  1.2786  0.7063  1.2271
  258SOL    HW2 1559   0.935   0.315   1.625  1.4811  0.0914 -0.4289
  259SOL     OW 1560   1.129   0.596   0.283  0.4406  0.1395 -0.3393
  259SOL    HW1 1561   1.157   0.601   0.375  1.8053 -0.7048 -0.6824
  259SOL    HW2 1562   1.034   0.587   0.288  0.5150 -0.1712  1.0189
  260SOL     OW 1563   1.526   2.993   2.840 -0.0036 -0.1848 -0.5958
  260SOL    HW1 1564   1.448   2.949   2.873 -0.4477  1.1956  0.2837
  260SOL    HW2 1565   1.517   2.988   2.744 -0.8590 -0.5687 -0.5068
  261SOL     OW 1566   0.099   3.160   1.236  0.0121 -0.3775  0.2083
  261SOL    HW1 1567   0.050   3.238   1.210 -1.6106 -0.9779  1.2914
  261SOL    HW2 1568   0.156   3.190   1.306 -0.7478 -0.1819  0.7541
  262SOL     OW 1569   0.408   1.139   0.638  0.3318  0.2638  0.0388
  262SOL    HW1 1570   0.322   1.174   0.657 -0.2808 -0.7555 -0.7594
  262SOL    HW2 1571   0.442   1.195   0.568 -0.9331 -1.0808 -1.7296
  263SOL     OW 1572   2.293   2.892   2.652 -0.3126  0.1219  0.0502
  263SOL    HW1 1573   2.349   2.940   2.713  0.2287 -0.3376 -0.0837
  263SOL    HW2 1574   2.296   2.802   2.682  0.4193 -0.2171 -0.9855
  264SOL     OW 1575   1.588   2.514   1.168  0.2189  0.1776 -0.7356
  264SOL    HW1 1576   1.582   2.497   1.262 -1.9933 -0.1475 -0.8906
  264SOL    HW2 1577   1.643   2.443   1.135  1.8261  0.8298  0.4034
  265SOL     OW 1578   0.400   0.121   1.317  0.3987 -0.4293  0.4417
  265SOL    HW1 1579   0.414   0.076   1.234  0.7942 -0.0489  0.2999
  265SOL    HW2 1580   0.486   0.126   1.357  0.4951  0.8501  0.1154
  266SOL     OW 1581   1.671   3.194   2.935 -0.4632  0.5012 -0.3016
  266SOL    HW1 1582   1.629   3.115   2.901  0.1479 -0.0269  0.1387
  266SOL    HW2 1583   1.753   3.201   2.885 -0.0193  0.2559  0.3730
  267SOL     OW 1584   1.628   2.709   2.632 -0.0744  0.6869  0.1986
  267SOL    HW1 1585   1.683   2.784   2.654  1.3154 -0.1898 -0.1829
  267SOL    HW2 1586   1.539   2.740   2.647  0.5372  1.9105  1.5557
  268SOL     OW 1587   1.285   1.357   0.790  0.1225 -0.1346  0.0386
  268SOL    HW1 1588   1.311   1.269   0.816 -0.4734  0.2446  2.1056
  268SOL    HW2 1589   1.341   1.415   0.842  0.1815  0.7341 -0.9422
  269SOL     OW 1590   0.781   1.178   1.091  0.3045 -0.5095  0.0852
  269SOL    HW1 1591   0.870   1.194   1.060 -0.1429  1.8146 -0.1758
  269SOL    HW2 1592   0.753   1.100   1.042  1.3072  0.2356 -1.8086
  270SOL     OW 1593   0.031   0.240   1.286  0.3266 -0.4614 -0.1857
  270SOL    HW1 1594  -0.014   0.175   1.232 -0.8225 -0.3477  0.6076
  270SOL    HW2 1595  -0.010   0.323   1.263  2.0079  0.0801 -1.4289
  271SOL     OW 1596   1.641   3.263   0.790  0.5714  0.0949  0.3105
  271SOL    HW1 1597   1.626   3.168   0.785 -0.2641  0.2335  0.0950
  271SOL    HW2 1598   1.554   3.301   0.788  0.8510  1.0741 -4.0596
  272SOL     OW 1599   1.818   1.879   3.038  0.3505 -0.5058 -0.6500
  272SOL    HW1 1600   1.780   1.907   3.122 -0.3933  0.2550 -1.2165
  272SOL    HW2 1601   1.752   1.820   3.001 -0.4794  1.0625 -1.7811
  273SOL     OW 1602   2.647   2.498   1.248 -0.2936 -0.3472 -0.2873
  273SOL    HW1 1603   2.632   2.592   1.250 -0.4920 -0.3559 -0.9603
  273SOL    HW2 1604   2.654   2.477   1.155  0.4679 -0.8849 -0.1211
  274SOL     OW 1605   2.162   2.146   1.492 -0.4279  0.0719  0.3911
  274SOL    HW1 1606   2.163   2.193   1.409 -0.9006 -0.5134  0.0513
  274SOL    HW2 1607   2.071   2.153   1.523 -0.8715 -1.8089 -0.3633
  275SOL     OW 1608   1.195   1.119   1.393  0.3452  0.2106 -0.4010
  275SOL    HW1 1609   1.154   1.160   1.317 -0.4903  0.9166  0.3925
  275SOL    HW2 1610   1.271   1.174   1.412  0.5515  0.0355 -0.7318
  276SOL     OW 1611   0.519   2.291   1.693  0.1426  0.0275 -0.2608
  276SOL    HW1 1612   0.523   2.327   1.604 -1.7966 -1.0775 -0.8429
  276SOL    HW2 1613   0.604   2.249   1.705  0.3536 -0.0165 -1.6924
  277SOL     OW 1614   2.389   2.934   1.622  0.1462  0.1763  0.1391
  277SOL    HW1 1615   2.330   2.858   1.620  0.8394 -0.3847  0.6391
  277SOL    HW2 1616   2.392   2.959   1.714  2.0547 -0.8991  0.4192
  278SOL     OW 1617   1.159   0.525   1.490 -0.2986  0.1826 -0.5054
  278SOL    HW1 1618   1.224   0.594   1.492 -0.0880 -0.0286 -0.0180
  278SOL    HW2 1619   1.194   0.460   1.429  0.8157 -0.7666  1.0710
  279SOL     OW 1620   1.583   1.476   1.522  0.3449  0.3114 -0.0937
  279SOL    HW1 1621   1.679   1.477   1.529  0.2789  1.0046  0.9270
  279SOL    HW2 1622   1.560   1.564   1.491  0.0202  0.2598 -0.0007
  280SOL     OW 1623   3.017   0.352   0.150 -0.0660  0.6197  0.3021
  280SOL    HW1 1624   3.029   0.325   0.241  1.5310  1.8922  0.5157
  280SOL    HW2 1625   3.074   0.293   0.100 -0.8351  0.0133  0.1234
  281SOL     OW 1626   1.798   0.665   0.957  0.4994 -0.3633 -0.0270
  281SOL    HW1 1627   1.706   0.680   0.980  0.3669 -0.1956 -0.6364
  281SOL    HW2 1628   1.822   0.741   0.904  0.5147 -1.1677 -1.2156
  282SOL     OW 1629   1.723   2.856   0.367 -0.1956  0.0690  0.0893
  282SOL    HW1 1630   1.663   2.854   0.293 -0.2339  2.2424 -0.0187
  282SOL    HW2 1631   1.666   2.864   0.444 -0.1042 -0.4664  0.2178
  283SOL     OW 1632   0.015   2.018   2.860 -0.1149 -0.0624  0.3180
  283SOL    HW1 1633  -0.020   2.094   2.906 -1.1914  0.6216 -1.5161
  283SOL    HW2 1634  -0.062   1.975   2.822  0.7504  0.0208 -1.6787
  284SOL     OW 1635   0.343   2.950   1.750 -0.4947  0.0050  0.3542
  284SOL    HW1 1636   0.335   2.854   1.752  2.9391 -0.4189 -0.0220
  284SOL    HW2 1637   0.306   2.975   1.665  1.6860 -1.4869 -1.1365
  285SOL     OW 1638   1.207   1.755   2.847  0.0785  0.0248  0.0612
  285SOL    HW1 1639   1.289   1.706   2.843  0.6870  1.0683 -0.7847
  285SOL    HW2 1640   1.229   1.836   2.894 -0.2563  0.6558 -0.8308
  286SOL     OW 1641   2.011   2.090   0.904  0.2085  0.0526  0.3059
  286SOL    HW1 1642   1.948   2.121   0.969  0.4838 -1.6695  1.4666
  286SOL    HW2 1643   2.081   2.157   0.904  0.1544  0.1269  1.7209
  287SOL     OW 1644   2.049   1.829   0.988  0.1161  0.0103  0.0958
  287SOL    HW1 1645   2.036   1.910   0.939  0.4652 -0.4185 -0.7315
  287SOL    HW2 1646   2.134   1.838   1.029  0.4801 -0.2242 -0.5926
  288SOL     OW 1647   0.176   0.274   0.247 -0.3143 -0.0634  0.1402
  288SOL    HW1 1648   0.156   0.367   0.255  1.0658  0.2104  0.7527
  288SOL    HW2 1649   0.220   0.267   0.163 -1.4313 -0.3787 -0.4375
  289SOL     OW 1650   0.662   2.588   2.385 -0.1249  0.4574  0.4428
  289SOL    HW1 1651   0.690   2.578   2.476  2.5114 -0.6832 -0.3951
  289SOL    HW2 1652   0.724   2.651   2.347 -0.8122  0.4827 -0.6902
  290SOL     OW 1653   0.416   2.913   2.682 -0.2949 -0.1743 -0.0531
  290SOL    HW1 1654   0.365   2.917   2.601 -0.4981  2.5122  0.0991
  290SOL    HW2 1655   0.356   2.873   2.746 -0.7623 -0.7166 -0.8206
  291SOL     OW 1656   1.692   1.626   3.162  0.4991 -0.3163  0.1150
  291SOL    HW1 1657   1.728   1.628   3.251 -0.4299 -1.8621  0.5659
  291SOL    HW2 1658   1.617   1.686   3.165  0.5794 -0.2253  0.3191
  292SOL     OW 1659   1.471   0.789   3.044  0.0681 -0.0331  0.1333
  292SOL    HW1 1660   1.536   0.742   2.992  0.6288  0.3323  0.4888
  292SOL    HW2 1661   1.510   0.875   3.060 -0.8032  0.4462 -0.2302
  293SOL     OW 1662   3.296   0.186   1.568 -0.1264 -0.9100 -0.3304
  293SOL    HW1 1663   3.227   0.252   1.554 -0.1283 -0.7991  0.1697
  293SOL    HW2 1664   3.352   0.194   1.491  0.2374  0.1350  0.0190
  294SOL     OW 1665   1.456   0.064   0.200 -0.1938 -0.6463  0.4389
  294SOL    HW1 1666   1.416   0.051   0.114  0.1420  0.8480  0.0132
  294SOL    HW2 1667   1.383   0.055   0.262 -0.7215 -0.3768 -0.1247
  295SOL     OW 1668   0.311   0.601   0.451 -0.1103  0.1077 -0.2790
  295SOL    HW1 1669   0.374   0.530   0.442 -0.0016  0.1660  0.0245
  295SOL    HW2 1670   0.364   0.677   0.475 -0.2172  0.3104 -0.6707
  296SOL     OW 1671   0.278   0.633   0.188 -0.0133  0.0834  0.3281
  296SOL    HW1 1672   0.255   0.591   0.271 -1.6451  1.2406  0.5283
  296SOL    HW2 1673   0.373   0.643   0.191  0.2703 -2.1819  0.9070
  297SOL     OW 1674   1.942   2.128   1.674  0.3045  0.2743  0.1822
  297SOL    HW1 1675   1.930   2.111   1.767 -1.0374  2.6000  0.5088
  297SOL    HW2 1676   1.932   2.042   1.633 -0.0900 -0.6464  2.0806
  298SOL     OW 1677   2.164   0.184   0.960  0.2440  0.2755 -0.0066
  298SOL    HW1 1678   2.076   0.220   0.943 -0.1870 -1.3750 -1.6403
  298SOL    HW2 1679   2.159   0.095   0.926  2.2380 -0.2252  0.9319
  299SOL     OW 1680   0.656   0.334   1.021 -0.2743  0.3669 -0.4139
  299SOL    HW1 1681   0.684   0.247   0.996 -0.2130  0.1710  0.3070
  299SOL    HW2 1682   0.699   0.351   1.105 -0.7897  0.8227 -0.2263
  300SOL     OW 1683   2.524   1.664   0.227 -0.1807  0.3841  0.8457
  300SOL    HW1 1684   2.559   1.731   0.287 -1.6376  2.2008 -0.2438
  300SOL    HW2 1685   2.457   1.710   0.177  0.3173 -1.3289 -1.5297
  301SOL     OW 1686   0.317   1.265   1.129  0.3374 -0.3423  0.0796
  301SOL    HW1 1687   0.325   1.354   1.163 -1.5023  0.1135 -0.5915
  301SOL    HW2 1688   0.398   1.222   1.156  1.8284  1.8601 -0.6013
  302SOL     OW 1689   2.653   2.243   0.560  0.1018  0.8569 -0.5535
  302SOL    HW1 1690   2.569   2.287   0.573  0.3107  1.3132 -0.7036
  302SOL    HW2 1691   2.716   2.296   0.609  0.4908  1.2058 -1.4101
  303SOL     OW 1692   1.373   0.944   0.411 -0.1653  0.1315 -0.3679
  303SOL    HW1 1693   1.431   1.012   0.444  0.5244 -0.5561 -0.1360
  303SOL    HW2 1694   1.368   0.960   0.317  0.2565  0.3113 -0.3628
  304SOL     OW 1695   1.764   0.070   2.281  0.0774  0.3281 -0.3342
  304SOL    HW1 1696   1.768   0.156   2.323 -1.7229  0.3197 -0.0770
  304SOL    HW2 1697   1.671   0.046   2.283  0.5720 -1.7533 -0.1686
  305SOL     OW 1698   0.642   1.396   1.212 -0.5946 -0.2643  0.3342
  305SOL    HW1 1699   0.650   1.443   1.129  0.0424 -0.0804  0.4959
  305SOL    HW2 1700   0.709   1.328   1.208 -0.0455  0.2158  0.9969
  306SOL     OW 1701   2.555   0.339   3.150 -0.2248  0.1749  0.0289
  306SOL    HW1 1702   2.610   0.399   3.099 -0.8403  0.5573 -0.1999
  306SOL    HW2 1703   2.474   0.332   3.099 -0.5208 -0.1127  0.5322
  307SOL     OW 1704   1.876   1.686   2.652 -0.6252 -0.2474 -0.3201
  307SOL    HW1 1705   1.969   1.709   2.646 -0.7870  0.2181 -1.0444
  307SOL    HW2 1706   1.873   1.620   2.722  0.0652  0.6802  0.6274
  308SOL     OW 1707   1.551   2.418   1.435  0.4913 -0.5266  0.6626
  308SOL    HW1 1708   1.461   2.442   1.455  0.6738  0.9887 -0.1566
  308SOL    HW2 1709   1.563   2.332   1.473 -1.0018 -0.3202  1.6416
  309SOL     OW 1710   0.130   1.206   0.960  0.2376  0.3751  0.0648
  309SOL    HW1 1711   0.079   1.285   0.979  1.0765  0.8851  0.2638
  309SOL    HW2 1712   0.210   1.215   1.013  1.3240  0.4429 -1.5009
  310SOL     OW 1713   0.056   3.117   1.765  0.4440  0.2194  0.1165
  310SOL    HW1 1714   0.090   3.206   1.758  1.0962 -0.0714 -0.6171
  310SOL    HW2 1715   0.113   3.075   1.830 -0.7506  0.7144  1.5482
  311SOL     OW 1716   1.340   2.705   1.687 -1.0470  0.1003  0.0451
  311SOL    HW1 1717   1.338   2.614   1.717 -0.1060  0.0039 -0.1656
  311SOL    HW2 1718   1.423   2.740   1.721 -1.6526  1.0438  0.5960
  312SOL     OW 1719   0.203   1.326   0.411  0.1060  0.1592  0.1462
  312SOL    HW1 1720   0.197   1.334   0.506  1.1027  1.9482  0.1097
  312SOL    HW2 1721   0.246   1.407   0.383 -0.6976 -0.0597 -1.8857
  313SOL     OW 1722   1.948   0.361   3.159 -0.2805 -0.3303  0.0150
  313SOL    HW1 1723   2.010   0.363   3.232 -0.0793  0.9679 -0.1645
  313SOL    HW2 1724   1.917   0.451   3.151  0.1890 -0.2921 -1.9080
  314SOL     OW 1725   3.019   0.647   0.170 -0.2446  0.6309  0.3229
  314SOL    HW1 1726   3.082   0.638   0.241 -1.8528 -0.6440  1.6499
  314SOL    HW2 1727   3.012   0.559   0.133 -0.8729  0.8603 -0.1233
  315SOL     OW 1728   0.818   0.294   0.695 -0.1050 -0.0619  1.0518
  315SOL    HW1 1729   0.877   0.243   0.750  2.8830  1.6551 -0.3190
  315SOL    HW2 1730   0.864   0.377   0.679 -1.9219  0.5667 -1.9030
  316SOL     OW 1731   2.276   1.792   0.208 -0.5434 -0.1645 -0.0605
  316SOL    HW1 1732   2.272   1.876   0.254 -0.5378 -0.1227 -0.1363
  316SOL    HW2 1733   2.188   1.755   0.218 -0.7772  0.2016 -0.6841
  317SOL     OW 1734   2.210   3.092   3.255  1.0562  0.2588  0.2812
  317SOL    HW1 1735   2.174   3.062   3.338  0.9295  3.5835  1.5782
  317SOL    HW2 1736   2.134   3.096   3.196  0.8374 -0.4769  0.4979
  318SOL     OW 1737   2.785   2.623   1.718  0.2884 -0.2516 -0.1303
  318SOL    HW1 1738   2.767   2.692   1.781 -0.7945 -0.8739  0.2717
  318SOL    HW2 1739   2.701   2.604   1.677  0.4645 -1.6168  0.0837
  319SOL     OW 1740   1.454   0.415   3.217 -0.1328  0.4276  0.0005
  319SOL    HW1 1741   1.496   0.424   3.303  0.5227  1.4156 -0.4061
  319SOL    HW2 1742   1.399   0.494   3.209  2.9921  2.6284 -2.1674
  320SOL     OW 1743   2.883   2.407   1.346 -0.3762  0.0700 -0.2062
  320SOL    HW1 1744   2.809   2.462   1.321 -1.1862 -1.2007 -0.7444
  320SOL    HW2 1745   2.871   2.392   1.439 -2.9737 -3.0352 -0.8447
  321SOL     OW 1746   2.116   2.646   1.366  0.7878 -0.5349 -0.5255
  321SOL    HW1 1747   2.110   2.738   1.340 -0.4265 -0.1741  0.9393
  321SOL    HW2 1748   2.026   2.615   1.367  1.1462 -1.6212 -0.5250
  322SOL     OW 1749   2.631   3.267   1.515 -0.6012  0.4467  0.2890
  322SOL    HW1 1750   2.656   3.192   1.569  0.2221  0.6000  0.1451
  322SOL    HW2 1751   2.551   3.300   1.555 -0.2356  0.3094  1.1723
  323SOL     OW 1752   2.022   0.558   1.072  0.0954  0.1123  0.0751
  323SOL    HW1 1753   2.085   0.569   1.000 -1.0899  1.4491 -0.8039
  323SOL    HW2 1754   1.940   0.593   1.038 -1.0756 -1.2832  1.3124
  324SOL     OW 1755   0.441   2.330   1.959 -0.2862 -0.3631 -0.2725
  324SOL    HW1 1756   0.477   2.305   1.874  0.2983  0.1412 -0.1761
  324SOL    HW2 1757   0.478   2.416   1.977 -0.3986 -0.4681  0.5016
  325SOL     OW 1758   2.099   1.801   0.581  1.0286 -0.1832 -0.0973
  325SOL    HW1 1759   2.106   1.743   0.505 -0.6879 -0.5191 -0.0402
  325SOL    HW2 1760   2.107   1.742   0.656  0.5375 -0.1639 -0.0303
  326SOL     OW 1761   0.426   2.723   2.318 -0.5629  0.2125 -0.2774
  326SOL    HW1 1762   0.411   2.703   2.225  1.5864  0.1414 -0.6569
  326SOL    HW2 1763   0.517   2.699   2.333 -0.8479  0.2880  1.8676
  327SOL     OW 1764   1.717   2.185   1.862 -0.3142  0.5048 -0.1290
  327SOL    HW1 1765   1.796   2.228   1.896  0.2767  0.6893 -1.6275
  327SOL    HW2 1766   1.671   2.154   1.939  2.2103 -1.3735  0.7738
  328SOL     OW 1767   2.224   2.441   1.961 -0.2448 -0.4384 -0.0209
  328SOL    HW1 1768   2.227   2.445   1.865 -0.2608 -0.1107 -0.0097
  328SOL    HW2 1769   2.243   2.530   1.989  0.3517 -0.6623  0.2988
  329SOL     OW 1770   3.096   1.879   2.763  0.2613  0.0120  0.5854
  329SOL    HW1 1771   3.056   1.944   2.705  1.2898  0.5429  0.4491
  329SOL    HW2 1772   3.101   1.800   2.709  2.1410  0.7690 -0.4682
  330SOL     OW 1773   2.764   0.414   0.791  0.0262  0.0625 -0.2206
  330SOL    HW1 1774   2.790   0.497   0.750  0.1480 -0.3787 -1.0543
  330SOL    HW2 1775   2.772   0.431   0.885  1.1912  0.6355 -0.3965
  331SOL     OW 1776   0.781   1.313   0.227  0.3088 -0.7714 -0.2983
  331SOL    HW1 1777   0.787   1.257   0.305 -0.7247 -1.3430 -0.6190
  331SOL    HW2 1778   0.688   1.327   0.214  0.5296  1.2095 -0.1250
  332SOL     OW 1779   2.794   3.216   3.141  0.5435  0.2922 -0.1695
  332SOL    HW1 1780   2.732   3.284   3.164  0.0171 -0.1437 -0.2879
  332SOL    HW2 1781   2.740   3.144   3.108  1.1767  0.3260 -1.3257
  333SOL     OW 1782   3.062   3.235   3.101 -0.3350  0.0424  0.0471
  333SOL    HW1 1783   2.970   3.238   3.127 -0.3007  1.0181  0.1094
  333SOL    HW2 1784   3.105   3.181   3.167 -0.9782 -0.9780 -0.3583
  334SOL     OW 1785   0.488   3.299   1.639  0.2215  0.2133 -0.5244
  334SOL    HW1 1786   0.414   3.349   1.674 -0.3658  0.5603 -2.1636
  334SOL    HW2 1787   0.565   3.349   1.666 -0.1901  0.3928  0.3584
  335SOL     OW 1788   0.837   2.798   2.316  0.0591  0.1741 -0.2317
  335SOL    HW1 1789   0.845   2.862   2.387  1.2069 -1.1289  0.8749
  335SOL    HW2 1790   0.799   2.848   2.244 -0.3386  1.7669  0.9987
  336SOL     OW 1791   1.024   1.433   0.792  0.3678 -0.4769  0.6357
  336SOL    HW1 1792   1.112   1.402   0.770 -0.0535 -1.4820  0.3065
  336SOL    HW2 1793   1.036   1.482   0.874  1.4352  0.5685 -0.1165
  337SOL     OW 1794   2.141   2.260   1.194 -0.2876  0.0466  0.0834
  337SOL    HW1 1795   2.169   2.298   1.110  0.1130  1.4676  0.8239
  337SOL    HW2 1796   2.046   2.262   1.191 -0.2728  0.4158 -0.1952
  338SOL     OW 1797   1.385   1.212   1.081 -0.5914  0.2373 -0.2371
  338SOL    HW1 1798   1.298   1.210   1.120 -0.0006 -1.2307  1.1023
  338SOL    HW2 1799   1.381   1.145   1.012 -0.5257  0.1537 -0.1602
  339SOL     OW 1800   1.381   3.026   3.115 -0.5156 -0.0282 -0.5656
  339SOL    HW1 1801   1.375   2.961   3.186  0.5198  0.3604 -0.1006
  339SOL    HW2 1802   1.431   3.098   3.153  0.0654  0.1834 -1.6978
  340SOL     OW 1803   3.296   3.000   2.895  0.2345  0.1258  0.2775
  340SOL    HW1 1804   3.323   2.953   2.815 -0.2094 -0.7835  0.6404
  340SOL    HW2 1805   3.226   3.058   2.866  0.7853  0.5717 -0.1844
  341SOL     OW 1806   0.531   1.353   3.209 -0.3008 -0.3346 -0.2921
  341SOL    HW1 1807   0.596   1.283   3.204  0.0799  0.0380 -0.7077
  341SOL    HW2 1808   0.457   1.320   3.158  0.1338 -0.1741 -1.0419
  342SOL     OW 1809   3.236   0.500   1.068 -0.3058  0.1700  0.5748
  342SOL    HW1 1810   3.324   0.525   1.095  0.2733  1.1320 -1.9920
  342SOL    HW2 1811   3.235   0.510   0.973 -3.3987  0.9467  0.5483
  343SOL     OW 1812   0.067   1.526   0.650 -0.2700  0.5794 -0.5339
  343SOL    HW1 1813  -0.022   1.500   0.673 -0.6318  1.7403 -0.5761
  343SOL    HW2 1814   0.060   1.554   0.559  0.1184  0.7864 -0.4996
  344SOL     OW 1815   1.272   2.050   1.129 -0.0496 -0.0854  0.3634
  344SOL    HW1 1816   1.302   2.022   1.043 -0.9827 -0.6262  0.2020
  344SOL    HW2 1817   1.186   2.009   1.139  0.1784 -0.2752  1.6818
  345SOL     OW 1818   0.198   0.289   2.730 -0.3168 -0.9004 -0.5398
  345SOL    HW1 1819   0.147   0.355   2.776  0.9746 -0.6908  0.6456
  345SOL    HW2 1820   0.188   0.210   2.782 -0.0516 -1.0546 -0.7189
  346SOL     OW 1821   1.925   0.807   0.735 -0.1478  0.1705  0.1996
  346SOL    HW1 1822   1.988   0.879   0.745  0.3131 -0.1800 -0.1391
  346SOL    HW2 1823   1.979   0.731   0.712 -0.6708 -0.1998  0.1752
  347SOL     OW 1824   2.517   2.386   1.452  0.1099 -0.2605 -0.0716
  347SOL    HW1 1825   2.577   2.413   1.382  0.0049 -1.6049 -0.7122
  347SOL    HW2 1826   2.432   2.419   1.425  0.2949  0.3773  0.1033
  348SOL     OW 1827   2.182   2.524   0.399  0.0135 -0.1922  0.4152
  348SOL    HW1 1828   2.207   2.587   0.332 -1.8078  1.3198  1.0704
  348SOL    HW2 1829   2.174   2.441   0.352  1.1979  0.3093 -0.7308
  349SOL     OW 1830   2.725   1.516   0.087  0.8274  0.1742 -0.8056
  349SOL    HW1 1831   2.673   1.574   0.143  0.6406 -1.0062  0.2910
  349SOL    HW2 1832   2.671   1.505   0.008 -0.1833 -0.3079 -0.0679
  350SOL     OW 1833   1.034   2.572   1.169 -0.7663 -0.2218 -0.3045
  350SOL    HW1 1834   1.115   2.544   1.126 -0.4280  0.0623  0.1379
  350SOL    HW2 1835   1.062   2.642   1.229 -1.3447 -0.0996 -0.1780
  351SOL     OW 1836   1.184   0.087   1.639 -0.1680 -0.4156 -0.0011
  351SOL    HW1 1837   1.095   0.119   1.627  0.6108  2.0125  0.2016
  351SOL    HW2 1838   1.175  -0.008   1.639 -2.6040 -0.2628 -1.0374
  352SOL     OW 1839   0.102   1.157   0.067 -0.0773  0.0573 -0.3184
  352SOL    HW1 1840   0.047   1.182   0.142 -1.4793 -0.9877 -0.9583
  352SOL    HW2 1841   0.040   1.145  -0.005  1.1613  0.2590 -1.4575
  353SOL     OW 1842   2.214   0.945   0.334  0.6671 -0.1140 -0.1104
  353SOL    HW1 1843   2.240   1.021   0.386 -0.6112  1.3443 -1.5174
  353SOL    HW2 1844   2.130   0.918   0.372  0.7845 -0.4226 -0.0610
  354SOL     OW 1845   3.053   1.041   0.449 -0.6696 -0.4303  0.3573
  354SOL    HW1 1846   3.131   0.987   0.441  0.3801  1.0869  0.0303
  354SOL    HW2 1847   3.080   1.117   0.501 -1.2231  1.3126 -1.7376
  355SOL     OW 1848   0.052   0.169   2.388 -0.5407  0.2764  0.0567
  355SOL    HW1 1849   0.011   0.181   2.302 -0.3063 -0.3644 -0.1533
  355SOL    HW2 1850   0.020   0.084   2.417 -0.2469  0.2821  0.3938
  356SOL     OW 1851   0.943   0.309   0.362  0.5166 -0.5719 -0.4328
  356SOL    HW1 1852   0.907   0.324   0.275 -1.5678 -1.2521  0.2539
  356SOL    HW2 1853   0.904   0.226   0.390  1.4373 -0.5550  1.0074
  357SOL     OW 1854   3.194   3.013   2.100  1.0553  0.2459  0.1043
  357SOL    HW1 1855   3.271   2.971   2.062 -0.3475 -1.0221 -1.4903
  357SOL    HW2 1856   3.163   3.074   2.033 -0.3690 -0.6353 -0.0846
  358SOL     OW 1857   1.328   1.146   3.196  1.0177  0.2462 -0.3684
  358SOL    HW1 1858   1.399   1.207   3.179  0.7419  0.4120 -0.9613
  358SOL    HW2 1859   1.311   1.104   3.112 -0.4476  1.1585 -0.5585
  359SOL     OW 1860   1.460   3.036   2.561 -0.4004 -0.3365  0.6105
  359SOL    HW1 1861   1.394   2.995   2.506  0.5592 -0.8266 -0.2114
  359SOL    HW2 1862   1.429   3.126   2.571 -0.2558 -0.0174 -1.3613
  360SOL     OW 1863   1.389   3.076   0.121 -0.2753  0.3210  0.0441
  360SOL    HW1 1864   1.362   3.153   0.071  1.2480  1.2025  0.5044
  360SOL    HW2 1865   1.405   3.109   0.210  0.0187 -0.6011  0.3498
  361SOL     OW 1866   2.316   2.207   2.066  0.1199 -0.3414 -0.0562
  361SOL    HW1 1867   2.281   2.286   2.024 -1.7211 -0.9503  0.2229
  361SOL    HW2 1868   2.365   2.239   2.141  1.3205  0.6279 -1.1996
  362SOL     OW 1869   2.581   2.498   2.284  0.3212 -0.5642 -0.1953
  362SOL    HW1 1870   2.491   2.465   2.278 -0.2890  0.5789  1.7041
  362SOL    HW2 1871   2.608   2.476   2.373  1.3237  0.5315 -0.2112
  363SOL     OW 1872   1.620   3.278   1.882  0.0820 -0.6060  0.2868
  363SOL    HW1 1873   1.688   3.226   1.925  1.1713 -0.1246 -0.7916
  363SOL    HW2 1874   1.539   3.228   1.895  0.9664 -2.2063 -0.0938
  364SOL     OW 1875   2.295   1.621   2.691  0.1861 -0.4112 -0.3646
  364SOL    HW1 1876   2.223   1.684   2.698  0.3940 -0.2997  1.4279
  364SOL    HW2 1877   2.370   1.666   2.730  1.1932 -0.6298 -1.9579
  365SOL     OW 1878   2.066   0.024   0.260 -0.1921 -0.2026 -0.4959
  365SOL    HW1 1879   1.980   0.044   0.223  0.0916  0.4712 -0.8090
  365SOL    HW2 1880   2.125   0.028   0.185 -0.0597 -1.8941 -0.5070
  366SOL     OW 1881   2.500   2.676   1.636 -0.3131 -0.5680  0.3526
  366SOL    HW1 1882   2.526   2.768   1.627  1.4617 -1.1056 -0.5310
  366SOL    HW2 1883   2.407   2.675   1.614 -0.1545  0.8824 -0.5177
  367SOL     OW 1884   1.067   0.085   3.137 -0.0530 -0.6872 -0.1365
  367SOL    HW1 1885   1.029   0.156   3.189  0.9357 -1.3003  1.5319
  367SOL    HW2 1886   1.153   0.119   3.111  0.4588 -1.2622  0.7419
  368SOL     OW 1887   1.931   3.090   2.892 -0.3251  0.6349  0.0501
  368SOL    HW1 1888   1.898   3.047   2.970 -1.0707 -0.7915 -0.9929
  368SOL    HW2 1889   2.007   3.140   2.922 -0.0409 -0.6036  1.5287
  369SOL     OW 1890   1.020   1.119   0.464 -0.2578 -0.6855 -0.0793
  369SOL    HW1 1891   1.068   1.183   0.411  0.4915  0.0655  1.4509
  369SOL    HW2 1892   0.930   1.123   0.430  0.0380  0.2939 -0.7976
  370SOL     OW 1893   2.818   3.026   2.850 -0.0398 -0.7119 -0.4023
  370SOL    HW1 1894   2.792   3.006   2.939 -0.2507 -0.6473 -0.4478
  370SOL    HW2 1895   2.764   2.970   2.795 -0.1202 -0.5418 -0.5001
  371SOL     OW 1896   2.458   0.855   0.268 -0.1295  0.1891  0.1563
  371SOL    HW1 1897   2.482   0.762   0.268 -0.8836 -0.1343 -3.0011
  371SOL    HW2 1898   2.368   0.856   0.301 -0.3404 -0.2957 -0.3937
  372SOL     OW 1899   1.970   2.746   0.282 -0.3193  0.1184  0.3747
  372SOL    HW1 1900   1.881   2.776   0.299 -0.3630  0.4857 -0.4667
  372SOL    HW2 1901   2.008   2.735   0.369 -0.6517  1.5325  0.7190
  373SOL     OW 1902   1.171   0.944   0.611 -0.3480  0.1675 -0.3846
  373SOL    HW1 1903   1.256   0.947   0.565 -0.3404 -0.8533 -0.4449
  373SOL    HW2 1904   1.112   0.991   0.552  0.3807  1.8431  0.1465
  374SOL     OW 1905   0.559   0.967   0.135 -0.0128  0.2026  0.2883
  374SOL    HW1 1906   0.624   0.973   0.065  0.2882  1.3931  0.6482
  374SOL    HW2 1907   0.480   1.006   0.098  0.0647  0.5751  0.5083
  375SOL     OW 1908   2.527   0.673   0.730  0.0859  0.5244  0.0261
  375SOL    HW1 1909   2.617   0.674   0.697  0.2028 -0.7261  0.2720
  375SOL    HW2 1910   2.531   0.621   0.810 -0.7050  1.2162  0.5375
  376SOL     OW 1911   1.579   2.885   2.017 -0.4353 -0.4835  0.1403
  376SOL    HW1 1912   1.487   2.906   2.033 -0.4121  0.4646 -0.8503
  376SOL    HW2 1913   1.584   2.871   1.922  0.5890  0.3165  0.0624
  377SOL     OW 1914   3.219   2.917   1.632  0.1353 -0.2616  0.3266
  377SOL    HW1 1915   3.205   2.862   1.709  0.7250  1.1963  1.5329
  377SOL    HW2 1916   3.284   2.982   1.660  0.7970 -0.0345 -1.5927
  378SOL     OW 1917   1.496   1.445   1.167  0.1217 -0.0173 -0.3635
  378SOL    HW1 1918   1.583   1.434   1.205  0.5966  0.1981 -1.3592
  378SOL    HW2 1919   1.464   1.356   1.153 -0.5302 -0.1260  1.5211
  379SOL     OW 1920   0.927   0.561   0.512  0.0128  0.2392 -0.3425
  379SOL    HW1 1921   0.848   0.592   0.468 -1.4358 -1.8382  0.6021
  379SOL    HW2 1922   0.945   0.476   0.471  0.0369 -0.6240  1.3725
  380SOL     OW 1923   1.468   3.078   0.396 -0.4551  0.1726  0.1060
  380SOL    HW1 1924   1.423   3.090   0.480 -2.1220  1.1096 -0.8792
  380SOL    HW2 1925   1.440   2.992   0.365 -0.4193  0.1418  0.1583
  381SOL     OW 1926   2.524   2.867   0.079  0.1910  0.0728  0.0982
  381SOL    HW1 1927   2.596   2.931   0.081 -0.6295  1.0017  1.3098
  381SOL    HW2 1928   2.480   2.878   0.163  0.2918 -2.4503  0.5676
  382SOL     OW 1929   2.615   0.650   3.259  0.1167 -0.0565  0.1861
  382SOL    HW1 1930   2.553   0.722   3.268  0.7550  0.3903  1.1409
  382SOL    HW2 1931   2.692   0.677   3.310  0.9708 -0.7392 -0.6993
  383SOL     OW 1932   2.732   0.916   0.277  0.4783  0.0044 -0.3924
  383SOL    HW1 1933   2.636   0.915   0.279  0.4639  0.2888 -0.8386
  383SOL    HW2 1934   2.755   1.009   0.284  0.7873 -0.1873  2.0784
  384SOL     OW 1935   2.394   2.642   2.707 -0.1144  0.3490 -0.1340
  384SOL    HW1 1936   2.471   2.652   2.762 -0.0244  2.6736 -0.5898
  384SOL    HW2 1937   2.411   2.563   2.655  1.5574  0.3656  0.3376
  385SOL     OW 1938   0.119   1.262   2.787 -0.2231 -0.4538  0.1099
  385SOL    HW1 1939   0.064   1.231   2.859 -0.5619  1.7458  0.8771
  385SOL    HW2 1940   0.074   1.233   2.707 -0.6544 -1.5919  0.7434
  386SOL     OW 1941   2.506   1.427   2.210 -0.4674  0.2255 -0.2043
  386SOL    HW1 1942   2.586   1.398   2.166  1.2959  2.7339  1.0972
  386SOL    HW2 1943   2.458   1.476   2.143 -0.1201  0.0772 -0.5627
  387SOL     OW 1944   2.705   2.948   2.497 -0.2393 -0.2648 -0.0998
  387SOL    HW1 1945   2.676   2.992   2.577 -0.0981  0.0736 -0.2355
  387SOL    HW2 1946   2.633   2.963   2.435 -0.4345 -0.6905  0.0219
  388SOL     OW 1947   2.372   3.096   1.828  0.2945  0.2523 -0.0396
  388SOL    HW1 1948   2.450   3.092   1.883  0.0976 -1.8032  0.1894
  388SOL    HW2 1949   2.391   3.164   1.763  0.8283  2.2602  2.0810
  389SOL     OW 1950   0.843   0.681   3.172  0.0182  0.6270  0.2942
  389SOL    HW1 1951   0.786   0.608   3.195 -1.3328  1.1957 -1.0770
  389SOL    HW2 1952   0.900   0.646   3.103 -0.3361  0.7288 -0.0556
  390SOL     OW 1953   0.177   2.235   1.490  0.0428  0.6986 -0.0662
  390SOL    HW1 1954   0.180   2.221   1.395 -0.0529 -0.1790  0.0523
  390SOL    HW2 1955   0.120   2.165   1.523 -1.5790  2.1521  0.4262
  391SOL     OW 1956   2.586   2.205   0.192  0.0305 -0.4847  0.4362
  391SOL    HW1 1957   2.603   2.178   0.101 -1.2274  0.3387 -0.0778
  391SOL    HW2 1958   2.493   2.187   0.205 -0.5073  2.0285  0.5904
  392SOL     OW 1959   0.934   0.106   2.214 -0.1001 -0.2577  0.4338
  392SOL    HW1 1960   0.880   0.181   2.241 -0.5985  0.4002 -2.1446
  392SOL    HW2 1961   0.963   0.128   2.126 -0.1006 -3.0328 -0.3459
  393SOL     OW 1962   2.634   1.013   0.692 -0.1769 -0.1371  0.4396
  393SOL    HW1 1963   2.721   0.981   0.667 -0.5182 -0.3492 -0.5094
  393SOL    HW2 1964   2.636   1.106   0.670 -0.9903 -0.6147 -1.9482
  394SOL     OW 1965   2.391   2.403   2.578  0.2971  0.0145  0.2021
  394SOL    HW1 1966   2.321   2.358   2.626 -0.8944 -0.8144 -2.1677
  394SOL    HW2 1967   2.472   2.362   2.609 -0.5011 -1.2222  0.7296
  395SOL     OW 1968   2.734   3.277   0.249 -0.3685 -0.2694  0.1778
  395SOL    HW1 1969   2.764   3.314   0.332 -0.4038  1.4008 -0.5017
  395SOL    HW2 1970   2.653   3.325   0.229 -0.2162 -0.4405 -0.9468
  396SOL     OW 1971   1.952   2.185   2.287  0.1920  0.0795  0.1486
  396SOL    HW1 1972   1.932   2.161   2.378 -0.7898 -1.0917 -0.3538
  396SOL    HW2 1973   1.871   2.223   2.254  0.6057  0.6790 -0.1854
  397SOL     OW 1974   0.701   0.927   1.012  0.1051 -0.1030 -0.3470
  397SOL    HW1 1975   0.715   0.934   0.917  0.1507 -0.6188 -0.3822
  397SOL    HW2 1976   0.627   0.867   1.021  1.0247 -1.2370 -0.0265
  398SOL     OW 1977   0.937   1.749   2.865  0.1887 -0.0294  0.5113
  398SOL    HW1 1978   0.921   1.826   2.921  0.1864  1.1194 -1.0037
  398SOL    HW2 1979   1.031   1.751   2.848  0.0356  0.2712 -0.3729
  399SOL     OW 1980   0.110   3.266   0.010 -0.3548  0.2581 -0.2059
  399SOL    HW1 1981   0.025   3.247  -0.030  0.0969  1.3006 -1.7274
  399SOL    HW2 1982   0.145   3.339  -0.041  0.5665  1.1998  1.6898
  400SOL     OW 1983   0.989   2.718   0.934  0.2165 -0.7845  0.4979
  400SOL    HW1 1984   0.983   2.661   1.011  0.6788  0.1189  1.2244
  400SOL    HW2 1985   1.029   2.798   0.967 -0.0024 -0.2069 -0.6017
  401SOL     OW 1986   2.299   2.464   1.311 -0.2828 -0.2015  0.0107
  401SOL    HW1 1987   2.236   2.396   1.286 -1.3269  0.0861  1.7249
  401SOL    HW2 1988   2.245   2.541   1.329  0.9205  1.3518 -2.5134
  402SOL     OW 1989   3.168   3.048   2.376  0.2422  0.3784 -0.3238
  402SOL    HW1 1990   3.095   2.986   2.383  1.2025 -0.8689 -1.0169
  402SOL    HW2 1991   3.187   3.052   2.282  1.3134  0.3777 -0.1182
  403SOL     OW 1992   0.231   3.016   2.993  0.2470  0.2938  0.5717
  403SOL    HW1 1993   0.141   2.998   2.968  0.8204 -0.8446 -0.7841
  403SOL    HW2 1994   0.238   2.984   3.083 -0.5080 -0.2695  0.4324
  404SOL     OW 1995   2.750   3.090   1.264  0.0484 -0.2760 -0.0425
  404SOL    HW1 1996   2.736   3.032   1.339 -0.1123 -0.7657 -0.4445
  404SOL    HW2 1997   2.731   3.177   1.297  0.8263 -0.3849  0.7166
  405SOL     OW 1998   0.559   1.825   3.111  0.1551  0.0249 -0.3283
  405SOL    HW1 1999   0.511   1.881   3.050 -1.2037  0.0532  0.7166
  405SOL    HW2 2000   0.649   1.857   3.108 -0.3263  1.4102 -0.7342
  406SOL     OW 2001   0.501   0.423   0.019  0.5636 -0.2447  0.1994
  406SOL    HW1 2002   0.493   0.439   0.113 -2.1052  1.8555 -0.2607
  406SOL    HW2 2003   0.428   0.364  -0.002 -0.1999  1.0130 -0.8207
  407SOL     OW 2004   3.168   2.295   1.574 -0.6187 -0.3559 -0.4306
  407SOL    HW1 2005   3.087   2.342   1.595  0.4261  1.1606  0.3859
  407SOL    HW2 2006   3.230   2.322   1.642  0.8366 -0.7967 -1.5177
  408SOL     OW 2007   2.714   2.043   2.648  0.4027  0.6942 -0.0097
  408SOL    HW1 2008   2.652   1.973   2.623  0.0029  0.2804  1.9465
  408SOL    HW2 2009   2.792   2.026   2.595 -0.1929 -0.4005 -0.5801
  409SOL     OW 2010   1.432   0.149   0.845  0.0016  0.1987  0.4223
  409SOL    HW1 2011   1.362   0.084   0.853 -0.1853  0.2304 -0.7431
  409SOL    HW2 2012   1.386   0.233   0.838  0.2081  0.3615  1.0162
  410SOL     OW 2013   0.536   2.309   2.725  0.2216 -0.1531  0.3979
  410SOL    HW1 2014   0.464   2.248   2.737  1.1878 -1.1875  1.0988
  410SOL    HW2 2015   0.551   2.311   2.631 -1.7151  1.2939  0.0588
  411SOL     OW 2016   1.827   1.844   0.535 -0.3748 -0.2711  0.5318
  411SOL    HW1 2017   1.922   1.845   0.536 -0.3477  0.2000 -0.7441
  411SOL    HW2 2018   1.802   1.903   0.607  0.3259  0.9280 -0.1762
  412SOL     OW 2019   0.147   0.579   3.303 -0.2677 -0.3202 -0.0258
  412SOL    HW1 2020   0.211   0.607   3.368 -0.1721 -1.8758  0.5922
  412SOL    HW2 2021   0.067   0.626   3.326  0.2457  0.5295  0.0808
  413SOL     OW 2022   0.602   2.816   1.566 -0.2656  0.0443 -0.2992
  413SOL    HW1 2023   0.525   2.759   1.568  0.3855 -0.9291 -1.4451
  413SOL    HW2 2024   0.653   2.785   1.491  1.1692  0.7628  0.3333
  414SOL     OW 2025   0.776   2.210   1.694 -0.2849 -0.0473  0.2236
  414SOL    HW1 2026   0.833   2.254   1.756  2.0971 -0.0261 -1.8295
  414SOL    HW2 2027   0.819   2.221   1.609 -3.8573  0.8028 -1.6719
  415SOL     OW 2028   0.003   1.833   3.127  0.3710  0.3581  0.2271
  415SOL    HW1 2029  -0.012   1.819   3.034 -0.4862 -1.0278  0.5502
  415SOL    HW2 2030   0.074   1.773   3.149 -0.8427 -0.8941  0.8722
  416SOL     OW 2031   2.150   1.372   0.877  0.1243  0.3303 -0.3989
  416SOL    HW1 2032   2.169   1.307   0.945 -0.3378 -1.6639 -2.0720
  416SOL    HW2 2033   2.057   1.392   0.888 -0.3521 -1.1728 -1.3212
  417SOL     OW 2034   2.774   0.121   0.759 -0.2180  0.2953 -0.0896
  417SOL    HW1 2035   2.772   0.096   0.852 -0.4441  1.1665  0.1475
  417SOL    HW2 2036   2.755   0.215   0.759 -0.5605  0.2326 -1.0506
  418SOL     OW 2037   1.402   1.467   0.576  0.0652  0.2447 -0.0150
  418SOL    HW1 2038   1.477   1.411   0.558  0.9235  0.9352  1.3008
  418SOL    HW2 2039   1.359   1.426   0.651 -2.0068 -1.1969 -1.8741
  419SOL     OW 2040   2.451   1.435   0.375  0.0474 -0.3697  0.3237
  419SOL    HW1 2041   2.453   1.499   0.303 -1.1191  0.9175  1.3623
  419SOL    HW2 2042   2.506   1.474   0.443 -1.6090  0.1691  1.4179
  420SOL     OW 2043   3.169   2.610   1.731 -0.4713  0.0863  0.4007
  420SOL    HW1 2044   3.223   2.531   1.738  1.5431  1.1842 -1.5535
  420SOL    HW2 2045   3.124   2.602   1.647 -1.9511  0.0740  1.1617
  421SOL     OW 2046   0.050   1.400   3.150 -0.2828 -0.2296 -0.0672
  421SOL    HW1 2047  -0.002   1.362   3.079 -0.2499 -0.5760  0.0935
  421SOL    HW2 2048  -0.007   1.396   3.226  0.2797 -1.3993  0.3064
  422SOL     OW 2049   1.420   0.126   1.935  0.2340 -0.0087 -0.4966
  422SOL    HW1 2050   1.403   0.091   2.022 -0.7182 -0.7853 -0.9824
  422SOL    HW2 2051   1.506   0.091   1.912  0.9381  0.9929  0.5032
  423SOL     OW 2052   1.110   3.156   1.596  0.0651 -0.4129  0.0460
  423SOL    HW1 2053   1.156   3.088   1.645 -0.0965 -0.1231  0.6039
  423SOL    HW2 2054   1.028   3.114   1.569 -0.8226  0.0708  1.8726
  424SOL     OW 2055   0.213   1.662   2.906  0.0253  0.0064 -0.0504
  424SOL    HW1 2056   0.188   1.655   2.998  1.2781  0.6784  0.3583
  424SOL    HW2 2057   0.257   1.579   2.887 -2.0360 -1.0137 -0.6622
  425SOL     OW 2058   1.504   0.723   0.151  0.3030  0.0997 -0.0807
  425SOL    HW1 2059   1.562   0.652   0.124 -1.0036 -1.2927  0.5822
  425SOL    HW2 2060   1.428   0.714   0.094  0.6357  1.8122 -0.8559
  426SOL     OW 2061   2.803   1.309   0.261 -0.1722 -0.0180  0.2722
  426SOL    HW1 2062   2.721   1.264   0.280 -0.3321 -0.2196 -0.8616
  426SOL    HW2 2063   2.780   1.375   0.196  0.8393 -1.1095 -1.2569
  427SOL     OW 2064   2.039   1.038   0.011  0.2768 -0.6300 -0.3054
  427SOL    HW1 2065   1.976   0.967   0.019 -1.8311  1.0373 -1.1365
  427SOL    HW2 2066   2.008   1.105   0.072  1.8108 -0.1330 -0.0327
  428SOL     OW 2067   2.552   1.853   2.576  0.2395  0.1569 -0.0377
  428SOL    HW1 2068   2.576   1.780   2.519  2.3350  1.1035 -0.5013
  428SOL    HW2 2069   2.536   1.812   2.661  0.3279 -0.9439 -0.5237
  429SOL     OW 2070   1.610   0.153   3.260 -0.1360 -0.3790  0.1472
  429SOL    HW1 2071   1.525   0.186   3.230 -0.2106 -0.1006  0.6584
  429SOL    HW2 2072   1.670   0.227   3.250 -0.1214 -0.3409  0.5195
  430SOL     OW 2073   1.305   3.319   3.309 -0.0504  0.3136  0.0311
  430SOL    HW1 2074   1.320   3.379   3.236 -0.0329  0.1503 -0.1026
  430SOL    HW2 2075   1.220   3.279   3.290  0.1485 -0.0399 -0.1234
  431SOL     OW 2076   2.386   3.290   2.970 -0.2140 -0.2339  0.0646
  431SOL    HW1 2077   2.382   3.365   2.911  0.8469 -0.5786 -0.4726
  431SOL    HW2 2078   2.436   3.321   3.045  0.1303 -0.3703 -0.1081
  432SOL     OW 2079   0.921   0.173   2.586  0.6654 -0.1610 -0.0926
  432SOL    HW1 2080   0.876   0.114   2.646  2.5314 -1.1780  0.4073
  432SOL    HW2 2081   0.854   0.201   2.523 -0.8171 -0.8560  1.1227
  433SOL     OW 2082   0.658   1.768   1.109  0.0511 -0.0093 -0.4485
  433SOL    HW1 2083   0.651   1.684   1.062  0.7246 -0.0770 -0.4447
  433SOL    HW2 2084   0.747   1.766   1.146  0.2709  0.9444 -0.9100
  434SOL     OW 2085   3.121   2.855   2.665  0.1680  0.5423 -0.3211
  434SOL    HW1 2086   3.211   2.877   2.643  0.7440 -2.6871 -1.6831
  434SOL    HW2 2087   3.072   2.869   2.584 -0.4565  1.5922  0.2158
  435SOL     OW 2088   0.573   0.656   0.840 -0.3495  0.2403  0.2153
  435SOL    HW1 2089   0.490   0.635   0.797 -1.2929  2.1541  0.9785
  435SOL    HW2 2090   0.612   0.725   0.787  1.2543 -1.2472 -0.6387
  436SOL     OW 2091   2.551   3.102   2.043  0.2925 -0.1331  0.3761
  436SOL    HW1 2092   2.625   3.048   2.072  0.4717 -0.0431  0.0906
  436SOL    HW2 2093   2.592   3.183   2.012 -0.0287  0.5326  1.6284
  437SOL     OW 2094   0.784   2.232   2.446 -0.2562  0.1722 -0.2353
  437SOL    HW1 2095   0.696   2.268   2.438 -0.5458 -0.5787 -0.5425
  437SOL    HW2 2096   0.810   2.211   2.357  0.4050  0.7793 -0.1878
  438SOL     OW 2097   1.680   0.250   0.841  0.6227 -0.0000 -0.1385
  438SOL    HW1 2098   1.653   0.326   0.790  1.2258  0.2292 -0.1351
  438SOL    HW2 2099   1.602   0.196   0.849  0.7848 -0.6645 -2.3752
  439SOL     OW 2100   2.728   0.423   1.074 -0.0713  0.6204 -0.5463
  439SOL    HW1 2101   2.711   0.364   1.148 -0.5814 -0.2768 -1.3638
  439SOL    HW2 2102   2.655   0.484   1.074 -0.3950  0.2336 -0.6840
  440SOL     OW 2103   2.473   1.719   1.363  0.6312 -0.0510 -0.2251
  440SOL    HW1 2104   2.405   1.779   1.395  0.1607 -0.2031 -0.9167
  440SOL    HW2 2105   2.436   1.681   1.283  1.2869 -0.5979 -0.2778
  441SOL     OW 2106   1.593   2.816   3.031  0.3759  0.4281  0.3230
  441SOL    HW1 2107   1.602   2.744   2.970  0.4746  0.6158  0.1138
  441SOL    HW2 2108   1.586   2.894   2.975  1.6289  0.7319  0.5676
  442SOL     OW 2109   0.346   0.168   1.868  0.0016  0.5421 -0.1049
  442SOL    HW1 2110   0.295   0.159   1.949  0.6973  0.0786  0.2965
  442SOL    HW2 2111   0.435   0.189   1.898  0.2299  0.5351 -0.7582
  443SOL     OW 2112   0.244   2.386   1.699 -0.0795 -0.3352  0.0923
  443SOL    HW1 2113   0.218   2.335   1.623  0.4531 -1.6514  0.7712
  443SOL    HW2 2114   0.338   2.369   1.710  0.0095  0.4027  0.6254
  444SOL     OW 2115   3.157   2.203   1.952  0.1249  0.4447  0.6420
  444SOL    HW1 2116   3.117   2.143   2.015  1.4756 -3.8453 -2.1133
  444SOL    HW2 2117   3.085   2.230   1.896 -0.1410 -1.3392  0.0429
  445SOL     OW 2118   3.206   3.310   2.701  0.0015  0.1681 -0.0425
  445SOL    HW1 2119   3.152   3.246   2.748  2.0373 -1.3219  0.4214
  445SOL    HW2 2120   3.154   3.390   2.703 -2.2481 -1.1928  0.1924
  446SOL     OW 2121   2.332   3.119   0.229  0.0350 -0.0156 -0.2474
  446SOL    HW1 2122   2.273   3.099   0.156 -1.0587  0.8170  0.3747
  446SOL    HW2 2123   2.345   3.035   0.273 -0.0311 -0.3591 -0.8756
  447SOL     OW 2124   1.340   0.666   3.246 -0.3940  0.6167  0.0153
  447SOL    HW1 2125   1.386   0.722   3.184 -0.2536 -0.8596 -1.3007
  447SOL    HW2 2126   1.247   0.677   3.224 -0.3967  0.6938  0.0673
  448SOL     OW 2127   2.637   2.091   1.188 -0.1985  0.1348 -0.0847
  448SOL    HW1 2128   2.543   2.107   1.197 -0.0373  0.3527  1.6071
  448SOL    HW2 2129   2.658   2.120   1.100 -1.2483  2.6800  0.3997
  449SOL     OW 2130   1.231   2.676   2.078  0.2311  0.1654  0.0865
  449SOL    HW1 2131   1.268   2.611   2.138 -1.2526  0.2253  1.1398
  449SOL    HW2 2132   1.226   2.631   1.994  0.2558 -0.7171  0.5451
  450SOL     OW 2133   2.110   3.288   0.765 -0.0769  0.3464  0.3892
  450SOL    HW1 2134   2.155   3.203   0.764 -0.0835  0.3489 -0.2410
  450SOL    HW2 2135   2.088   3.305   0.674 -0.5098  0.8004  0.5720
  451SOL     OW 2136   2.099   2.826   2.920  0.5440  0.1768 -0.2239
  451SOL    HW1 2137   2.129   2.909   2.883 -2.5857  0.8776 -1.4411
  451SOL    HW2 2138   2.052   2.851   3.000  0.7935 -0.5795  0.1651
  452SOL     OW 2139   1.206   3.237   1.337 -0.0288 -0.3014  0.2539
  452SOL    HW1 2140   1.150   3.184   1.281 -0.6651  0.8769 -0.2493
  452SOL    HW2 2141   1.228   3.179   1.410  0.0151 -1.5405 -0.7047
  453SOL     OW 2142   1.834   2.079   2.841 -0.1638  0.2927 -0.0769
  453SOL    HW1 2143   1.838   2.140   2.914 -1.3834 -0.2283  0.4623
  453SOL    HW2 2144   1.863   1.995   2.878 -0.7211  0.0429 -0.1855
  454SOL     OW 2145   3.014   2.812   2.184 -0.0429  0.2787 -0.0148
  454SOL    HW1 2146   3.061   2.728   2.191 -0.4751 -0.1133 -1.4654
  454SOL    HW2 2147   3.082   2.876   2.166  0.4141  0.4353  2.0438
  455SOL     OW 2148   1.610   2.519   2.033  0.2246 -0.3393 -0.3849
  455SOL    HW1 2149   1.640   2.602   2.070 -0.0752 -0.6973  0.7113
  455SOL    HW2 2150   1.521   2.509   2.066 -0.5525 -0.0751 -2.2685
  456SOL     OW 2151   0.543   1.122   1.262  0.2195  0.1633  0.5978
  456SOL    HW1 2152   0.598   1.115   1.184 -0.4892 -1.2324  0.2104
  456SOL    HW2 2153   0.606   1.136   1.333  1.0765 -1.0494  0.1107
  457SOL     OW 2154   1.215   2.090   2.113 -0.0951 -0.1313  0.1921
  457SOL    HW1 2155   1.293   2.072   2.165  0.2186 -0.3346 -0.3412
  457SOL    HW2 2156   1.143   2.086   2.176  0.1953 -1.1387  0.4763
  458SOL     OW 2157   3.312   1.221   0.292  0.5231  0.1872  0.2539
  458SOL    HW1 2158   3.251   1.215   0.366  0.4496  1.4141  0.3160
  458SOL    HW2 2159   3.388   1.266   0.327  1.5577 -1.4498  0.2031
  459SOL     OW 2160   2.285   3.298   1.338 -0.0321 -0.3082 -0.1878
  459SOL    HW1 2161   2.322   3.210   1.335 -0.9193 -0.6699 -1.1801
  459SOL    HW2 2162   2.201   3.286   1.382 -0.5188 -0.1199 -1.0370
  460SOL     OW 2163   0.919   2.908   1.762  0.2654 -0.0757  0.2738
  460SOL    HW1 2164   1.012   2.929   1.769  0.5032 -1.1429  0.5138
  460SOL    HW2 2165   0.890   2.952   1.681  1.2159 -0.5513 -0.3421
  461SOL     OW 2166   1.173   0.383   0.128  0.1110  0.3623  0.4703
  461SOL    HW1 2167   1.264   0.362   0.145 -0.2643 -0.3081  1.7931
  461SOL    HW2 2168   1.160   0.470   0.166  0.2775  0.6080 -0.0281
  462SOL     OW 2169   0.832   0.295   1.262  0.2040  0.5720 -0.4732
  462SOL    HW1 2170   0.904   0.249   1.218 -0.5968 -1.6527  0.4162
  462SOL    HW2 2171   0.875   0.360   1.317  1.6753 -1.4158  0.8541
  463SOL     OW 2172   3.221   2.324   2.467  0.2724  0.4071 -0.0705
  463SOL    HW1 2173   3.203   2.412   2.498 -0.5392 -0.0651  0.8426
  463SOL    HW2 2174   3.134   2.287   2.449  0.6782  0.6701 -3.0296
  464SOL     OW 2175   2.880   2.167   3.206 -0.0585  0.3689 -0.8552
  464SOL    HW1 2176   2.911   2.097   3.264  1.8337  0.7901 -1.3083
  464SOL    HW2 2177   2.932   2.158   3.127  0.2818  2.3370 -0.8930
  465SOL     OW 2178   1.156   2.526   2.636  0.3367 -0.4239  0.1415
  465SOL    HW1 2179   1.106   2.471   2.576 -0.2910  0.2444  0.0411
  465SOL    HW2 2180   1.147   2.615   2.601 -0.7510  0.1115  1.6679
  466SOL     OW 2181   0.264   1.922   2.831 -0.6093  0.2029  0.0732
  466SOL    HW1 2182   0.242   1.830   2.844  0.0125 -0.3447 -2.3149
  466SOL    HW2 2183   0.181   1.969   2.844 -0.8307 -0.5753  1.8086
  467SOL     OW 2184   2.013   1.127   0.477 -0.4154 -0.2297  0.3161
  467SOL    HW1 2185   1.961   1.048   0.465 -1.1946  0.2917  0.1890
  467SOL    HW2 2186   1.985   1.162   0.561  1.9392 -1.5553  1.7711
  468SOL     OW 2187   0.931   0.472   0.937 -0.2210 -0.0271  0.4779
  468SOL    HW1 2188   0.938   0.517   1.022  1.4920  0.7144 -0.0071
  468SOL    HW2 2189   0.905   0.540   0.876  1.3073  0.1105 -0.0664
  469SOL     OW 2190   0.387   1.838   1.156  0.0943 -0.2108  0.9385
  469SOL    HW1 2191   0.346   1.790   1.228  0.9535  0.0105  1.5777
  469SOL    HW2 2192   0.472   1.797   1.144  0.2619  0.2424  0.5385
  470SOL     OW 2193   3.088   2.600   1.469  0.3135  0.1510  0.4137
  470SOL    HW1 2194   3.129   2.579   1.385 -0.7003  1.5379 -0.4562
  470SOL    HW2 2195   3.033   2.524   1.489  0.4707 -0.1352 -0.2198
  471SOL     OW 2196   2.278   2.343   3.051 -0.0359  0.3476  0.1968
  471SOL    HW1 2197   2.362   2.322   3.010 -0.2456 -0.2400  0.0595
  471SOL    HW2 2198   2.250   2.423   3.006  0.6873  0.8514  0.6071
  472SOL     OW 2199   0.713   0.589   0.344  0.3601  0.2301  0.0399
  472SOL    HW1 2200   0.673   0.625   0.265  0.4744 -0.6908 -0.4526
  472SOL    HW2 2201   0.657   0.516   0.369  2.0314 -1.5274 -1.0686
  473SOL     OW 2202   0.706   1.366   0.624 -0.0705 -0.5012  0.6191
  473SOL    HW1 2203   0.644   1.396   0.690  1.0778  1.1944  0.9823
  473SOL    HW2 2204   0.652   1.351   0.546 -0.9101  1.2707  0.8194
  474SOL     OW 2205   3.216   3.096   1.413  0.1617 -0.3023 -0.2916
  474SOL    HW1 2206   3.237   3.023   1.472  0.5395  0.0164 -0.0291
  474SOL    HW2 2207   3.287   3.096   1.349  0.7609  0.5059  0.3446
  475SOL     OW 2208   3.279   0.896   0.449  0.3209 -0.2422 -0.0006
  475SOL    HW1 2209   3.333   0.887   0.370 -0.1822  0.5149 -0.4445
  475SOL    HW2 2210   3.336   0.942   0.511  0.1053  0.8607 -0.5835
  476SOL     OW 2211   2.903   1.663   1.050 -0.3070  0.2150  0.6531
  476SOL    HW1 2212   2.834   1.727   1.069 -0.3172  0.2025  0.6573
  476SOL    HW2 2213   2.885   1.590   1.109 -0.3996  0.1329  0.5237
  477SOL     OW 2214   1.338   3.278   2.546  0.2948  0.2865 -0.0164
  477SOL    HW1 2215   1.303   3.264   2.634  1.0237  0.6967  0.3571
  477SOL    HW2 2216   1.262   3.292   2.491 -0.2215 -0.8420  0.3823
  478SOL     OW 2217   3.208   1.394   0.058  0.2667 -0.1997  0.2721
  478SOL    HW1 2218   3.132   1.451   0.043  0.6382  0.4514  0.8130
  478SOL    HW2 2219   3.172   1.316   0.100 -0.2956 -0.5353 -0.7793
  479SOL     OW 2220   2.347   1.820   3.043 -0.4708  0.5857  0.0527
  479SOL    HW1 2221   2.262   1.862   3.030 -0.7755  0.5708  1.7967
  479SOL    HW2 2222   2.332   1.755   3.111  0.7420 -0.0556 -0.2636
  480SOL     OW 2223   0.272   0.019   2.251 -0.2659  0.0760 -0.1753
  480SOL    HW1 2224   0.209   0.069   2.200  0.7383  1.1630 -0.3958
  480SOL    HW2 2225   0.275   0.062   2.336  0.7982  0.5977 -0.4521
  481SOL     OW 2226   2.644   2.666   2.843  0.0050  0.3696 -0.1929
  481SOL    HW1 2227   2.646   2.708   2.929 -0.2043  0.5092 -0.2550
  481SOL    HW2 2228   2.668   2.575   2.860  0.8982  0.6138 -0.1170
  482SOL     OW 2229   1.255   1.969   2.627 -0.0449 -0.1907 -0.2006
  482SOL    HW1 2230   1.245   1.897   2.689  1.7157  0.6399  1.1488
  482SOL    HW2 2231   1.171   2.015   2.628 -0.7221 -1.4006 -0.0418
  483SOL     OW 2232   2.024   0.062   1.365  0.1203 -0.0432 -0.4221
  483SOL    HW1 2233   2.092   0.108   1.316 -0.8336  1.3722 -0.4824
  483SOL    HW2 2234   1.964   0.131   1.392 -1.0798 -1.2106 -0.0235
  484SOL     OW 2235   1.956   1.217   0.221  0.0435 -0.0732 -0.5493
  484SOL    HW1 2236   1.975   1.187   0.310 -0.6406  1.9701  0.3634
  484SOL    HW2 2237   2.017   1.289   0.206  1.4334 -1.5444 -2.5363
  485SOL     OW 2238   1.657   1.202   1.020  0.0441  0.3232 -0.0987
  485SOL    HW1 2239   1.563   1.219   1.032  0.1407 -0.0536  1.3971
  485SOL    HW2 2240   1.666   1.107   1.030  0.5618  0.3222 -0.4982
  486SOL     OW 2241   2.654   0.585   3.002  0.4655  0.7419 -0.1449
  486SOL    HW1 2242   2.667   0.662   2.946 -0.1701  1.6943  0.9757
  486SOL    HW2 2243   2.637   0.621   3.089 -2.7758 -0.5401 -0.1121
  487SOL     OW 2244   1.828   0.172   1.122 -0.2359  0.0559  0.0967
  487SOL    HW1 2245   1.891   0.243   1.117 -0.5501  0.3539  0.4001
  487SOL    HW2 2246   1.849   0.117   1.046  0.4976  0.0563  0.2918
  488SOL     OW 2247   1.411   0.331   0.229 -0.4239  0.3615 -0.3216
  488SOL    HW1 2248   1.423   0.360   0.319  0.6477  0.8386 -0.5965
  488SOL    HW2 2249   1.442   0.241   0.227 -2.7234 -0.5050  0.2926
  489SOL     OW 2250   0.874   2.012   0.578  0.0329  0.1818  0.0377
  489SOL    HW1 2251   0.862   1.929   0.623 -0.3783 -0.1663 -0.6874
  489SOL    HW2 2252   0.828   2.076   0.632  0.0821 -0.1205  0.4368
  490SOL     OW 2253   2.425   0.301   0.205 -0.7447 -0.5232  0.4996
  490SOL    HW1 2254   2.430   0.206   0.215 -1.9180 -0.7356 -0.6231
  490SOL    HW2 2255   2.359   0.328   0.268  0.0511 -0.3492  1.2769
  491SOL     OW 2256   2.646   2.748   3.181 -0.3218 -0.0821 -0.1418
  491SOL    HW1 2257   2.598   2.789   3.253  1.5051 -0.7149  1.5141
  491SOL    HW2 2258   2.650   2.655   3.204 -0.4295 -0.4493 -1.5086
  492SOL     OW 2259   1.609   1.900   0.984  0.6082 -0.2706  0.2662
  492SOL    HW1 2260   1.664   1.841   1.037  1.1022  1.3754  1.6834
  492SOL    HW2 2261   1.520   1.884   1.016  0.8627  0.4813  1.4257
  493SOL     OW 2262   1.841   0.846   0.024 -0.1182 -0.0858 -0.3874
  493SOL    HW1 2263   1.780   0.879   0.090 -0.1638  0.1645 -0.5521
  493SOL    HW2 2264   1.834   0.751   0.029 -0.8401 -0.0499 -0.7056
  494SOL     OW 2265   0.935   0.176   1.950  0.2673 -0.1512  0.6471
  494SOL    HW1 2266   0.892   0.253   1.988  2.1039  0.2168  2.1015
  494SOL    HW2 2267   1.015   0.210   1.911  0.9422 -1.2848  1.0218
  495SOL     OW 2268   0.191   2.491   2.053  0.1084  0.4342  0.4786
  495SOL    HW1 2269   0.142   2.573   2.054 -1.4506 -0.2257 -3.5670
  495SOL    HW2 2270   0.125   2.423   2.060  0.9019 -0.4775 -0.5260
  496SOL     OW 2271   3.303   0.225   3.303 -0.5331  0.3564  0.2487
  496SOL    HW1 2272   3.383   0.278   3.306  0.8188 -1.6097  0.2789
  496SOL    HW2 2273   3.291   0.194   3.392 -1.8165  1.2699  0.4182
  497SOL     OW 2274   3.316   1.568   1.339  0.0485 -0.0409  0.0483
  497SOL    HW1 2275   3.242   1.617   1.375 -0.9036 -1.3127 -0.0913
  497SOL    HW2 2276   3.302   1.478   1.370  0.8047 -0.5672 -1.0820
  498SOL     OW 2277   1.006   2.579   2.240  0.0848  0.7243  0.0190
  498SOL    HW1 2278   1.059   2.606   2.166  1.7318  0.6721  1.1334
  498SOL    HW2 2279   0.962   2.659   2.269  1.1997  1.2368  0.3524
  499SOL     OW 2280   1.339   2.680   1.425  0.0939  0.5194 -0.6386
  499SOL    HW1 2281   1.335   2.689   1.520 -1.2798 -0.8097 -0.5361
  499SOL    HW2 2282   1.320   2.588   1.408  0.7068  0.6387 -2.1987
  500SOL     OW 2283   2.855   0.815   0.061  0.4112  0.1059  0.1214
  500SOL    HW1 2284   2.835   0.861   0.142 -1.8290 -0.7263  0.1248
  500SOL    HW2 2285   2.918   0.747   0.087  0.8729  0.8016  0.8462
  501SOL     OW 2286   2.033   1.610   0.770 -0.0568 -0.4386  0.1839
  501SOL    HW1 2287   2.099   1.555   0.812  0.7708  0.8565  0.6499
  501SOL    HW2 2288   1.982   1.646   0.842  1.4454  1.8909  0.1926
  502SOL     OW 2289   2.146   2.013   2.192  0.3259 -0.4675 -0.1977
  502SOL    HW1 2290   2.177   2.055   2.112  1.8646  2.5764  1.7924
  502SOL    HW2 2291   2.088   2.077   2.232  1.0828 -1.0858  2.0181
  503SOL     OW 2292   0.662   2.659   1.145  0.4514 -0.0293  0.1362
  503SOL    HW1 2293   0.713   2.740   1.143  1.8152 -0.8660 -1.9082
  503SOL    HW2 2294   0.683   2.620   1.230  0.4220  1.3348  0.8018
  504SOL     OW 2295   1.710   1.607   0.527  0.2048  0.3504  0.5574
  504SOL    HW1 2296   1.761   1.685   0.549 -0.2215  0.7202  0.2549
  504SOL    HW2 2297   1.628   1.642   0.490  0.4569 -0.2415 -0.5919
  505SOL     OW 2298   3.135   1.644   2.628  0.2988  0.3602 -0.2951
  505SOL    HW1 2299   3.082   1.564   2.628  1.8359 -0.7068  0.3648
  505SOL    HW2 2300   3.222   1.616   2.658  1.4285  1.9173 -1.8397
  506SOL     OW 2301   2.326   0.525   0.020  0.5878 -0.2014 -0.5423
  506SOL    HW1 2302   2.309   0.618   0.005  0.7640 -0.4319 -2.4549
  506SOL    HW2 2303   2.241   0.488   0.042  0.5257  0.4143  0.2831
  507SOL     OW 2304   3.255   1.199   2.595 -0.0567  0.4410  0.2938
  507SOL    HW1 2305   3.262   1.232   2.506  1.8466  0.2092  0.3245
  507SOL    HW2 2306   3.239   1.105   2.586 -0.9965  0.5982  0.2172
  508SOL     OW 2307   2.634   1.617   2.480  0.4519  0.5348 -0.0993
  508SOL    HW1 2308   2.624   1.528   2.445 -0.2662  0.3823  0.4637
  508SOL    HW2 2309   2.696   1.608   2.552  0.0114  0.3928  0.2694
  509SOL     OW 2310   1.824   0.054   0.146 -0.3550 -0.1739 -0.5217
  509SOL    HW1 2311   1.806  -0.037   0.172  0.1677 -0.7072 -1.9362
  509SOL    HW2 2312   1.772   0.067   0.067  2.4661 -0.5809 -2.6117
  510SOL     OW 2313   2.215   1.356   2.696  0.2421 -0.0043 -0.4614
  510SOL    HW1 2314   2.261   1.348   2.780 -0.2012  0.7629 -0.1417
  510SOL    HW2 2315   2.229   1.446   2.669 -1.8498  0.5603  0.1193
  511SOL     OW 2316   2.377   2.185   0.733  0.5821 -0.5421  0.5952
  511SOL    HW1 2317   2.394   2.113   0.794 -0.2603 -1.0493  0.2522
  511SOL    HW2 2318   2.310   2.237   0.776  0.2263 -0.7166  0.2608
  512SOL     OW 2319   1.448   1.625   2.864 -0.1817 -0.2426 -0.2639
  512SOL    HW1 2320   1.491   1.650   2.782  1.6470  1.5993  1.1393
  512SOL    HW2 2321   1.453   1.529   2.865  1.2601 -0.2202 -1.5363
  513SOL     OW 2322   1.383   3.178   1.123 -0.3945  0.4426  0.1237
  513SOL    HW1 2323   1.347   3.206   1.207  1.2187 -0.4150  1.1512
  513SOL    HW2 2324   1.471   3.217   1.120 -0.4724  0.5740 -1.2407
  514SOL     OW 2325   0.651   2.919   2.143 -0.4008 -0.1246  0.2518
  514SOL    HW1 2326   0.615   2.850   2.087 -0.0779 -0.1436  0.0662
  514SOL    HW2 2327   0.701   2.974   2.083  0.7290 -0.6714  0.6637
  515SOL     OW 2328   2.675   1.775   3.226  0.0795 -0.5526  0.3916
  515SOL    HW1 2329   2.753   1.806   3.272  0.2526 -0.0110 -0.2494
  515SOL    HW2 2330   2.603   1.824   3.266  0.3142  0.4865 -0.3944
  516SOL     OW 2331   1.602   2.169   1.601 -0.0550 -0.1451  0.2017
  516SOL    HW1 2332   1.648   2.152   1.683  0.2850 -0.0252  0.0384
  516SOL    HW2 2333   1.667   2.154   1.533  0.1353  1.3147  0.0314
  517SOL     OW 2334   0.646   0.188   1.464  0.6744  0.3250  0.5296
  517SOL    HW1 2335   0.695   0.195   1.546  0.7180 -0.0585  0.5382
  517SOL    HW2 2336   0.702   0.229   1.398  2.8653 -3.4362 -0.2592
  518SOL     OW 2337   2.777   2.916   2.100 -0.1433 -0.5568 -0.1285
  518SOL    HW1 2338   2.711   2.882   2.161 -0.1556  2.0351  1.4243
  518SOL    HW2 2339   2.861   2.890   2.139 -0.1724  0.4716  0.6770
  519SOL     OW 2340   0.960   0.179   0.915  0.2102 -0.0011  0.2110
  519SOL    HW1 2341   0.907   0.162   0.994 -0.1081 -0.1145 -0.0260
  519SOL    HW2 2342   0.966   0.275   0.911  1.0784 -0.0038  0.9320
  520SOL     OW 2343   1.401   0.502   0.777  0.3453  0.1536  0.2558
  520SOL    HW1 2344   1.401   0.577   0.836 -0.3338  1.3589 -1.1798
  520SOL    HW2 2345   1.318   0.457   0.794 -0.1374  0.8589 -0.1906
  521SOL     OW 2346   0.556   2.334   1.424 -0.1609  0.1546 -0.2844
  521SOL    HW1 2347   0.611   2.312   1.348 -0.3866 -0.1043 -0.3733
  521SOL    HW2 2348   0.471   2.355   1.386 -1.0743 -2.5261  0.0424
  522SOL     OW 2349   1.735   1.177   0.042  0.2254 -0.1960 -0.0699
  522SOL    HW1 2350   1.673   1.248   0.061  1.3818  1.1416 -1.0387
  522SOL    HW2 2351   1.807   1.191   0.103 -0.0499 -1.2527  0.5127
  523SOL     OW 2352   1.181   3.095   2.252  0.0627  0.2853 -0.1301
  523SOL    HW1 2353   1.166   3.049   2.334 -0.5497  0.2660 -0.2520
  523SOL    HW2 2354   1.097   3.136   2.231  0.3803  0.7945 -0.4369
  524SOL     OW 2355   0.866   0.306   2.918 -0.7459 -0.5614 -0.2288
  524SOL    HW1 2356   0.812   0.283   2.994  0.4270 -2.5492  0.0830
  524SOL    HW2 2357   0.804   0.309   2.845 -1.3199 -3.3576  0.0088
  525SOL     OW 2358   2.522   1.464   3.205 -0.2960 -0.2818 -0.3770
  525SOL    HW1 2359   2.455   1.531   3.219  0.3946  0.3363  0.0627
  525SOL    HW2 2360   2.550   1.476   3.114 -0.0830  0.1228 -0.2610
  526SOL     OW 2361   1.230   1.540   1.226 -0.0458 -0.1584 -0.7081
  526SOL    HW1 2362   1.314   1.494   1.229  0.5195  0.8201  1.5994
  526SOL    HW2 2363   1.219   1.573   1.315 -2.9323 -0.2801 -0.9279
  527SOL     OW 2364   2.950   2.188   2.837 -0.1830 -0.9612 -0.3149
  527SOL    HW1 2365   2.959   2.278   2.807 -0.3538 -0.4767  1.0059
  527SOL    HW2 2366   3.013   2.180   2.908 -0.9400 -1.5265  0.3183
  528SOL     OW 2367   3.245   1.198   2.960 -0.0423 -0.9353  0.2162
  528SOL    HW1 2368   3.253   1.122   3.018 -0.1331 -0.5812  0.6995
  528SOL    HW2 2369   3.151   1.218   2.960 -0.0407 -0.9230 -0.0422
  529SOL     OW 2370   1.046   0.053   0.655  0.0028 -0.2797  0.1275
  529SOL    HW1 2371   1.094   0.118   0.602  2.8345 -2.4366 -0.2182
  529SOL    HW2 2372   1.072   0.071   0.745 -0.7014  0.1941  0.2413
  530SOL     OW 2373   0.305   0.176   2.476 -0.1496 -0.3130 -0.1920
  530SOL    HW1 2374   0.235   0.215   2.424 -0.4891  0.3210  0.7108
  530SOL    HW2 2375   0.277   0.187   2.567  0.7213 -0.8290  0.1600
  531SOL     OW 2376   0.776   0.390   2.041 -0.1133 -0.3878 -0.1799
  531SOL    HW1 2377   0.780   0.427   1.952 -4.2432  0.1579 -0.3457
  531SOL    HW2 2378   0.756   0.464   2.097  0.7983 -0.9974  0.9931
  532SOL     OW 2379   2.542   0.055   3.210 -0.3706 -0.2649  0.0027
  532SOL    HW1 2380   2.541   0.150   3.218 -0.1155 -0.3676  1.4691
  532SOL    HW2 2381   2.516   0.023   3.296  0.8151 -1.5317 -0.0796
  533SOL     OW 2382   3.260   0.740   0.052 -0.3113  0.1351 -0.4223
  533SOL    HW1 2383   3.171   0.709   0.071 -0.3991  0.0139 -1.0075
  533SOL    HW2 2384   3.286   0.788   0.130 -0.9735  0.3544 -0.3317
  534SOL     OW 2385   2.177   2.660   1.020 -0.2024  0.0786 -0.2573
  534SOL    HW1 2386   2.103   2.673   1.079 -1.4942 -1.6697 -1.3974
  534SOL    HW2 2387   2.165   2.572   0.985  2.0769 -0.0153 -0.9937
  535SOL     OW 2388   2.561   2.527   1.935  0.0172  0.3684  0.0047
  535SOL    HW1 2389   2.525   2.507   1.849 -1.0733 -0.6491  0.6687
  535SOL    HW2 2390   2.535   2.618   1.952 -0.9325  0.1365 -0.1735
  536SOL     OW 2391   0.230   3.267   1.447 -0.0112  0.6876  0.1070
  536SOL    HW1 2392   0.284   3.341   1.418  2.4762 -1.1124 -0.1728
  536SOL    HW2 2393   0.206   3.289   1.537  0.4518  1.9365 -0.0491
  537SOL     OW 2394   0.652   3.165   2.570 -0.1173  0.1022  0.3937
  537SOL    HW1 2395   0.596   3.243   2.565 -1.2302 -0.7304 -2.5555
  537SOL    HW2 2396   0.714   3.184   2.640  1.0078  4.5358 -1.4310
  538SOL     OW 2397   2.338   1.204   2.502 -0.3975  0.1278  0.2339
  538SOL    HW1 2398   2.277   1.132   2.485 -1.7119  0.7878  1.8893
  538SOL    HW2 2399   2.289   1.264   2.559  1.4480  1.2210  0.7420
  539SOL     OW 2400   2.539   1.554   0.649  0.0523  0.0191 -0.0869
  539SOL    HW1 2401   2.555   1.635   0.696  0.3974 -0.5050  0.7324
  539SOL    HW2 2402   2.446   1.537   0.661 -0.3137  0.9747 -1.4072
  540SOL     OW 2403   1.100   0.834   0.849 -0.9039 -0.1976 -0.1770
  540SOL    HW1 2404   1.050   0.756   0.827 -0.8738 -0.3400  0.2513
  540SOL    HW2 2405   1.123   0.873   0.765 -1.7194 -0.1392 -0.3822
  541SOL     OW 2406   2.437   3.204   0.657  0.1567 -0.5419  0.7511
  541SOL    HW1 2407   2.525   3.168   0.651 -0.0591 -0.8974 -0.7735
  541SOL    HW2 2408   2.388   3.140   0.709  0.2716 -1.4909 -0.2595
  542SOL     OW 2409   2.332   0.374   0.910 -0.0477  0.7927  0.1399
  542SOL    HW1 2410   2.287   0.290   0.913  1.3877 -0.3740 -4.0051
  542SOL    HW2 2411   2.266   0.437   0.880 -0.0100  0.0438 -1.5719
  543SOL     OW 2412   0.207   2.111   2.253  0.1374 -0.2239 -0.2251
  543SOL    HW1 2413   0.197   2.122   2.347  2.1484  0.6078 -0.0791
  543SOL    HW2 2414   0.201   2.016   2.239 -1.0849 -0.2859  0.5895
  544SOL     OW 2415   0.800   0.328   0.114 -0.5608 -0.4652  0.2850
  544SOL    HW1 2416   0.781   0.416   0.081  0.2734  0.0484  1.1284
  544SOL    HW2 2417   0.870   0.296   0.057  0.5752  0.2518  1.2240
  545SOL     OW 2418   0.007   2.705   2.325  0.3293 -0.0983 -0.2479
  545SOL    HW1 2419  -0.057   2.658   2.272  1.0436 -0.9410 -0.3903
  545SOL    HW2 2420   0.066   2.747   2.261  1.7115 -1.8306 -0.1786
  546SOL     OW 2421   0.047   1.453   1.048  0.1016 -0.0463  0.0953
  546SOL    HW1 2422  -0.035   1.496   1.024  0.9191  1.0981 -0.8139
  546SOL    HW2 2423   0.064   1.481   1.138 -1.5968 -2.1264  1.1495
  547SOL     OW 2424   2.207   2.212   2.663  0.3509 -0.1129 -0.0677
  547SOL    HW1 2425   2.254   2.129   2.651  0.0346 -0.2778 -0.1894
  547SOL    HW2 2426   2.125   2.200   2.616  0.0719  0.0760  0.3615
  548SOL     OW 2427   0.393   1.533   1.189  0.5555  0.3541 -0.2439
  548SOL    HW1 2428   0.478   1.491   1.202  1.1977  1.4142 -0.8535
  548SOL    HW2 2429   0.390   1.601   1.257 -0.0567 -0.0422  0.1297
  549SOL     OW 2430   1.561   2.447   1.774 -0.0764  0.5830 -0.0967
  549SOL    HW1 2431   1.600   2.360   1.783  2.3009  1.2807 -2.3777
  549SOL    HW2 2432   1.568   2.486   1.861  1.2163 -0.6008  0.3668
  550SOL     OW 2433   1.903   2.644   0.882  0.0536  0.2192 -0.2401
  550SOL    HW1 2434   1.900   2.685   0.969 -0.7181 -0.2771 -0.0243
  550SOL    HW2 2435   1.962   2.700   0.832  0.4296  0.5744  0.5711
  551SOL     OW 2436   2.944   1.918   0.311  0.0054 -0.0667 -0.2337
  551SOL    HW1 2437   2.940   2.006   0.350 -0.7668  0.0330 -0.5178
  551SOL    HW2 2438   2.999   1.868   0.371  3.2532  1.4290 -1.7137
  552SOL     OW 2439   2.787   0.638   0.658 -0.6341 -0.3579  0.0627
  552SOL    HW1 2440   2.798   0.612   0.566 -0.8020 -0.3860  0.0499
  552SOL    HW2 2441   2.805   0.732   0.659  0.8855 -0.6294  0.2662
  553SOL     OW 2442   2.937   2.422   1.650  0.0664 -0.5656  1.0835
  553SOL    HW1 2443   2.881   2.499   1.661  1.6643  0.9909 -0.7865
  553SOL    HW2 2444   2.918   2.367   1.726 -0.5637  2.0454  2.9628
  554SOL     OW 2445   2.433   2.379   1.713 -0.4034 -0.0570  0.0792
  554SOL    HW1 2446   2.341   2.386   1.687 -0.1107 -0.7366 -1.2113
  554SOL    HW2 2447   2.482   2.402   1.635  0.5077 -1.4978  0.1860
  555SOL     OW 2448   0.548   0.698   0.143 -0.0287 -0.1817  0.3141
  555SOL    HW1 2449   0.523   0.681   0.052  0.3878 -0.4314  0.2447
  555SOL    HW2 2450   0.569   0.792   0.146 -1.0640  0.0579  0.3982
  556SOL     OW 2451   1.823   2.398   2.160  0.1629 -0.0640  0.2191
  556SOL    HW1 2452   1.741   2.440   2.134  0.4112 -0.3226 -1.0245
  556SOL    HW2 2453   1.858   2.455   2.228  0.1380  1.3926 -0.9395
  557SOL     OW 2454   0.062   2.781   1.414 -0.3883  0.1648 -0.2111
  557SOL    HW1 2455   0.129   2.805   1.478  0.4433 -1.7520 -0.2880
  557SOL    HW2 2456  -0.011   2.748   1.466  0.2209 -1.2335 -0.2035
  558SOL     OW 2457   1.569   1.099   0.519  0.3982  0.0779  0.5619
  558SOL    HW1 2458   1.611   1.181   0.490  2.3244 -0.8269  0.6035
  558SOL    HW2 2459   1.626   1.068   0.589  0.2523 -1.7716 -0.0984
  559SOL     OW 2460   0.813   0.456   1.787 -0.5044  0.6430  0.0162
  559SOL    HW1 2461   0.786   0.476   1.697  0.4332 -0.1167 -0.4520
  559SOL    HW2 2462   0.905   0.483   1.791 -0.2118 -0.3836  0.3970
  560SOL     OW 2463   1.943   2.375   1.569  0.1525  0.5691  0.2061
  560SOL    HW1 2464   1.861   2.389   1.523  0.3972  0.1578 -0.3643
  560SOL    HW2 2465   1.932   2.291   1.614  0.6810 -0.0696 -0.8289
  561SOL     OW 2466   1.106   1.216   1.149  0.1020  0.3294  0.0343
  561SOL    HW1 2467   1.051   1.292   1.130 -0.3045  0.6164  2.1032
  561SOL    HW2 2468   1.101   1.162   1.070 -0.8433  1.7057 -0.8880
  562SOL     OW 2469   0.554   0.047   2.195  0.0245  0.0089 -0.0192
  562SOL    HW1 2470   0.600  -0.034   2.217 -0.1298 -0.6656 -2.0007
  562SOL    HW2 2471   0.462   0.028   2.216  0.2074  0.2948  1.1068
  563SOL     OW 2472   1.934   0.081   1.667 -0.0634  1.0148  0.4048
  563SOL    HW1 2473   1.943   0.163   1.619 -1.3081 -0.1652 -2.0285
  563SOL    HW2 2474   2.023   0.056   1.689  0.4724  2.0828 -0.4707
  564SOL     OW 2475   0.462   0.304   0.810 -0.0222  0.1690  0.1377
  564SOL    HW1 2476   0.530   0.320   0.875  2.8434  0.3068 -2.6372
  564SOL    HW2 2477   0.417   0.388   0.801 -0.0378  0.3084  1.4496
  565SOL     OW 2478   1.268   0.687   0.496 -0.3638  0.2965 -0.1120
  565SOL    HW1 2479   1.323   0.752   0.451  2.4689 -1.4636  0.5437
  565SOL    HW2 2480   1.236   0.732   0.574  0.9505  1.1554 -0.0371
  566SOL     OW 2481   1.430   2.142   2.746  0.7910  0.0772  0.0248
  566SOL    HW1 2482   1.352   2.094   2.719  0.8902  0.3044 -0.6910
  566SOL    HW2 2483   1.410   2.233   2.727  0.3504  0.4384  1.9812
  567SOL     OW 2484   2.587   2.767   2.239  0.7003 -0.0216 -0.0387
  567SOL    HW1 2485   2.533   2.823   2.295 -0.8173 -1.5036  0.0653
  567SOL    HW2 2486   2.576   2.679   2.277  0.2562 -0.9414 -2.1681
  568SOL     OW 2487   1.714   1.594   0.812 -0.1050 -0.3770 -0.2519
  568SOL    HW1 2488   1.700   1.586   0.717  0.6664  0.9213 -0.5131
  568SOL    HW2 2489   1.718   1.689   0.827  3.3748 -0.4852  0.4794
  569SOL     OW 2490   0.059   0.492   0.447  0.0350  0.2903  0.0225
  569SOL    HW1 2491   0.151   0.515   0.447  0.3440 -0.8951  0.3392
  569SOL    HW2 2492   0.054   0.411   0.497 -1.0895  0.0114 -0.5056
  570SOL     OW 2493   1.652   0.255   1.304  0.8264  0.5170 -0.1967
  570SOL    HW1 2494   1.720   0.226   1.244  0.0917  0.3470 -0.9684
  570SOL    HW2 2495   1.684   0.230   1.391  1.5271  0.0228 -0.5893
  571SOL     OW 2496   2.918   1.746   0.729  0.7058 -0.0741 -0.5434
  571SOL    HW1 2497   2.939   1.791   0.810  1.6661 -0.1818 -0.7194
  571SOL    HW2 2498   2.984   1.777   0.666 -0.0210  0.0148 -1.2877
  572SOL     OW 2499   0.820   3.298   2.740  0.3815  0.0139 -0.2029
  572SOL    HW1 2500   0.896   3.250   2.771  0.6145  0.6533  0.2609
  572SOL    HW2 2501   0.759   3.296   2.814 -0.0785 -0.5526 -0.5964
  573SOL     OW 2502   0.756   0.843   0.423 -0.0669 -0.6607 -0.2522
  573SOL    HW1 2503   0.837   0.865   0.376  1.0560  0.3501  2.0028
  573SOL    HW2 2504   0.742   0.750   0.403  1.5459 -0.8075 -0.8524
  574SOL     OW 2505   0.879   2.156   2.212  0.5686 -0.0549  0.2187
  574SOL    HW1 2506   0.884   2.240   2.166  2.5414 -0.3598 -0.2376
  574SOL    HW2 2507   0.807   2.109   2.170  0.2145  0.9640 -0.3258
  575SOL     OW 2508   0.613   3.270   2.931  0.1551  0.4070  0.3486
  575SOL    HW1 2509   0.626   3.212   3.006  0.5013 -0.2776 -0.2289
  575SOL    HW2 2510   0.526   3.249   2.899  0.5734 -0.3669 -0.3276
  576SOL     OW 2511   2.468   2.258   2.846 -0.2764  0.0804 -0.7023
  576SOL    HW1 2512   2.494   2.167   2.865 -1.0539 -0.0768 -0.3575
  576SOL    HW2 2513   2.378   2.251   2.816 -0.9415  0.8992  0.9798
  577SOL     OW 2514   3.291   2.495   2.856 -0.4207  0.0008  0.1498
  577SOL    HW1 2515   3.213   2.443   2.834 -0.5050 -0.3384  1.2072
  577SOL    HW2 2516   3.264   2.586   2.843 -0.7214 -0.1452 -0.2991
  578SOL     OW 2517   2.294   1.462   0.663  0.1657 -0.3126 -0.2447
  578SOL    HW1 2518   2.266   1.403   0.733  0.8915 -1.7119 -1.0892
  578SOL    HW2 2519   2.216   1.474   0.609  0.2507 -1.3440 -0.6259
  579SOL     OW 2520   1.199   0.828   0.170 -0.0885 -0.3308  0.1532
  579SOL    HW1 2521   1.186   0.747   0.219 -3.8197  0.1103  0.2030
  579SOL    HW2 2522   1.176   0.805   0.079  1.3819  0.1234 -0.3611
  580SOL     OW 2523   0.394   3.266   3.155 -0.0929  0.2669 -0.5394
  580SOL    HW1 2524   0.327   3.333   3.139  0.2052  0.4263 -1.1828
  580SOL    HW2 2525   0.351   3.183   3.136 -0.4791  0.2622  0.3095
  581SOL     OW 2526   2.661   1.611   3.005  0.0659  0.6705 -0.0612
  581SOL    HW1 2527   2.746   1.624   2.963  0.5360  0.6723  0.8629
  581SOL    HW2 2528   2.662   1.672   3.079 -1.2538  1.5858 -0.7485
  582SOL     OW 2529   3.313   2.328   2.144  0.0573 -0.2175  0.2807
  582SOL    HW1 2530   3.308   2.295   2.234  1.4381 -1.3608 -0.0153
  582SOL    HW2 2531   3.270   2.261   2.091 -2.4628  1.3288  0.2104
  583SOL     OW 2532   0.315   0.713   1.154 -0.1941  0.0580 -0.2460
  583SOL    HW1 2533   0.345   0.758   1.075  0.1821 -1.0746 -0.7556
  583SOL    HW2 2534   0.389   0.659   1.181 -0.2399  0.5726  1.0152
  584SOL     OW 2535   2.789   3.050   0.977 -0.3052 -0.0706 -0.0895
  584SOL    HW1 2536   2.866   2.994   0.969 -0.9974 -1.0633  0.0042
  584SOL    HW2 2537   2.777   3.060   1.072  0.0420  0.5601 -0.1103
  585SOL     OW 2538   1.240   3.289   2.795 -0.0740 -0.4345 -0.4553
  585SOL    HW1 2539   1.180   3.364   2.792 -0.1445 -0.4677  0.0420
  585SOL    HW2 2540   1.190   3.220   2.840  1.3296  0.4730  2.8227
  586SOL     OW 2541   0.508   1.295   0.162 -0.1697 -0.4432 -0.2340
  586SOL    HW1 2542   0.469   1.221   0.115 -0.1612  0.3538 -1.5631
  586SOL    HW2 2543   0.499   1.369   0.101  0.3818  0.5057  0.8048
  587SOL     OW 2544   3.160   0.175   3.076 -0.2572 -0.1633  0.4271
  587SOL    HW1 2545   3.113   0.093   3.089  0.0332 -0.3285  0.4585
  587SOL    HW2 2546   3.192   0.198   3.164  0.3665 -0.4552  0.2835
  588SOL     OW 2547   2.466   0.870   3.282 -0.2979  0.1520  0.0655
  588SOL    HW1 2548   2.412   0.944   3.255 -0.5864  0.4255  1.3282
  588SOL    HW2 2549   2.464   0.872   3.378 -0.9564 -1.9568  0.1477
  589SOL     OW 2550   2.625   2.231   3.225  0.5245  0.2142  0.0541
  589SOL    HW1 2551   2.580   2.195   3.148 -0.2627  0.7920  0.2171
  589SOL    HW2 2552   2.715   2.201   3.217 -0.0254 -1.5199  0.0410
  590SOL     OW 2553   2.151   2.981   1.924 -0.0141  0.2629 -0.0627
  590SOL    HW1 2554   2.230   3.030   1.903 -0.0763 -0.1511 -1.3406
  590SOL    HW2 2555   2.086   3.009   1.859 -1.9173  2.7738  2.6408
  591SOL     OW 2556   1.354   3.168   1.864  0.0182 -0.1343 -0.3673
  591SOL    HW1 2557   1.299   3.246   1.858  0.1654 -0.0433 -0.5241
  591SOL    HW2 2558   1.366   3.155   1.958 -0.7342 -0.4838 -0.3052
  592SOL     OW 2559   0.093   1.031   0.631  0.1761 -0.5124  0.0740
  592SOL    HW1 2560   0.113   1.123   0.649  0.7501 -0.7521  0.7111
  592SOL    HW2 2561   0.045   1.002   0.709  0.5821 -0.9289  0.1710
  593SOL     OW 2562   2.826   1.529   2.645  0.1314  0.2300 -0.3129
  593SOL    HW1 2563   2.845   1.583   2.722 -0.0080 -1.3288  0.8557
  593SOL    HW2 2564   2.902   1.472   2.637  0.2503  0.5400 -1.4949
  594SOL     OW 2565   0.193   1.296   0.691 -0.1247 -0.6809 -0.2587
  594SOL    HW1 2566   0.194   1.281   0.786  1.9488  0.2246 -0.0963
  594SOL    HW2 2567   0.155   1.384   0.682  3.2356  0.9393  0.1103
  595SOL     OW 2568   2.902   1.858   0.047 -0.1822  0.1271 -0.3586
  595SOL    HW1 2569   2.997   1.847   0.037  0.1185  1.2710  1.0527
  595SOL    HW2 2570   2.889   1.873   0.140 -2.1461 -3.4295  0.0976
  596SOL     OW 2571   3.289   0.520   0.771  0.3503 -0.3488 -0.2261
  596SOL    HW1 2572   3.338   0.454   0.723  0.5513  0.1421 -0.7018
  596SOL    HW2 2573   3.329   0.603   0.745 -0.2654  0.0016 -0.0646
  597SOL     OW 2574   0.987   2.226   1.459 -0.0088 -0.0255 -0.0102
  597SOL    HW1 2575   1.051   2.155   1.449 -0.3521 -0.1468 -1.6669
  597SOL    HW2 2576   1.039   2.303   1.482  0.6445 -0.2785 -0.6273
  598SOL     OW 2577   2.355   2.650   0.234 -0.5531  0.0820 -0.0186
  598SOL    HW1 2578   2.347   2.618   0.144  1.5117 -0.8626  0.0616
  598SOL    HW2 2579   2.426   2.597   0.271  0.4911  2.2872  1.3065
  599SOL     OW 2580   2.197   0.069   0.011 -0.1161  0.1712 -0.5529
  599SOL    HW1 2581   2.130   0.093  -0.054 -0.4476  0.6776 -0.0343
  599SOL    HW2 2582   2.240  -0.008  -0.026 -1.2274 -0.3803 -0.7432
  600SOL     OW 2583   0.224   2.502   2.723 -0.4857 -0.0020  0.0649
  600SOL    HW1 2584   0.223   2.511   2.628  1.6456 -0.6218 -0.0870
  600SOL    HW2 2585   0.140   2.463   2.745 -0.9951  0.0996 -1.5815
  601SOL     OW 2586   0.531   2.348   2.448  0.2654 -0.3145 -0.2998
  601SOL    HW1 2587   0.567   2.435   2.436  0.1548 -0.0692  0.9949
  601SOL    HW2 2588   0.463   2.341   2.381 -0.0767  0.7963 -0.0897
  602SOL     OW 2589   1.316   2.158   1.672 -0.2133  0.1525  0.2538
  602SOL    HW1 2590   1.406   2.151   1.640  0.3389  0.9661  1.5361
  602SOL    HW2 2591   1.269   2.089   1.626  0.9310  0.0852 -0.8803
  603SOL     OW 2592   3.063   0.465   0.641 -0.0537 -0.2459  0.3513
  603SOL    HW1 2593   3.062   0.548   0.595  2.7145 -1.5828 -2.5104
  603SOL    HW2 2594   3.139   0.469   0.698 -1.1727 -0.0824  1.8912
  604SOL     OW 2595   1.936   0.330   1.564  0.4564 -0.1141  0.1156
  604SOL    HW1 2596   1.936   0.413   1.612  1.9058 -0.4378  0.7271
  604SOL    HW2 2597   1.985   0.348   1.484 -0.9125  0.1039 -0.7083
  605SOL     OW 2598   0.015   3.241   2.446  0.2612 -0.3428  0.2358
  605SOL    HW1 2599  -0.043   3.174   2.409  1.5641 -1.1059 -0.4928
  605SOL    HW2 2600  -0.032   3.272   2.524 -1.0357 -1.0575 -0.2157
  606SOL     OW 2601   2.004   0.545   0.600 -0.0664 -0.0534 -0.1687
  606SOL    HW1 2602   1.921   0.500   0.588  0.1058 -1.4051  2.9208
  606SOL    HW2 2603   2.070   0.476   0.591  0.7273  0.8801 -1.9077
  607SOL     OW 2604   2.346   2.527   3.302 -0.3769 -0.2110 -0.3734
  607SOL    HW1 2605   2.303   2.463   3.245 -1.2290  0.8446 -0.9557
  607SOL    HW2 2606   2.436   2.532   3.270 -0.9629  0.7236 -1.9826
  608SOL     OW 2607   1.896   2.844   2.338  0.2043  0.0257 -0.2668
  608SOL    HW1 2608   1.842   2.917   2.367 -0.0469 -0.8315  1.5897
  608SOL    HW2 2609   1.983   2.862   2.374  0.1790 -0.4831  0.0625
  609SOL     OW 2610   1.773   0.557   3.225 -0.1568 -0.1754 -0.3984
  609SOL    HW1 2611   1.713   0.506   3.279  0.1760  0.7307  0.8798
  609SOL    HW2 2612   1.717   0.599   3.160 -0.5413 -1.4661 -0.9124
  610SOL     OW 2613   2.084   1.914   3.004  0.1288  0.2181 -0.0490
  610SOL    HW1 2614   2.088   1.990   3.063 -1.4654 -0.1354  0.5733
  610SOL    HW2 2615   1.996   1.878   3.018  0.3234 -0.8617 -1.4447
  611SOL     OW 2616   1.931   1.515   0.108  0.4188 -0.0058  0.4352
  611SOL    HW1 2617   1.855   1.459   0.123  0.2670  0.4003  1.2269
  611SOL    HW2 2618   1.953   1.501   0.016 -0.0226 -0.8556  0.4476
  612SOL     OW 2619   2.130   2.375   2.306 -0.9132 -0.3030 -0.0544
  612SOL    HW1 2620   2.215   2.330   2.309 -1.2290 -0.9351 -0.3873
  612SOL    HW2 2621   2.067   2.306   2.284 -1.3589  0.3838 -0.9969
  613SOL     OW 2622   2.535   2.054   3.027 -0.0204  0.3613 -0.3656
  613SOL    HW1 2623   2.620   2.018   2.998  0.9118  1.8980  0.3376
  613SOL    HW2 2624   2.485   1.977   3.053  0.4657 -0.7555 -2.4756
  614SOL     OW 2625   0.252   1.087   0.291 -0.4243 -0.1497  0.3452
  614SOL    HW1 2626   0.248   1.154   0.359  0.3731  0.0181  0.2379
  614SOL    HW2 2627   0.201   1.123   0.218  0.5740  0.6555  0.0284
  615SOL     OW 2628   0.162   2.256   2.510 -0.6632  0.3110  0.5341
  615SOL    HW1 2629   0.067   2.263   2.517 -0.9032 -0.5399 -1.4972
  615SOL    HW2 2630   0.187   2.330   2.455 -0.1300  0.4871  0.9980
  616SOL     OW 2631   2.652   2.904   1.437 -0.3261  0.3026 -0.1884
  616SOL    HW1 2632   2.644   2.943   1.524 -1.1015 -0.2168 -0.0144
  616SOL    HW2 2633   2.733   2.852   1.441 -1.1725 -1.0081  0.7608
  617SOL     OW 2634   3.084   1.920   1.228  0.2704  0.5609 -0.2656
  617SOL    HW1 2635   3.014   1.981   1.251  0.9017  0.7010  1.4315
  617SOL    HW2 2636   3.080   1.853   1.296  2.0454  0.7942  0.1146
  618SOL     OW 2637   1.659   1.402   0.191  0.0326  0.2304 -0.4553
  618SOL    HW1 2638   1.629   1.492   0.180 -0.5445  0.1247  0.1979
  618SOL    HW2 2639   1.579   1.351   0.202  0.3661  0.2052  3.3553
  619SOL     OW 2640   2.175   0.341   0.631 -0.1694 -0.0525 -0.0165
  619SOL    HW1 2641   2.245   0.324   0.694 -0.5545  2.1910  1.1082
  619SOL    HW2 2642   2.137   0.254   0.613  0.6259 -0.8854  2.0241
  620SOL     OW 2643   1.952   2.576   1.922 -0.3277 -0.5023  0.2961
  620SOL    HW1 2644   1.927   2.483   1.925  0.0487 -0.5905  1.8973
  620SOL    HW2 2645   1.889   2.619   1.979 -1.4392  0.5099 -1.6148
  621SOL     OW 2646   2.891   2.094   1.279  0.3466  0.1043  0.0027
  621SOL    HW1 2647   2.871   2.117   1.370 -1.5446 -2.2391  0.2822
  621SOL    HW2 2648   2.806   2.073   1.240  1.1558  0.6236 -2.2143
  622SOL     OW 2649   2.057   1.633   0.324  0.2777 -0.1728 -0.2498
  622SOL    HW1 2650   1.991   1.595   0.267  0.2789 -1.0407  0.3197
  622SOL    HW2 2651   2.066   1.571   0.396 -1.1880  1.8513  1.7828
  623SOL     OW 2652   1.891   1.228   0.697  0.5230 -1.0683  0.2541
  623SOL    HW1 2653   1.830   1.153   0.694  0.0344 -0.6501 -0.9552
  623SOL    HW2 2654   1.862   1.278   0.773 -1.2199 -0.4441 -0.7600
  624SOL     OW 2655   2.466   2.767   1.999  0.0675 -0.7005 -0.1898
  624SOL    HW1 2656   2.373   2.750   1.991 -0.2774 -0.3100  2.1074
  624SOL    HW2 2657   2.480   2.777   2.094  1.8058  2.6449 -0.6463
  625SOL     OW 2658   0.190   2.177   1.977  0.0247 -0.2447  0.2002
  625SOL    HW1 2659   0.210   2.145   2.065 -1.3105  1.3860  1.1518
  625SOL    HW2 2660   0.263   2.235   1.956  0.8963 -1.4715 -0.2530
  626SOL     OW 2661   1.831   3.158   1.433 -0.0524  0.2225 -0.3365
  626SOL    HW1 2662   1.879   3.081   1.464 -1.1104 -0.2088  0.3120
  626SOL    HW2 2663   1.895   3.209   1.384  0.6330 -1.1618 -0.9249
  627SOL     OW 2664   0.301   3.051   2.195 -0.3939 -0.2076  0.0385
  627SOL    HW1 2665   0.281   3.143   2.212 -1.6046 -0.6083  0.9447
  627SOL    HW2 2666   0.395   3.044   2.213 -0.1353  0.9780 -0.7223
  628SOL     OW 2667   2.742   1.334   2.125 -0.0355 -0.3470  0.0317
  628SOL    HW1 2668   2.795   1.414   2.123  0.5438 -0.7115 -2.1587
  628SOL    HW2 2669   2.803   1.264   2.102 -0.9641 -1.1135 -0.1646
  629SOL     OW 2670   0.217   2.764   2.806  0.2704  0.0077  0.0304
  629SOL    HW1 2671   0.215   2.677   2.765 -0.0767  0.1494 -0.2601
  629SOL    HW2 2672   0.218   2.746   2.900 -0.0997 -0.3055 -0.0249
  630SOL     OW 2673   1.630   1.354   0.480 -0.0709  0.0988  0.0766
  630SOL    HW1 2674   1.669   1.435   0.514  1.9841 -0.8429  0.1075
  630SOL    HW2 2675   1.642   1.359   0.385  1.8838 -1.0095  0.2252
  631SOL     OW 2676   2.950   2.785   1.175  0.6241 -0.1639  0.0735
  631SOL    HW1 2677   2.937   2.879   1.173 -0.5906 -0.3176  0.0079
  631SOL    HW2 2678   2.934   2.761   1.267 -2.0906 -0.6615 -0.4467
  632SOL     OW 2679   1.780   2.739   2.110  0.1085  0.3904 -0.7040
  632SOL    HW1 2680   1.835   2.765   2.184 -0.7289  0.8947 -0.2430
  632SOL    HW2 2681   1.707   2.800   2.112 -0.3600 -0.1315 -1.4440
  633SOL     OW 2682   2.412   2.128   1.829  0.0460 -0.1873  0.1261
  633SOL    HW1 2683   2.406   2.213   1.786 -3.7452 -0.3899 -0.0192
  633SOL    HW2 2684   2.353   2.134   1.904 -0.1093 -2.6047  0.2804
  634SOL     OW 2685   1.627   1.981   2.657  0.2527  0.2191 -0.5037
  634SOL    HW1 2686   1.695   1.982   2.724 -0.3041 -2.5471  0.2317
  634SOL    HW2 2687   1.553   2.026   2.698 -0.2119 -1.7655  0.9879
  635SOL     OW 2688   2.967   3.060   1.605 -0.0346  0.1256  0.3997
  635SOL    HW1 2689   3.043   3.002   1.600 -0.3265 -0.5221  2.4141
  635SOL    HW2 2690   3.004   3.146   1.625  0.2047 -0.1791  1.3320
  636SOL     OW 2691   0.330   1.423   2.861 -0.2360 -0.1812 -0.1442
  636SOL    HW1 2692   0.285   1.348   2.824 -0.3824 -0.2740  0.2218
  636SOL    HW2 2693   0.422   1.397   2.865 -0.1545 -0.0109 -0.8428
  637SOL     OW 2694   2.817   1.527   0.593 -0.1066  0.3269 -0.0728
  637SOL    HW1 2695   2.865   1.576   0.659  0.0357  0.5190 -0.3165
  637SOL    HW2 2696   2.726   1.557   0.602  0.0911  1.1184 -0.6503
  638SOL     OW 2697   3.056   0.966   3.267 -0.2679 -0.0370 -0.0579
  638SOL    HW1 2698   2.972   0.940   3.305 -0.1348 -0.7047 -0.2207
  638SOL    HW2 2699   3.095   1.025   3.332 -1.3262  1.1362 -0.4339
  639SOL     OW 2700   2.411   2.374   0.554 -0.0534  0.0485 -0.1344
  639SOL    HW1 2701   2.400   2.304   0.619 -1.0304 -0.1540 -0.5003
  639SOL    HW2 2702   2.326   2.417   0.551  0.2008  0.5212 -0.7598
  640SOL     OW 2703   0.177   1.630   3.179 -0.2704 -0.1619  0.8906
  640SOL    HW1 2704   0.254   1.622   3.236  0.2459 -0.4816  0.1553
  640SOL    HW2 2705   0.150   1.540   3.163  0.6683 -0.1733 -0.8109
  641SOL     OW 2706   1.524   1.324   3.204  0.1024 -0.4269  0.2317
  641SOL    HW1 2707   1.499   1.377   3.129  3.4140 -0.9376 -1.4145
  641SOL    HW2 2708   1.505   1.378   3.280 -0.4361  1.4020 -1.1516
  642SOL     OW 2709   2.564   2.489   0.339 -0.8769 -0.3393 -0.2863
  642SOL    HW1 2710   2.607   2.428   0.279  0.8266 -1.6241  2.0807
  642SOL    HW2 2711   2.511   2.433   0.396  0.3527  0.3450  1.6369
  643SOL     OW 2712   1.160   2.243   1.896  0.2838  0.4155 -0.5926
  643SOL    HW1 2713   1.182   2.192   1.974 -1.1541 -0.4893 -0.7370
  643SOL    HW2 2714   1.215   2.207   1.827  1.4907  1.1507 -0.0518
  644SOL     OW 2715   0.265   1.551   0.912  0.0588  0.1690 -0.4012
  644SOL    HW1 2716   0.305   1.569   0.997 -1.2985  1.4756  0.0047
  644SOL    HW2 2717   0.183   1.506   0.933 -1.3528  2.3650 -0.8025
  645SOL     OW 2718   1.162   1.692   1.010 -0.6362  0.2801 -0.2593
  645SOL    HW1 2719   1.251   1.720   1.032 -0.4835  0.4906 -1.0965
  645SOL    HW2 2720   1.152   1.607   1.053  0.6734 -0.6439 -1.6931
  646SOL     OW 2721   0.942   1.431   1.073  0.1657 -0.0436  0.1865
  646SOL    HW1 2722   0.923   1.509   1.125  0.1822 -0.4413  0.7981
  646SOL    HW2 2723   0.870   1.427   1.010  0.2312  0.5328  0.0629
  647SOL     OW 2724   3.151   1.613   0.959 -0.0208  0.6837 -0.0151
  647SOL    HW1 2725   3.061   1.637   0.980  0.4946  2.0032  0.8078
  647SOL    HW2 2726   3.199   1.696   0.956  1.3382 -0.0425  0.4307
  648SOL     OW 2727   0.277   2.919   2.448  0.0639 -0.0572  0.7153
  648SOL    HW1 2728   0.317   2.844   2.405 -0.5973 -0.6345  1.1000
  648SOL    HW2 2729   0.256   2.979   2.376  1.3279  0.1294  0.4782
  649SOL     OW 2730   3.026   2.050   2.157  0.1699 -0.6335  0.2370
  649SOL    HW1 2731   2.935   2.078   2.166  1.1002  2.2486  2.3066
  649SOL    HW2 2732   3.039   1.987   2.227 -0.6515 -2.5621 -1.2733
  650SOL     OW 2733   1.274   3.227   0.868 -0.2080  0.4001  0.2303
  650SOL    HW1 2734   1.324   3.188   0.940 -0.8672 -0.5529  0.1900
  650SOL    HW2 2735   1.184   3.197   0.881 -0.5135  0.9623 -0.4769
  651SOL     OW 2736   1.719   3.010   2.459  0.9068 -0.3828 -0.0847
  651SOL    HW1 2737   1.754   2.997   2.547 -0.3447  1.3965  0.7292
  651SOL    HW2 2738   1.626   3.030   2.472  0.2906 -1.7100 -1.9507
  652SOL     OW 2739   3.291   0.389   2.899 -0.0396  0.0707 -0.4350
  652SOL    HW1 2740   3.249   0.330   2.962 -0.3275  0.6179 -0.1117
  652SOL    HW2 2741   3.348   0.444   2.951  0.5526 -0.2004 -0.7927
  653SOL     OW 2742   0.073   2.896   2.613 -0.4695  0.0972  0.2853
  653SOL    HW1 2743   0.138   2.931   2.551  0.9563  2.0341  2.6750
  653SOL    HW2 2744   0.124   2.837   2.669 -1.4803 -0.7488  0.3317
  654SOL     OW 2745   0.055   1.574   0.211 -0.3938 -0.6316 -0.3025
  654SOL    HW1 2746   0.124   1.606   0.153  1.0628 -0.7622  1.2920
  654SOL    HW2 2747   0.006   1.512   0.158  0.1231  0.1549 -1.7605
  655SOL     OW 2748   0.723   2.591   1.431 -0.3487 -0.1425  0.2022
  655SOL    HW1 2749   0.817   2.591   1.447 -0.3027 -1.8750  0.0345
  655SOL    HW2 2750   0.696   2.500   1.439 -1.6635  0.0088 -1.7425
  656SOL     OW 2751   1.786   3.074   1.985  0.2373 -0.4961 -0.0362
  656SOL    HW1 2752   1.796   3.096   2.077 -2.6022  2.9990 -0.3000
  656SOL    HW2 2753   1.724   3.002   1.983  0.6473 -0.8760  0.7730
  657SOL     OW 2754   1.271   0.507   2.926 -0.6597  0.1822  0.1299
  657SOL    HW1 2755   1.306   0.419   2.914  0.5253  0.6666 -0.0720
  657SOL    HW2 2756   1.346   0.565   2.914 -1.5519  1.2702 -0.4273
  658SOL     OW 2757   2.292   1.883   1.480 -0.1971 -0.3710  0.3271
  658SOL    HW1 2758   2.265   1.974   1.467  0.8999  0.1070  1.1407
  658SOL    HW2 2759   2.322   1.880   1.571  0.9294 -1.2302 -0.0458
  659SOL     OW 2760   2.066   1.967   1.892 -0.4576 -0.0302 -0.5343
  659SOL    HW1 2761   2.041   2.053   1.924 -0.8676 -0.2147 -0.3504
  659SOL    HW2 2762   2.013   1.906   1.943  1.3508 -0.5222  0.8457
  660SOL     OW 2763   1.028   2.380   2.413 -0.0588 -0.1787  0.0116
  660SOL    HW1 2764   0.941   2.346   2.431  0.3634 -1.6379 -0.5227
  660SOL    HW2 2765   1.013   2.459   2.361 -1.0624 -0.6897 -0.5063
  661SOL     OW 2766   2.825   0.898   0.542 -0.4497  0.4408  0.4457
  661SOL    HW1 2767   2.913   0.923   0.514 -0.6461 -0.2165 -0.8538
  661SOL    HW2 2768   2.773   0.901   0.462 -1.4613  0.1741  1.0701
  662SOL     OW 2769   2.371   1.093   2.985 -0.4836  0.1115  0.2404
  662SOL    HW1 2770   2.363   0.998   2.989 -1.6595  0.1705 -0.3284
  662SOL    HW2 2771   2.320   1.125   3.059  0.4994  0.2894  0.8569
  663SOL     OW 2772   0.584   1.589   2.959 -0.8131 -0.1967  0.0856
  663SOL    HW1 2773   0.613   1.666   2.909  0.5713 -0.6364  0.1701
  663SOL    HW2 2774   0.561   1.524   2.893 -0.7827 -0.1384  0.0179
  664SOL     OW 2775   2.674   2.675   2.560  0.1189 -0.0006  0.6493
  664SOL    HW1 2776   2.670   2.761   2.520 -1.2291  0.1485  1.0667
  664SOL    HW2 2777   2.655   2.691   2.653  0.9685 -0.6203  0.9488
  665SOL     OW 2778   0.855   2.876   1.300 -0.5742  0.6256 -0.3894
  665SOL    HW1 2779   0.855   2.914   1.212  1.2759  1.6197 -0.0148
  665SOL    HW2 2780   0.936   2.825   1.304 -1.4028 -0.7088  0.2459
  666SOL     OW 2781   0.593   0.196   1.970  0.1447  0.4761 -0.2051
  666SOL    HW1 2782   0.658   0.262   1.994  0.3666 -0.2350  1.2446
  666SOL    HW2 2783   0.579   0.146   2.050  0.9383 -2.0742 -1.5587
  667SOL     OW 2784   2.640   1.320   2.707  0.3086  0.2001 -0.0581
  667SOL    HW1 2785   2.581   1.319   2.631 -1.4822 -0.1767  1.2501
  667SOL    HW2 2786   2.706   1.386   2.686 -0.8695  1.0067 -1.4188
  668SOL     OW 2787   1.911   2.170   2.580 -0.7235  0.3470 -0.1801
  668SOL    HW1 2788   1.864   2.251   2.563 -1.5087 -0.1262 -0.3479
  668SOL    HW2 2789   1.881   2.143   2.667  1.0704  1.2588  0.7862
  669SOL     OW 2790   0.365   2.354   2.245  0.0245 -0.0058  0.3002
  669SOL    HW1 2791   0.352   2.374   2.153  0.1157  0.8014  0.4613
  669SOL    HW2 2792   0.323   2.269   2.257  0.9546 -0.6378 -0.7278
  670SOL     OW 2793   0.708   0.611   1.333  0.5496 -0.0834  0.4121
  670SOL    HW1 2794   0.672   0.587   1.248  0.4648 -3.1184  1.2082
  670SOL    HW2 2795   0.639   0.664   1.374 -2.2234 -3.7161  0.9355
  671SOL     OW 2796   1.614   0.761   0.552 -0.1128  0.1062 -0.3893
  671SOL    HW1 2797   1.699   0.795   0.525  1.3670  0.2419  3.6949
  671SOL    HW2 2798   1.551   0.823   0.516  1.6706  1.1618 -1.8687
  672SOL     OW 2799   0.979   1.271   3.083 -0.3161 -0.0207 -0.1164
  672SOL    HW1 2800   1.018   1.295   3.167  3.0624  0.0401 -1.5470
  672SOL    HW2 2801   0.967   1.354   3.038  1.6570 -0.2490 -1.1458
  673SOL     OW 2802   2.969   2.865   2.443 -0.1432  0.5513 -0.4006
  673SOL    HW1 2803   2.962   2.838   2.351  0.1104  1.5940 -0.7434
  673SOL    HW2 2804   2.878   2.883   2.469 -0.2135  0.2728 -0.4527
  674SOL     OW 2805   1.661   0.144   1.578 -0.2102 -0.3826  0.2774
  674SOL    HW1 2806   1.716   0.067   1.593 -0.7308 -0.8868 -0.3222
  674SOL    HW2 2807   1.693   0.210   1.640  0.1832 -1.1116  0.8589
  675SOL     OW 2808   2.568   3.067   2.680  0.2021  0.0921 -0.5699
  675SOL    HW1 2809   2.521   3.076   2.763 -1.3405  1.4939 -1.5253
  675SOL    HW2 2810   2.634   3.137   2.682 -0.0911  0.3760 -0.6651
  676SOL     OW 2811   2.843   0.086   1.437 -0.2087  0.1764  0.1363
  676SOL    HW1 2812   2.761   0.049   1.470 -0.3777  0.3849 -0.0501
  676SOL    HW2 2813   2.911   0.029   1.474 -0.4242  0.1156  0.4425
  677SOL     OW 2814   0.474   1.434   0.792  0.3335 -0.3150  0.1124
  677SOL    HW1 2815   0.403   1.468   0.847 -0.3492 -1.0721 -0.2697
  677SOL    HW2 2816   0.449   1.457   0.703  0.5334 -0.6412 -0.0312
  678SOL     OW 2817   1.018   0.318   3.235  0.2413 -0.4288 -0.1327
  678SOL    HW1 2818   1.063   0.364   3.305 -1.6985  0.9168  0.3155
  678SOL    HW2 2819   1.024   0.376   3.159  0.9627 -1.1606 -0.6589
  679SOL     OW 2820   0.767   2.556   2.644  0.0137  0.5519 -0.1474
  679SOL    HW1 2821   0.832   2.514   2.700  0.3662 -0.3736 -1.2127
  679SOL    HW2 2822   0.690   2.566   2.700 -0.4600 -2.4925 -0.0830
  680SOL     OW 2823   1.397   2.393   2.680  0.3084 -0.4726 -0.0192
  680SOL    HW1 2824   1.315   2.438   2.699 -0.4457 -1.5648 -0.5453
  680SOL    HW2 2825   1.393   2.376   2.585  1.1022 -0.6102 -0.0322
  681SOL     OW 2826   1.632   2.805   0.625  0.0135  0.3855  0.4288
  681SOL    HW1 2827   1.623   2.882   0.682  0.4631  0.8314 -0.0881
  681SOL    HW2 2828   1.663   2.736   0.683  0.4979  0.8443  0.7310
  682SOL     OW 2829   0.951   0.927   0.259  0.2822  0.0356 -0.0810
  682SOL    HW1 2830   0.928   0.982   0.184 -1.9464 -1.6539 -0.7777
  682SOL    HW2 2831   1.034   0.887   0.235  0.3983  0.7424 -0.9220
  683SOL     OW 2832   3.199   3.095   3.262  0.0088 -0.2339  0.3454
  683SOL    HW1 2833   3.234   3.085   3.350  0.3304  0.6601  0.3285
  683SOL    HW2 2834   3.241   3.025   3.211  0.6534 -0.0861  0.6627
  684SOL     OW 2835   2.506   0.095   2.173 -0.1011 -0.0229 -0.2034
  684SOL    HW1 2836   2.507   0.064   2.083 -0.2547  0.2290 -0.2944
  684SOL    HW2 2837   2.434   0.047   2.214  0.0247 -0.2016 -0.1902
  685SOL     OW 2838   2.319   1.571   2.381 -0.0922  0.2111 -0.4329
  685SOL    HW1 2839   2.294   1.570   2.473  1.2929  0.8086 -0.0291
  685SOL    HW2 2840   2.367   1.489   2.368  0.2316  0.4023 -0.4629
  686SOL     OW 2841   0.313   2.666   1.724 -0.4197  0.0199 -0.2875
  686SOL    HW1 2842   0.323   2.670   1.629  0.0752 -1.1389 -0.2998
  686SOL    HW2 2843   0.283   2.576   1.741  0.4844 -0.1086  0.7242
  687SOL     OW 2844   2.571   1.978   0.565  0.0905 -0.1496  0.3062
  687SOL    HW1 2845   2.623   2.058   0.553  1.2398 -0.8278  0.6140
  687SOL    HW2 2846   2.486   2.010   0.596  0.3592  0.9771 -0.0395
  688SOL     OW 2847   1.658   0.941   0.239 -0.0382 -0.3908  0.4627
  688SOL    HW1 2848   1.618   1.025   0.263 -0.3617  0.1086 -1.5958
  688SOL    HW2 2849   1.583   0.882   0.227 -0.2247  0.2457 -2.2891
  689SOL     OW 2850   0.044   0.958   0.881 -0.1114 -0.4428  0.2396
  689SOL    HW1 2851   0.066   1.041   0.923 -0.6931  0.2206 -0.7503
  689SOL    HW2 2852   0.029   0.898   0.954  1.8819 -0.1251  0.9722
  690SOL     OW 2853   1.338   0.275   1.507  0.0858 -0.6161  0.0185
  690SOL    HW1 2854   1.424   0.239   1.530  0.2343 -0.2581  0.0341
  690SOL    HW2 2855   1.276   0.206   1.531  0.3449 -0.7595  0.2847
  691SOL     OW 2856   1.295   2.421   1.293  0.1884 -0.3198  0.2585
  691SOL    HW1 2857   1.204   2.439   1.312  0.3521 -0.2619  1.0031
  691SOL    HW2 2858   1.301   2.426   1.198 -0.5111 -0.0002  0.2280
  692SOL     OW 2859   2.773   1.994   2.927  0.2321  0.1066 -0.2473
  692SOL    HW1 2860   2.762   1.989   2.832  0.6079  0.9057 -0.3398
  692SOL    HW2 2861   2.834   2.067   2.940  0.3815 -0.1641  0.5932
  693SOL     OW 2862   1.569   2.981   0.831  0.4221 -0.0790  0.7278
  693SOL    HW1 2863   1.493   2.934   0.865 -1.0452  2.6027  1.5066
  693SOL    HW2 2864   1.621   3.002   0.909  1.5463 -1.1132  0.2929
  694SOL     OW 2865   2.530   2.038   2.324 -0.8988 -0.1224  0.4797
  694SOL    HW1 2866   2.494   1.955   2.292  0.2432 -0.5071  0.1462
  694SOL    HW2 2867   2.548   2.023   2.417  0.7640 -0.8129  0.0930
  695SOL     OW 2868   2.142   0.587   0.839  0.2970 -0.1976 -0.2265
  695SOL    HW1 2869   2.091   0.567   0.760  0.5822 -0.1768 -0.4184
  695SOL    HW2 2870   2.202   0.656   0.811 -0.1207  0.3496  0.2106
  696SOL     OW 2871   2.615   2.509   3.290 -0.1515 -0.3927  0.0099
  696SOL    HW1 2872   2.686   2.524   3.352  0.3979  0.8908 -0.8901
  696SOL    HW2 2873   2.636   2.424   3.250  0.4209 -0.4195  0.3536
  697SOL     OW 2874   0.153   0.506   1.168  0.0472  0.4752  0.2387
  697SOL    HW1 2875   0.195   0.592   1.162 -0.5205  0.7808  0.5434
  697SOL    HW2 2876   0.196   0.463   1.241  2.5743 -0.7786 -1.8507
  698SOL     OW 2877   2.379   3.037   1.328  0.3689  0.7351  0.3326
  698SOL    HW1 2878   2.406   2.997   1.411 -1.7000  1.2168  1.2973
  698SOL    HW2 2879   2.362   2.962   1.271 -4.3154 -0.0950  2.3828
  699SOL     OW 2880   2.910   2.804   1.450 -0.0430 -0.2117  0.2119
  699SOL    HW1 2881   2.975   2.735   1.461 -0.9126 -0.9201  1.1090
  699SOL    HW2 2882   2.954   2.884   1.479  0.2476 -0.7730  1.3810
  700SOL     OW 2883   0.711   0.430   3.186  0.0589  0.1956  0.5888
  700SOL    HW1 2884   0.628   0.436   3.233  0.3467 -0.5724  1.2290
  700SOL    HW2 2885   0.707   0.346   3.140  0.4570  0.1796  0.5754
  701SOL     OW 2886   1.992   2.247   1.975  0.6078 -0.0066 -0.0684
  701SOL    HW1 2887   2.048   2.320   1.949 -1.1390  0.7181 -2.1248
  701SOL    HW2 2888   1.947   2.277   2.054  2.5598 -0.3704  1.2558
  702SOL     OW 2889   1.650   0.966   3.126 -0.5057  0.2305  0.1680
  702SOL    HW1 2890   1.712   0.929   3.190 -0.1512 -0.1512 -0.3901
  702SOL    HW2 2891   1.639   1.057   3.154  2.3895  1.1289 -1.2378
  703SOL     OW 2892   0.924   3.162   2.176 -0.0985 -0.0423  0.2429
  703SOL    HW1 2893   0.904   3.253   2.199 -2.1897 -0.1487 -0.9253
  703SOL    HW2 2894   0.896   3.154   2.085 -1.1848 -2.1913  0.7165
  704SOL     OW 2895   1.437   1.266   0.219  0.3686  0.2588  0.5352
  704SOL    HW1 2896   1.354   1.303   0.246  0.4456  2.3829 -1.7757
  704SOL    HW2 2897   1.415   1.177   0.189 -1.1217  0.8108 -0.1275
  705SOL     OW 2898   1.110   0.036   2.424 -0.1284  0.3113 -0.0873
  705SOL    HW1 2899   1.064   0.087   2.490 -0.6336 -1.1739  0.7412
  705SOL    HW2 2900   1.055   0.042   2.346 -0.4833  0.5428  0.1790
  706SOL     OW 2901   3.036   0.307   1.458 -0.1830 -0.4396  0.5392
  706SOL    HW1 2902   3.029   0.365   1.382 -0.9026  1.1404  1.7580
  706SOL    HW2 2903   2.984   0.230   1.434  0.9799 -0.7447 -1.2008
  707SOL     OW 2904   1.065   0.144   1.176 -0.6557  0.2748 -0.4003
  707SOL    HW1 2905   1.063   0.055   1.212  0.7971  0.6908  0.8315
  707SOL    HW2 2906   1.156   0.171   1.185 -1.1834  2.1021 -0.1854
  708SOL     OW 2907   3.057   3.158   2.832  0.7420  0.0885  0.0622
  708SOL    HW1 2908   2.983   3.100   2.817  1.9558 -1.4751 -0.1279
  708SOL    HW2 2909   3.051   3.181   2.925 -0.6965  1.0638 -0.2408
  709SOL     OW 2910   2.498   1.976   0.911 -0.1607  0.1800 -0.0614
  709SOL    HW1 2911   2.567   2.038   0.933  0.0720 -0.7644  2.2359
  709SOL    HW2 2912   2.544   1.906   0.864 -0.1793  1.0747 -1.4418
  710SOL     OW 2913   2.204   2.571   2.902  0.2195 -0.1526  0.3442
  710SOL    HW1 2914   2.199   2.662   2.931 -0.1925  0.5182 -1.6650
  710SOL    HW2 2915   2.266   2.572   2.830 -0.2397 -1.3642 -0.0954
  711SOL     OW 2916   2.576   2.482   0.786 -0.5333 -0.0113  0.4652
  711SOL    HW1 2917   2.499   2.465   0.732  0.7088 -2.1020 -0.8144
  711SOL    HW2 2918   2.543   2.481   0.876 -2.0993 -0.2254 -0.0857
  712SOL     OW 2919   1.935   2.735   1.683 -0.0074 -0.5756 -0.6243
  712SOL    HW1 2920   1.859   2.697   1.638  0.8658 -1.5730 -1.3228
  712SOL    HW2 2921   1.939   2.688   1.766 -0.6896  0.1407 -0.1756
  713SOL     OW 2922   3.173   1.273   0.539  0.4980  0.6173  0.0399
  713SOL    HW1 2923   3.104   1.329   0.504  0.2023  0.0225 -0.3394
  713SOL    HW2 2924   3.205   1.321   0.616  0.7527  1.6514 -0.6857
  714SOL     OW 2925   2.061   2.918   1.283  0.3101  0.3805 -0.1498
  714SOL    HW1 2926   2.035   2.949   1.369 -1.4698  1.5225 -1.0403
  714SOL    HW2 2927   2.065   2.998   1.229 -2.0776 -0.5942 -1.9539
  715SOL     OW 2928   1.080   0.508   1.755 -0.6188  0.2494  0.1446
  715SOL    HW1 2929   1.127   0.434   1.793  0.0565  0.3673 -0.4404
  715SOL    HW2 2930   1.107   0.509   1.664 -0.8160  1.0729  0.0898
  716SOL     OW 2931   0.188   0.137   3.100 -0.3105 -0.4388  0.2789
  716SOL    HW1 2932   0.131   0.213   3.104  0.8182  0.6914 -2.6132
  716SOL    HW2 2933   0.166   0.094   3.018  1.8295 -0.9165 -0.1000
  717SOL     OW 2934   1.592   2.845   0.138  0.6070 -0.0809  0.3974
  717SOL    HW1 2935   1.521   2.894   0.095  0.1788 -0.4652  0.6584
  717SOL    HW2 2936   1.668   2.860   0.082  0.2441  0.0689 -0.0700
  718SOL     OW 2937   1.576   2.542   2.881 -0.1702 -0.2734 -0.1897
  718SOL    HW1 2938   1.660   2.497   2.877  1.1151  1.9923 -0.4544
  718SOL    HW2 2939   1.521   2.499   2.816  1.0286 -1.3175 -0.5279
  719SOL     OW 2940   0.390   0.886   0.928  0.5541  0.0180 -0.0101
  719SOL    HW1 2941   0.421   0.831   0.856  1.0348  0.5346 -0.2025
  719SOL    HW2 2942   0.299   0.906   0.905  0.5599 -0.2011 -0.2327
  720SOL     OW 2943   1.204   2.947   1.745 -0.0373 -0.2235 -0.1439
  720SOL    HW1 2944   1.243   2.860   1.749 -0.2155 -0.3952 -1.6540
  720SOL    HW2 2945   1.254   2.998   1.809  0.1687 -1.3750  0.6433
  721SOL     OW 2946   2.010   2.787   2.678  0.1967 -0.4253  0.5584
  721SOL    HW1 2947   2.055   2.724   2.623 -0.2149 -0.8867  0.7448
  721SOL    HW2 2948   2.057   2.783   2.762  0.4735 -0.1263  0.4211
  722SOL     OW 2949   1.823   1.863   1.352  0.4834 -0.2933  0.0500
  722SOL    HW1 2950   1.779   1.948   1.344  1.3721  0.1190 -0.6182
  722SOL    HW2 2951   1.843   1.855   1.445  0.9166  0.5097  0.0362
  723SOL     OW 2952   1.420   1.758   1.147 -0.1452 -0.1976 -0.1245
  723SOL    HW1 2953   1.383   1.811   1.218 -1.4620 -0.7518 -0.3612
  723SOL    HW2 2954   1.458   1.682   1.192  3.8678  1.8987  0.4594
  724SOL     OW 2955   1.708   1.952   3.284  0.0166  0.5819 -1.0721
  724SOL    HW1 2956   1.784   1.919   3.330 -1.0632 -0.2321  0.1905
  724SOL    HW2 2957   1.673   2.021   3.341 -2.0986 -1.3316  0.1089
  725SOL     OW 2958   1.508   2.234   3.029 -0.5075  0.0242 -0.0089
  725SOL    HW1 2959   1.440   2.300   3.015 -0.9565 -0.6772 -1.3242
  725SOL    HW2 2960   1.534   2.208   2.940  0.5462 -0.6561  0.4903
  726SOL     OW 2961   0.358   2.677   1.408  0.4004 -0.0714 -0.1818
  726SOL    HW1 2962   0.361   2.592   1.364 -0.2222 -0.2533  0.1078
  726SOL    HW2 2963   0.384   2.740   1.342 -0.0167 -0.3954 -0.6581
  727SOL     OW 2964   2.746   0.972   3.173 -0.7222 -0.0958  0.1877
  727SOL    HW1 2965   2.771   0.927   3.254 -0.3418 -1.5683 -0.7122
  727SOL    HW2 2966   2.657   0.940   3.154 -0.7894  0.2001  0.0016
  728SOL     OW 2967   3.253   1.925   1.572 -0.1976 -0.3563 -0.2610
  728SOL    HW1 2968   3.299   1.971   1.642  0.7552  1.3148 -1.9274
  728SOL    HW2 2969   3.165   1.963   1.571 -0.3338 -0.6459  0.2349
  729SOL     OW 2970   2.900   2.497   3.102  0.4093 -0.2917  0.6394
  729SOL    HW1 2971   2.844   2.468   3.030 -0.1720  0.3723  0.8148
  729SOL    HW2 2972   2.951   2.570   3.065 -0.3431  0.4649  1.0667
  730SOL     OW 2973   2.506   0.334   0.702 -0.0832  0.0195  0.1489
  730SOL    HW1 2974   2.590   0.371   0.728  0.3097  0.0607 -1.0989
  730SOL    HW2 2975   2.452   0.339   0.781  0.9178  0.4607  0.8301
  731SOL     OW 2976   1.200   0.277   1.852  0.0710 -0.3615  0.2757
  731SOL    HW1 2977   1.275   0.245   1.903  0.1988  0.0811  0.3635
  731SOL    HW2 2978   1.208   0.230   1.768 -0.4932 -1.5520  0.8703
  732SOL     OW 2979   1.364   3.099   0.648 -0.3704  0.0518  0.1745
  732SOL    HW1 2980   1.433   3.055   0.698  0.2318 -1.3376 -1.7500
  732SOL    HW2 2981   1.331   3.167   0.707  2.4347  0.5828  1.2869
  733SOL     OW 2982   1.832   1.386   0.917 -0.5810  0.2933 -0.2792
  733SOL    HW1 2983   1.776   1.454   0.880 -0.5642  1.3670  1.5746
  733SOL    HW2 2984   1.773   1.332   0.970 -0.4385 -0.6549 -1.0551
  734SOL     OW 2985   2.072   2.148   3.108 -0.0627 -0.0562 -0.2884
  734SOL    HW1 2986   1.984   2.185   3.095 -1.1594 -2.7468 -1.3979
  734SOL    HW2 2987   2.131   2.214   3.073 -1.7038  1.4826 -0.2943
  735SOL     OW 2988   2.124   0.192   3.040  0.2908 -0.4249  0.6004
  735SOL    HW1 2989   2.051   0.242   3.075  0.6910  0.1550  0.6289
  735SOL    HW2 2990   2.195   0.257   3.030  0.0586 -0.4387 -1.7394
  736SOL     OW 2991   2.983   1.430   0.407 -0.1245  0.0637 -0.6775
  736SOL    HW1 2992   2.941   1.482   0.475 -0.6840 -2.1495  0.8139
  736SOL    HW2 2993   2.911   1.386   0.362  0.4017 -1.3418 -0.2014
  737SOL     OW 2994   2.580   1.855   1.596 -0.1146 -0.2751  0.2991
  737SOL    HW1 2995   2.526   1.788   1.555 -1.3772  0.6636  0.3359
  737SOL    HW2 2996   2.551   1.937   1.555  2.5897  0.1256 -1.0247
  738SOL     OW 2997   2.829   0.074   0.492 -0.6878 -0.0893 -0.9306
  738SOL    HW1 2998   2.803   0.112   0.576  0.8916  2.8637 -1.6515
  738SOL    HW2 2999   2.893   0.007   0.515  0.4945  1.3713  0.2408
  739SOL     OW 3000   3.048   2.673   2.870  0.1452 -0.4097  0.4948
  739SOL    HW1 3001   3.058   2.734   2.797 -0.2098 -1.5549 -0.5498
  739SOL    HW2 3002   3.002   2.723   2.936  1.7854  1.1193  0.5523
  740SOL     OW 3003   1.896   0.329   0.258 -0.4145 -0.4012  0.1490
  740SOL    HW1 3004   1.860   0.338   0.347  1.3722 -0.7222  0.9481
  740SOL    HW2 3005   1.854   0.251   0.223 -0.1475 -1.0578  1.2442
  741SOL     OW 3006   2.955   1.635   3.169  0.0402 -0.1400 -0.2486
  741SOL    HW1 3007   2.877   1.615   3.220  1.4263 -1.8043  1.3372
  741SOL    HW2 3008   3.017   1.671   3.233  0.9725  0.0625 -1.2380
  742SOL     OW 3009   2.662   2.403   2.955 -0.1151  0.0418 -0.2522
  742SOL    HW1 3010   2.591   2.362   2.906  0.3763 -0.5681 -0.4810
  742SOL    HW2 3011   2.659   2.361   3.041 -0.2907  0.3162 -0.1240
  743SOL     OW 3012   1.872   2.650   3.208 -0.1237  0.3578 -0.2120
  743SOL    HW1 3013   1.894   2.626   3.118  0.1836  1.4821 -0.4524
  743SOL    HW2 3014   1.792   2.602   3.227  0.1201 -0.3372 -0.8827
  744SOL     OW 3015   2.704   3.057   1.666 -0.3393  0.5368 -0.1092
  744SOL    HW1 3016   2.799   3.067   1.661 -0.4491  1.6915 -0.1868
  744SOL    HW2 3017   2.688   3.010   1.748  0.2360  1.4141  0.5207
  745SOL     OW 3018   1.293   2.930   2.054 -0.0731 -0.4660  0.6313
  745SOL    HW1 3019   1.252   2.977   2.127 -0.9060 -0.2090  0.0191
  745SOL    HW2 3020   1.260   2.840   2.061  0.4917 -0.6490  1.0378
  746SOL     OW 3021   0.515   1.984   2.873  0.1508 -0.1757 -0.5498
  746SOL    HW1 3022   0.551   1.911   2.823  0.8114 -0.2082 -0.0433
  746SOL    HW2 3023   0.420   1.975   2.865  0.2315 -1.0015 -0.6120
  747SOL     OW 3024   2.210   2.719   1.638 -0.2847  0.4922 -0.2444
  747SOL    HW1 3025   2.132   2.722   1.693  0.2746 -0.4254  0.6488
  747SOL    HW2 3026   2.177   2.707   1.549 -1.1541 -1.2124  0.2627
  748SOL     OW 3027   2.686   0.840   2.924 -0.0639  0.3647 -0.5270
  748SOL    HW1 3028   2.770   0.860   2.966  0.1858 -0.3376 -0.6899
  748SOL    HW2 3029   2.654   0.925   2.893  0.0816  0.7946  0.4548
  749SOL     OW 3030   3.130   2.801   1.901 -0.3927  0.1589  0.2268
  749SOL    HW1 3031   3.059   2.781   1.962 -1.1624  2.2621  0.1279
  749SOL    HW2 3032   3.134   2.726   1.843 -0.9408 -1.0384  1.6663
  750SOL     OW 3033   2.207   0.229   1.220 -0.5338 -0.5805 -0.2729
  750SOL    HW1 3034   2.224   0.238   1.126  0.0623  1.5217 -0.0261
  750SOL    HW2 3035   2.277   0.171   1.251 -0.5883 -1.0924 -1.0761
  751SOL     OW 3036   1.421   1.279   1.439  0.2293 -0.2407  0.2215
  751SOL    HW1 3037   1.478   1.204   1.419  1.9300  1.4012 -1.4277
  751SOL    HW2 3038   1.481   1.349   1.462 -1.1162  1.4386 -1.1248
  752SOL     OW 3039   1.945   0.321   0.880  0.2352  0.0861  0.0720
  752SOL    HW1 3040   1.933   0.415   0.866  0.0552 -0.2335 -2.2309
  752SOL    HW2 3041   1.858   0.284   0.870  0.4817 -0.4366 -0.1810
  753SOL     OW 3042   0.742   0.069   1.058  0.1426  0.7760 -0.0742
  753SOL    HW1 3043   0.652   0.037   1.052 -0.5082  2.3709  0.5008
  753SOL    HW2 3044   0.775   0.031   1.139  0.2279 -0.3283 -0.6067
  754SOL     OW 3045   2.514   0.576   0.991 -0.0235  0.5472 -0.0293
  754SOL    HW1 3046   2.437   0.520   0.976 -0.6062  1.4850 -0.6242
  754SOL    HW2 3047   2.491   0.626   1.070 -0.4060  1.4522 -0.7024
  755SOL     OW 3048   3.176   1.410   0.783 -0.1586  0.3785 -0.1519
  755SOL    HW1 3049   3.170   1.487   0.840  0.0377  1.0560 -1.0301
  755SOL    HW2 3050   3.117   1.346   0.824 -1.5792  1.5503 -0.2552
  756SOL     OW 3051   0.664   2.621   2.046  0.0865 -0.1407 -0.1645
  756SOL    HW1 3052   0.576   2.658   2.051  0.3183  0.2899  0.7879
  756SOL    HW2 3053   0.706   2.669   1.974 -1.1066 -1.7906 -2.0599
  757SOL     OW 3054   1.951   0.663   0.291  0.6870 -0.0178 -0.3735
  757SOL    HW1 3055   1.924   0.575   0.266  1.2734 -0.6208  1.0009
  757SOL    HW2 3056   2.039   0.652   0.326 -0.0327  0.7094  1.8814
  758SOL     OW 3057   1.616   3.013   1.499  0.1181 -0.0157  0.0753
  758SOL    HW1 3058   1.696   3.061   1.478  0.6321 -1.4353 -1.4417
  758SOL    HW2 3059   1.555   3.080   1.528  1.4020  1.2910 -0.1129
  759SOL     OW 3060   0.079   1.859   1.337  0.7139 -0.3009  0.6081
  759SOL    HW1 3061   0.083   1.763   1.330 -0.8337 -0.3282 -0.6969
  759SOL    HW2 3062   0.041   1.875   1.424  0.5394 -0.8994  0.6485
  760SOL     OW 3063   0.746   2.276   1.227 -0.1455 -0.1958  0.0285
  760SOL    HW1 3064   0.818   2.215   1.210  1.0968  0.9325  1.0771
  760SOL    HW2 3065   0.725   2.312   1.140  0.5119 -0.5707 -0.2960
  761SOL     OW 3066   2.186   2.451   1.687 -0.0914 -0.4318 -0.2554
  761SOL    HW1 3067   2.112   2.401   1.652 -0.1129 -0.3158 -0.3759
  761SOL    HW2 3068   2.181   2.536   1.644 -1.3736  0.4945  1.5670
  762SOL     OW 3069   1.138   0.796   1.277 -0.6147  0.6616  0.3025
  762SOL    HW1 3070   1.053   0.835   1.256 -1.3098 -0.8231  0.2145
  762SOL    HW2 3071   1.152   0.818   1.369 -0.8003  1.4375  0.1486
  763SOL     OW 3072   1.338   2.435   1.622 -0.3413  0.0925  0.3718
  763SOL    HW1 3073   1.318   2.346   1.652 -2.6321  0.6619  0.7309
  763SOL    HW2 3074   1.419   2.458   1.668  0.9655 -2.1875 -0.6399
  764SOL     OW 3075   1.637   3.309   0.385  0.3106 -0.2876  0.1472
  764SOL    HW1 3076   1.602   3.365   0.316  1.5837 -1.0192 -1.1645
  764SOL    HW2 3077   1.571   3.241   0.397 -1.1658  1.2934  1.6237
  765SOL     OW 3078   0.531   3.100   1.451 -0.2947 -0.2314 -0.1353
  765SOL    HW1 3079   0.490   3.178   1.488  1.0261  0.0778  0.7027
  765SOL    HW2 3080   0.535   3.038   1.524 -0.9524 -0.9609 -0.6901
  766SOL     OW 3081   2.372   2.115   1.241  0.4098  0.6349  0.3985
  766SOL    HW1 3082   2.344   2.027   1.217 -0.5834  0.9139  0.4788
  766SOL    HW2 3083   2.298   2.171   1.216  1.5817  1.6310 -0.9497
  767SOL     OW 3084   1.824   3.122   2.248 -0.2385  0.1832  0.0890
  767SOL    HW1 3085   1.799   3.214   2.252 -2.1003 -0.2819  0.3488
  767SOL    HW2 3086   1.769   3.079   2.314  1.0272 -1.0308  0.4037
  768SOL     OW 3087   0.678   1.516   0.971 -0.1186  0.1981  0.3956
  768SOL    HW1 3088   0.733   1.582   0.928 -1.0594  0.1686 -0.9288
  768SOL    HW2 3089   0.615   1.490   0.903 -0.3302 -1.4109  1.1713
  769SOL     OW 3090   2.137   2.968   0.587  0.0460  0.6600 -0.0720
  769SOL    HW1 3091   2.167   2.982   0.677  1.1597 -0.2076 -0.2855
  769SOL    HW2 3092   2.161   3.049   0.541 -0.4916  1.0917  0.3856
  770SOL     OW 3093   1.745   1.016   0.725 -0.3524 -0.2532 -0.1337
  770SOL    HW1 3094   1.783   0.928   0.717 -0.3040 -0.2014 -0.5046
  770SOL    HW2 3095   1.672   1.005   0.786  0.6427 -0.2234  1.0941
  771SOL     OW 3096   0.893   1.108   0.038  0.2013  0.0659  0.0604
  771SOL    HW1 3097   0.835   1.175   0.073  0.9471  1.2723 -0.9041
  771SOL    HW2 3098   0.974   1.156   0.019  0.4768 -0.9427 -1.4111
  772SOL     OW 3099   1.994   1.633   3.161 -0.1128  0.1277  0.7364
  772SOL    HW1 3100   1.912   1.669   3.127 -0.6245 -0.1363  1.6471
  772SOL    HW2 3101   2.018   1.564   3.099 -1.1876 -0.5471  1.0251
  773SOL     OW 3102   0.893   0.848   1.197  0.0781  0.3785 -0.0167
  773SOL    HW1 3103   0.856   0.902   1.266  0.5255  0.8939 -0.1741
  773SOL    HW2 3104   0.837   0.864   1.121  0.5592  1.0997 -0.2335
  774SOL     OW 3105   2.840   2.485   2.182  0.5166 -0.8203 -0.2583
  774SOL    HW1 3106   2.748   2.490   2.209  0.1485 -2.0111 -1.1869
  774SOL    HW2 3107   2.837   2.481   2.086  1.3901 -2.7105 -0.2644
  775SOL     OW 3108   1.690   2.113   1.337  0.4248  0.5743  0.0203
  775SOL    HW1 3109   1.733   2.164   1.268 -0.9229 -0.0016 -1.3040
  775SOL    HW2 3110   1.597   2.132   1.327  0.0894 -0.4824  0.8918
  776SOL     OW 3111   0.552   1.269   2.882  0.7662 -0.0851  0.5711
  776SOL    HW1 3112   0.604   1.242   2.958 -0.2623 -1.9444  0.6732
  776SOL    HW2 3113   0.579   1.210   2.812  2.0773  1.9534 -0.7131
  777SOL     OW 3114   0.632   0.199   3.060 -0.2521 -0.0359  0.1466
  777SOL    HW1 3115   0.630   0.140   2.984 -2.5330  0.2365 -0.0767
  777SOL    HW2 3116   0.636   0.139   3.136  0.7115 -0.3417 -0.1250
  778SOL     OW 3117   0.552   2.136   1.067  0.0994 -0.2768 -0.0453
  778SOL    HW1 3118   0.560   2.135   1.162  0.1000  1.0053 -0.0162
  778SOL    HW2 3119   0.562   2.228   1.043 -0.7208 -0.4711 -1.2223
  779SOL     OW 3120   2.693   1.808   1.222  0.2196 -0.6688  0.7121
  779SOL    HW1 3121   2.615   1.771   1.263 -0.4811 -1.5538 -1.2681
  779SOL    HW2 3122   2.673   1.901   1.213 -0.5199 -0.8365  0.4861
  780SOL     OW 3123   1.920   2.503   0.133 -0.5223  0.0989 -0.2568
  780SOL    HW1 3124   1.924   2.561   0.209 -3.1648 -0.8194  0.6919
  780SOL    HW2 3125   1.941   2.559   0.058  0.3495  1.4384  0.9461
  781SOL     OW 3126   3.216   2.221   1.323 -0.1884 -0.4322 -0.1979
  781SOL    HW1 3127   3.221   2.264   1.408  2.0929 -1.0119  0.0146
  781SOL    HW2 3128   3.289   2.256   1.273 -0.3533 -1.5093 -1.2409
  782SOL     OW 3129   0.714   2.751   1.816  0.0439  0.0885 -0.2881
  782SOL    HW1 3130   0.792   2.806   1.810 -0.9873  1.6715  0.0718
  782SOL    HW2 3131   0.668   2.766   1.733  1.1042 -2.4830 -1.4236
  783SOL     OW 3132   0.718   2.122   0.782  0.3182 -0.0262 -0.3175
  783SOL    HW1 3133   0.675   2.178   0.717  0.6401  0.3214 -0.2328
  783SOL    HW2 3134   0.768   2.183   0.836 -0.3941 -0.2507  0.6027
  784SOL     OW 3135   1.881   0.898   0.399  0.9354 -0.1548  0.0779
  784SOL    HW1 3136   1.906   0.810   0.374  0.2483 -1.1429  2.5568
  784SOL    HW2 3137   1.807   0.920   0.342  0.7422 -1.4110 -0.1664
  785SOL     OW 3138   2.353   0.346   2.968 -0.3006 -0.2740  0.1633
  785SOL    HW1 3139   2.356   0.434   2.931  1.7066  0.6029  2.1297
  785SOL    HW2 3140   2.393   0.290   2.902 -0.4724  0.5068 -0.6152
  786SOL     OW 3141   2.356   3.179   2.229 -0.3200 -0.7056  0.4990
  786SOL    HW1 3142   2.416   3.159   2.157 -0.3445 -0.5686  0.4397
  786SOL    HW2 3143   2.269   3.164   2.193 -0.3651  0.0012  0.2893
  787SOL     OW 3144   2.079   3.136   1.083 -0.0144 -0.0073  0.4673
  787SOL    HW1 3145   2.020   3.200   1.044 -0.3560 -0.7702 -0.2782
  787SOL    HW2 3146   2.148   3.124   1.018  1.5884  1.6350  1.7256
  788SOL     OW 3147   2.582   0.030   1.908 -0.4614  0.2865  0.1104
  788SOL    HW1 3148   2.602   0.117   1.874 -0.4571  0.9189  1.6307
  788SOL    HW2 3149   2.663  -0.020   1.896  0.1464  1.0542  0.8522
  789SOL     OW 3150   0.291   1.271   3.099  0.2740  0.6715 -0.2438
  789SOL    HW1 3151   0.300   1.317   3.015 -1.0608  1.4721  0.0155
  789SOL    HW2 3152   0.208   1.303   3.135 -0.3791 -1.4289  0.2956
  790SOL     OW 3153   0.376   2.687   2.008 -0.2098  0.0139 -0.2517
  790SOL    HW1 3154   0.362   2.709   1.916  0.2434  1.8010  0.0625
  790SOL    HW2 3155   0.309   2.622   2.028  0.4047 -1.2884 -2.1180
  791SOL     OW 3156   2.448   2.999   2.401  0.3877 -0.4186  0.1252
  791SOL    HW1 3157   2.417   3.070   2.346  0.6218 -1.1853 -1.0327
  791SOL    HW2 3158   2.423   3.024   2.490 -0.6503  0.5015 -0.4061
  792SOL     OW 3159   0.024   2.066   1.798  0.3354  0.6539 -0.0195
  792SOL    HW1 3160  -0.050   2.104   1.846 -0.5474  0.9103 -1.4946
  792SOL    HW2 3161   0.101   2.103   1.839 -0.3954  1.2284  0.8804
  793SOL     OW 3162   2.679   2.847   1.849 -0.5147 -0.1812 -0.2164
  793SOL    HW1 3163   2.721   2.879   1.928  0.2420 -0.1153 -0.6436
  793SOL    HW2 3164   2.592   2.819   1.878 -0.6267  0.8201  0.4351
  794SOL     OW 3165   1.898   3.305   0.938  0.2178  0.3103 -0.2414
  794SOL    HW1 3166   1.810   3.291   0.902  0.1413 -1.1309  0.4550
  794SOL    HW2 3167   1.954   3.313   0.861 -0.2130 -0.9147 -0.6986
  795SOL     OW 3168   1.368   0.288   2.808  0.8787 -0.2632  0.0696
  795SOL    HW1 3169   1.417   0.218   2.852 -1.3998 -1.4551  0.8792
  795SOL    HW2 3170   1.280   0.253   2.798  0.4894  1.2116 -2.6770
  796SOL     OW 3171   1.421   2.187   1.319 -0.0407  0.2159  0.4432
  796SOL    HW1 3172   1.384   2.138   1.245  1.3962  1.2083 -1.0075
  796SOL    HW2 3173   1.365   2.264   1.327  0.0970  0.3652  0.0256
  797SOL     OW 3174   3.026   0.147   1.109  0.0757  0.4240  0.1027
  797SOL    HW1 3175   3.038   0.242   1.119 -0.2440  0.3721  1.1430
  797SOL    HW2 3176   2.931   0.135   1.114  0.0905  0.0885 -0.4293
  798SOL     OW 3177   1.061   0.084   0.166  0.4279 -0.3287 -0.0118
  798SOL    HW1 3178   1.127   0.083   0.236 -1.2523 -0.0466  1.6773
  798SOL    HW2 3179   1.081   0.163   0.115  1.1770 -0.0456  0.7045
  799SOL     OW 3180   0.319   0.224   0.019 -0.2384  0.1951  0.6727
  799SOL    HW1 3181   0.350   0.140   0.053 -1.6572 -0.4960  0.3287
  799SOL    HW2 3182   0.298   0.206  -0.073  1.6918  1.5454 -0.0816
  800SOL     OW 3183   3.004   2.437   2.714  0.1246  0.2588  0.3999
  800SOL    HW1 3184   3.046   2.515   2.750  1.5724 -0.5636  0.5599
  800SOL    HW2 3185   2.965   2.467   2.631  0.7359  1.1176  0.4126
  801SOL     OW 3186   1.747   0.131   0.571  0.2141  0.4021  0.7706
  801SOL    HW1 3187   1.715   0.075   0.500  1.6179  0.7035 -0.1465
  801SOL    HW2 3188   1.732   0.080   0.650 -0.5318 -0.3400  0.1725
  802SOL     OW 3189   1.144   1.946   1.559  0.0921  0.0961 -0.3603
  802SOL    HW1 3190   1.113   1.943   1.650 -1.4841  0.5479 -0.8525
  802SOL    HW2 3191   1.091   1.881   1.513  1.2845 -0.5557 -0.8709
  803SOL     OW 3192   2.026   1.481   0.541  0.0206  0.3279  0.2100
  803SOL    HW1 3193   1.956   1.416   0.534 -0.5319  1.0502 -1.6205
  803SOL    HW2 3194   2.013   1.522   0.626 -1.4732  0.0938  0.1142
  804SOL     OW 3195   0.416   0.864   0.647 -0.6833  0.1673 -0.4444
  804SOL    HW1 3196   0.410   0.955   0.676  1.0117  0.1521  0.0500
  804SOL    HW2 3197   0.424   0.869   0.552  1.5482  0.6894 -0.2677
  805SOL     OW 3198   2.626   1.094   2.853 -0.1471 -0.2464 -0.3471
  805SOL    HW1 3199   2.540   1.100   2.896 -0.4220 -0.7015 -0.8251
  805SOL    HW2 3200   2.632   1.175   2.802 -0.5999 -0.5201 -0.8537
  806SOL     OW 3201   0.936   1.535   3.019 -0.0656 -0.0422 -0.2483
  806SOL    HW1 3202   0.875   1.552   3.091 -0.4372 -0.0796 -0.5522
  806SOL    HW2 3203   0.922   1.608   2.958 -0.8659 -0.8170 -1.0227
  807SOL     OW 3204   0.737   0.940   3.246 -0.2907 -0.8378  0.2684
  807SOL    HW1 3205   0.812   0.991   3.279 -0.7030  0.2530 -0.4204
  807SOL    HW2 3206   0.777   0.861   3.210  0.6814  0.1869 -1.0245
  808SOL     OW 3207   3.219   1.603   0.428 -0.0094 -0.5704  0.1728
  808SOL    HW1 3208   3.281   1.599   0.355  0.5603  0.5213  0.5725
  808SOL    HW2 3209   3.145   1.550   0.399 -0.5343  1.1849 -1.9327
  809SOL     OW 3210   0.176   0.044   1.697  0.5162  0.0770  0.0271
  809SOL    HW1 3211   0.219   0.095   1.765  0.9683  0.5229 -0.5822
  809SOL    HW2 3212   0.103   0.099   1.669 -1.2122 -1.1619  1.8610
  810SOL     OW 3213   2.625   1.781   0.755  0.2531  0.3584 -0.4800
  810SOL    HW1 3214   2.716   1.755   0.767  0.5009  1.1016 -0.6708
  810SOL    HW2 3215   2.629   1.850   0.689 -0.5563 -0.2953 -1.2390
  811SOL     OW 3216   2.302   1.984   2.554 -0.4076 -0.0819  0.3144
  811SOL    HW1 3217   2.385   1.941   2.575  0.9225  1.1626 -1.9476
  811SOL    HW2 3218   2.262   1.926   2.489  1.0354  1.5399 -2.1761
  812SOL     OW 3219   1.110   3.033   2.583 -0.3810 -0.6092 -0.4411
  812SOL    HW1 3220   1.032   3.050   2.532 -0.8006  0.1514  0.4251
  812SOL    HW2 3221   1.082   3.042   2.674  1.2595  2.5579 -0.0868
  813SOL     OW 3222   3.180   0.095   0.240 -0.1165  0.6578 -0.0967
  813SOL    HW1 3223   3.254   0.054   0.284  0.4575  1.1615 -0.5730
  813SOL    HW2 3224   3.141   0.152   0.306  0.0303  0.5194  0.1094
  814SOL     OW 3225   2.767   0.396   0.059 -0.2885  0.1845 -0.2573
  814SOL    HW1 3226   2.847   0.361   0.098  0.0603 -0.3440 -1.4065
  814SOL    HW2 3227   2.795   0.430  -0.027 -1.4466 -0.9345 -1.1139
  815SOL     OW 3228   2.317   1.886   1.750 -0.0822 -0.2177 -0.1367
  815SOL    HW1 3229   2.232   1.916   1.781  0.3293 -0.1879  1.0101
  815SOL    HW2 3230   2.378   1.955   1.776  0.3891 -0.5431 -0.3563
  816SOL     OW 3231   2.423   0.529   0.495 -0.5097 -0.4118  0.0052
  816SOL    HW1 3232   2.467   0.468   0.554  1.1249 -0.3432 -1.0897
  816SOL    HW2 3233   2.395   0.601   0.552  1.2535 -0.2161  0.6931
  817SOL     OW 3234   2.832   2.198   0.360  0.9436  0.0051 -0.1578
  817SOL    HW1 3235   2.765   2.203   0.292  0.2601  1.0243  0.5596
  817SOL    HW2 3236   2.785   2.219   0.441  2.1479  0.8755  0.3472
  818SOL     OW 3237   2.917   2.235   1.858  0.2811 -0.8436  0.5030
  818SOL    HW1 3238   2.857   2.279   1.918 -0.7283 -0.1518 -0.9662
  818SOL    HW2 3239   2.883   2.147   1.849  0.7439 -1.1228  1.3229
  819SOL     OW 3240   1.360   1.089   0.825  0.0927  0.3520  0.3545
  819SOL    HW1 3241   1.413   1.009   0.816 -1.5872 -0.9464  1.4731
  819SOL    HW2 3242   1.292   1.080   0.759  0.5299  1.4371 -0.2690
  820SOL     OW 3243   0.103   1.523   2.670  0.1457 -0.0554 -0.2186
  820SOL    HW1 3244   0.147   1.591   2.720  0.9603  0.0738 -1.0718
  820SOL    HW2 3245   0.110   1.444   2.724 -0.6731  0.4925  0.7066
  821SOL     OW 3246   0.708   1.921   1.834  0.2309 -0.1575  0.2972
  821SOL    HW1 3247   0.678   1.839   1.797 -0.0496 -0.1265  0.4548
  821SOL    HW2 3248   0.682   1.988   1.770  1.9394 -0.3524 -0.6544
  822SOL     OW 3249   0.123   0.859   0.242  0.6585 -0.0197 -0.3292
  822SOL    HW1 3250   0.186   0.793   0.214  1.3994  0.5739 -0.1055
  822SOL    HW2 3251   0.177   0.932   0.272 -0.1332  0.1490  0.7309
  823SOL     OW 3252   2.821   3.183   1.904 -0.7188 -0.1860 -0.4519
  823SOL    HW1 3253   2.886   3.226   1.850 -2.0674 -0.8011 -2.6739
  823SOL    HW2 3254   2.872   3.124   1.960  0.6921  0.0926 -1.4007
  824SOL     OW 3255   1.037   3.079   1.146  0.4259  0.0126  0.6613
  824SOL    HW1 3256   0.985   3.075   1.065 -0.4712  0.5958  1.1935
  824SOL    HW2 3257   1.102   3.010   1.136  1.2193  0.9573 -1.1803
  825SOL     OW 3258   0.788   3.074   1.949 -0.5448 -0.0142  0.0991
  825SOL    HW1 3259   0.699   3.082   1.912  0.1216 -0.2011 -1.6620
  825SOL    HW2 3260   0.839   3.033   1.879  1.4174  2.0029  0.2475
  826SOL     OW 3261   2.986   0.066   1.741 -0.1996  0.0075  0.5461
  826SOL    HW1 3262   2.993   0.158   1.767  0.5513  0.0327  0.2527
  826SOL    HW2 3263   3.027   0.062   1.655  0.7728 -0.8123  1.0341
  827SOL     OW 3264   2.662   2.993   3.072 -0.0774 -0.0771 -0.3296
  827SOL    HW1 3265   2.651   2.911   3.118 -0.7604  0.5937  0.7260
  827SOL    HW2 3266   2.575   3.015   3.039  0.2409 -0.1304 -1.2633
  828SOL     OW 3267   2.280   0.772   0.728 -0.1987  0.4251  0.2035
  828SOL    HW1 3268   2.366   0.729   0.730 -0.5909 -0.5165 -1.4188
  828SOL    HW2 3269   2.299   0.864   0.709  0.4210 -0.0711 -1.8457
  829SOL     OW 3270   2.997   1.537   0.123  0.0522 -0.0619 -0.0879
  829SOL    HW1 3271   2.903   1.520   0.121  0.1954 -1.1272  1.2016
  829SOL    HW2 3272   3.005   1.621   0.168 -0.1474 -1.8267  3.6077
  830SOL     OW 3273   1.302   2.317   2.391 -0.2864 -0.3257 -0.1942
  830SOL    HW1 3274   1.210   2.335   2.412 -0.2487 -0.2654 -0.0839
  830SOL    HW2 3275   1.302   2.225   2.364 -0.4211 -0.2572 -0.4339
  831SOL     OW 3276   3.197   2.592   2.530  0.1440  0.5343 -0.1182
  831SOL    HW1 3277   3.255   2.643   2.474  0.3905 -0.8953 -1.2418
  831SOL    HW2 3278   3.162   2.655   2.592 -0.9845  2.4421 -2.5246
  832SOL     OW 3279   2.148   0.740   0.125 -0.1608 -0.0809 -0.2581
  832SOL    HW1 3280   2.148   0.828   0.163 -0.7410 -0.0839 -0.2474
  832SOL    HW2 3281   2.056   0.714   0.124 -0.2990  0.3058 -2.5465
  833SOL     OW 3282   0.398   0.333   3.048 -0.6618 -0.1770 -0.0160
  833SOL    HW1 3283   0.453   0.409   3.027 -0.6918  0.5918  2.3665
  833SOL    HW2 3284   0.461   0.265   3.075 -0.7259 -0.4525 -0.5451
  834SOL     OW 3285   1.465   1.832   3.301  0.4634  0.3114 -0.2886
  834SOL    HW1 3286   1.553   1.870   3.296  1.0171 -0.8516  0.4295
  834SOL    HW2 3287   1.434   1.834   3.211  1.3059  0.5269 -0.5895
  835NA      NA 3288   1.714   2.360   0.154 -0.1622 -0.1507  0.0595
  836NA      NA 3289   1.115   2.561   3.284 -0.2697 -0.1454 -0.5004
  837NA      NA 3290   0.838   2.850   3.301 -0.1890 -0.1177 -0.1473
  838NA      NA 3291   0.078   2.363   1.002  0.3230  0.0194 -0.0799
  839NA      NA 3292   0.991   1.836   3.269 -0.0212 -0.0338  0.4907
  840NA      NA 3293   3.110   2.688   0.585  0.0792 -0.0756  0.2409
  841NA      NA 3294   0.564   1.582   3.181  0.1785  0.3992 -0.1773
  842NA      NA 3295   0.577   3.155   0.391 -0.4265  0.0994 -0.0143
  843NA      NA 3296   0.487   2.765   0.990  0.2585 -0.3873  0.0833
  844NA      NA 3297   0.567   3.078   1.205  0.1805  0.1841 -0.1029
  845NA      NA 3298   1.352   1.904   0.564 -0.1202  0.0624  0.3712
  846NA      NA 3299   1.109   2.551   0.772 -0.2770 -0.3475 -0.1820
  847NA      NA 3300   0.348   2.088   0.588 -0.2536 -0.0776 -0.4127
  848NA      NA 3301   3.181   3.048   0.392  0.1012  0.1542  0.3808
  849NA      NA 3302   2.769   2.642   0.385 -0.0865 -0.1566 -0.2392
  850NA      NA 3303   0.909   1.535   0.598  0.1349  0.1025 -0.1229
  851NA      NA 3304   0.642   1.785   0.174 -0.2075  0.2403 -0.0203
  852NA      NA 3305   0.321   2.006   1.006  0.4274 -0.0597 -0.2669
  853NA      NA 3306   1.446   2.623   3.087 -0.5126  0.2461  0.1717
  854NA      NA 3307   3.290   2.047   0.346 -0.1698 -0.2756 -0.3061
  855NA      NA 3308   0.831   2.837   0.781 -0.0592 -0.3602  0.0497
  856NA      NA 3309   0.650   0.176   0.188 -0.4842  0.1157  0.0511
  857NA      NA 3310   0.278   1.740   0.324  0.3396  0.0004  0.0233
  858NA      NA 3311   0.212   3.119   0.199 -0.3723 -0.1312 -0.0889
  859NA      NA 3312   0.217   1.723   0.752  0.5125 -0.1503  0.0352
  860NA      NA 3313   0.407   2.460   2.901  0.1797 -0.3304 -0.1505
  861NA      NA 3314   1.472   2.611   0.969 -0.1776 -0.1516 -0.1108
  862NA      NA 3315   0.203   3.107   0.608  0.1304 -0.2339  0.0492
  863NA      NA 3316   3.299   2.009   1.179 -0.3489  0.2767 -0.2489
  864NA      NA 3317   2.407   2.790   0.767  0.1747 -0.1971 -0.1982
  865NA      NA 3318   0.986   1.862   0.358 -0.1100  0.1404 -0.1557
  866NA      NA 3319   1.188   2.889   0.184  0.1487 -0.5359 -0.0487
  867NA      NA 3320   1.394   2.283   0.366 -0.0831 -0.1000 -0.0296
  868NA      NA 3321   0.916   3.215   3.124 -0.5188  0.1724 -0.0445
  869NA      NA 3322   1.868   2.417   0.856 -0.5897  0.0731  0.2390
  870NA      NA 3323   0.705   2.157   2.888  0.0600 -0.5859  0.2970
  871NA      NA 3324   1.460   2.610   0.572  0.0713  0.2777 -0.1347
  872NA      NA 3325   1.674   1.979   0.371  0.0160  0.3752 -0.4101
  873NA      NA 3326   0.586   1.775   0.573 -0.3611 -0.0534  0.3005
  874NA      NA 3327   3.026   2.366   0.377 -0.2227  0.0594  0.0939
  875NA      NA 3328   0.763   2.518   0.585 -0.1339  0.0456 -0.2733
  876NA      NA 3329   1.047   1.831   0.849  0.3856 -0.0949  0.2205
  877NA      NA 3330   0.923   3.214   0.197  0.0950 -0.1105 -0.0333
  878NA      NA 3331   0.137   2.745   0.398 -0.3294 -0.1854 -0.1043
  879NA      NA 3332   0.818   2.885   2.898  0.1134  0.1369  0.5270
  880NA      NA 3333   0.474   2.800   0.201 -0.1397 -0.8812  0.2657
  881NA      NA 3334   0.287   0.134   0.413  0.4049 -0.7462 -0.1082
  882NA      NA 3335   0.557   3.157   0.000 -0.5649  0.4565 -0.0251
  883NA      NA 3336   1.445   2.624   0.172  0.0608  0.2378  0.3896
  884NA      NA 3337   1.062   2.212   0.167  0.2854  0.5888 -0.0408
  885NA      NA 3338   0.413   2.456   3.291  0.2138 -0.1008 -0.1987
  886NA      NA 3339   0.066   2.406   0.193 -0.0611  0.2027  0.2532
  887NA      NA 3340   0.756   2.502   3.078 -0.1714 -0.4322 -0.0512
  888NA      NA 3341   0.130   2.700   1.216  0.3643  0.1941  0.2545
  889NA      NA 3342   2.848   2.991   0.600  0.1302 -0.0769  0.0635
  890NA      NA 3343   1.329   1.927   0.170 -0.2968  0.0204 -0.4362
  891NA      NA 3344   1.093   2.587   2.881  0.1061 -0.3601 -0.1037
  892NA      NA 3345   3.184   3.019   0.796 -0.0381  0.2037  0.1782
  893NA      NA 3346   1.403   2.248   3.273  0.2353  0.0484 -0.4151
  894NA      NA 3347   3.099   2.734   0.189  0.1724 -0.4677  0.4358
  895NA      NA 3348   0.759   2.485   0.161 -0.2478 -0.1101 -0.0812
  896NA      NA 3349   0.426   2.442   0.382  0.1057 -0.1500 -0.4694
  897NA      NA 3350   0.686   2.166   0.348 -0.5968 -0.1790  0.1313
  898NA      NA 3351   1.156   2.960   3.058 -0.1016 -0.0176 -0.0104
  899NA      NA 3352   0.542   3.133   0.802  0.0735  0.2217 -0.5012
  900NA      NA 3353   0.060   2.413   3.107 -0.0808  0.0653 -0.2796
  901NA      NA 3354   0.000   2.041   0.748 -0.2115  0.3106  0.2941
  902NA      NA 3355   1.094   2.202   1.001  0.0649 -0.2457 -0.0653
  903NA      NA 3356   1.393   2.262   0.771  0.2485 -0.0055 -0.2599
  904NA      NA 3357   0.502   2.808   3.106 -0.0677  0.5425 -0.0220
  905NA      NA 3358   0.134   2.731   0.812 -0.0804  0.1775  0.0670
  906NA      NA 3359   3.089   2.670   1.009  0.2422 -0.2840 -0.1167
  907NA      NA 3360   0.283   0.114   0.843 -0.2787  0.0907  0.3430
  908NA      NA 3361   0.474   2.809   0.581  0.6707  0.4993  0.0657
  909NA      NA 3362   2.752   2.639   0.777  0.2515  0.7261  0.0111
  910NA      NA 3363   3.032   2.331   0.768 -0.1757 -0.1104 -0.0925
  911NA      NA 3364   0.676   1.938   0.929  0.2911 -0.1151 -0.0134
  912NA      NA 3365   0.013   2.054   3.268  0.0904  0.1091  0.0234
  913NA      NA 3366   0.051   2.382   0.581 -0.3159  0.0481  0.0652
  914NA      NA 3367   0.935   1.514   0.189 -0.0527  0.1925  0.6172
  915NA      NA 3368   0.144   2.750   3.313 -0.3073  0.0538  0.1702
  916NA      NA 3369   1.727   2.311   0.546  0.6208  0.0038  0.0530
  917NA      NA 3370   1.179   2.924   0.603 -0.1970 -0.5294 -0.3248
  918NA      NA 3371   0.898   3.207   0.568  0.5014  0.0080  0.6899
  919NA      NA 3372   1.059   2.192   0.582 -0.0931  0.0416  0.1235
  920NA      NA 3373   0.714   2.135   3.275  0.3509  0.3381 -0.1947
  921NA      NA 3374   3.260   0.056   0.652  0.2330 -0.1474  0.1638
  922NA      NA 3375   1.279   1.589   0.390  0.3533  0.0599  0.4461
  923NA      NA 3376   0.207   3.060   1.024 -0.3345  0.1688  0.1772
  924NA      NA 3377   1.111   2.569   0.382 -0.0921 -0.2334 -0.3458
  925NA      NA 3378   3.032   2.307   1.187 -0.2637 -0.8266  0.4179
  926NA      NA 3379   0.843   2.860   0.373  0.0229 -0.3587  0.4987
  927NA      NA 3380   0.342   2.102   0.185 -0.6715 -0.1792 -0.2953
  928NA      NA 3381   0.423   2.443   0.754 -0.1611  0.0143 -0.5231
  929NA      NA 3382   1.034   2.228   3.080 -0.0045 -0.0572  0.0395
  930NA      NA 3383   2.538   0.441   0.069  0.0652  0.1248  0.3480
  931NA      NA 3384   3.021   2.393   3.290 -0.2055  0.6044  0.2679
  932NA      NA 3385   0.619   0.199   0.587  0.5114  0.1890  0.5354
  933CL      CL 3386   1.145   1.724   0.154  0.1516  0.2237  0.1189
  934CL      CL 3387   0.708   3.001   0.582  0.1307 -0.4937 -0.3172
  935CL      CL 3388   0.896   2.355   2.875 -0.2142  0.0970  0.0467
  936CL      CL 3389   3.172   2.174   0.970  0.1128 -0.2046 -0.3188
  937CL      CL 3390   0.271   2.599   0.179 -0.0952 -0.3151 -0.2814
  938CL      CL 3391   0.611   2.657   2.899  0.3664  0.1532 -0.2536
  939CL      CL 3392   0.808   1.631   3.299  0.0182  0.0004 -0.1582
  940CL      CL 3393   2.631   2.815   0.580 -0.0924  0.4198  0.3212
  941CL      CL 3394   0.706   2.955   1.025  0.3770 -0.0020 -0.1610
  942CL      CL 3395   3.069   3.176   0.611  0.0645  0.0719  0.0195
  943CL      CL 3396   3.240   2.519   1.186 -0.1100 -0.0905  0.2598
  944CL      CL 3397   1.007   3.095   2.880  0.2525 -0.0313 -0.2547
  945CL      CL 3398   3.167   2.211   0.163  0.0356 -0.2004 -0.1007
  946CL      CL 3399   1.270   2.431   0.981  0.1164  0.1749 -0.0714
  947CL      CL 3400   2.953   2.830   0.807  0.1716 -0.0339  0.2703
  948CL      CL 3401   0.505   1.951   0.370 -0.0572 -0.0143 -0.0581
  949CL      CL 3402   1.539   2.113   0.571 -0.3035 -0.3762 -0.2433
  950CL      CL 3403   0.554   2.282   0.571 -0.1003 -0.5967  0.0279
  951CL      CL 3404   1.049   3.061   0.381 -0.2567 -0.3095  0.4920
  952CL      CL 3405   0.431   1.634   0.093 -0.1121 -0.0972 -0.4774
  953CL      CL 3406   0.617   2.657   0.776  0.0532  0.3035  0.4904
  954CL      CL 3407   2.963   2.860   0.382 -0.0348  0.0467 -0.1528
  955CL      CL 3408   1.239   2.406   3.063  0.5235 -0.1942 -0.2824
  956CL      CL 3409   0.914   2.008   1.063  0.0838 -0.3210  0.0050
  957CL      CL 3410   0.095   1.890   0.547 -0.1514 -0.1700 -0.3384
  958CL      CL 3411   1.589   2.475   0.371 -0.3353  0.1097  0.1046
  959CL      CL 3412   0.214   2.226   0.793  0.0180 -0.0834 -0.1021
  960CL      CL 3413   0.344   2.899   1.195 -0.3174 -0.1912 -0.1271
  961CL      CL 3414   2.886   2.450   0.973  0.1560  0.4628  0.2061
  962CL      CL 3415   0.397   1.604   0.513  0.2864  0.5056  0.2317
  963CL      CL 3416   0.079   3.258   0.412 -0.1990 -0.0203 -0.1477
  964CL      CL 3417   0.907   2.356   0.382 -0.3377 -0.0757  0.0086
  965CL      CL 3418   0.795   1.738   0.769  0.5729 -0.2098  0.0700
  966CL      CL 3419   0.696   2.994   0.187  0.3300  0.0285  0.1144
  967CL      CL 3420   0.954   2.716   3.087 -0.3837  0.3851 -0.1524
  968CL      CL 3421   2.899   2.488   0.581  0.3796 -0.2308  0.0462
  969CL      CL 3422   0.753   0.037   3.297 -0.2582  0.2898 -0.1461
  970CL      CL 3423   1.300   2.763   2.878  0.1816 -0.0689 -0.0441
  971CL      CL 3424   0.785   0.054   0.403  0.2945 -0.0061  0.2439
  972CL      CL 3425   0.358   2.955   3.307 -0.5567  0.0493 -0.2543
  973CL      CL 3426   0.844   1.990   3.080  0.4556  0.0161 -0.0752
  974CL      CL 3427   0.347   2.955   0.386 -0.1266 -0.0394  0.1354
  975CL      CL 3428   1.602   2.457   0.771  0.0508  0.2407  0.0199
  976CL      CL 3429   3.245   2.565   0.381  0.1659  0.0030 -0.3266
  977CL      CL 3430   0.056   1.846   0.925  0.1861 -0.1428  0.0474
  978CL      CL 3431   1.186   2.052   0.371  0.0424  0.3215 -0.3556
  979CL      CL 3432   0.276   2.568   0.987 -0.2325 -0.0656  0.2087
  980CL      CL 3433   0.910   2.364   0.791 -0.0687  0.1176 -0.4376
  981CL      CL 3434   0.005   2.890   0.587 -0.1623 -0.1009  0.2068
  982CL      CL 3435   0.544   2.308   0.167  0.0440  0.0603 -0.0649
  983CL      CL 3436   3.312   2.876   1.010  0.2134  0.0988  0.3940
  984CL      CL 3437   1.875   2.182   0.365  0.2778 -0.1420  0.2432
  985CL      CL 3438   0.527   0.345   0.377 -0.1883  0.1398  0.0671
  986CL      CL 3439   0.571   2.303   3.096  0.1506 -0.0639  0.2537
  987CL      CL 3440   3.245   2.535   0.799  0.2103  0.0524  0.2170
  988CL      CL 3441   1.192   2.058   0.783  0.1957 -0.1465 -0.0637
  989CL      CL 3442   1.327   2.782   0.797  0.2907  0.1660  0.1564
  990CL      CL 3443   0.836   2.007   0.167  0.0353 -0.1623  0.0259
  991CL      CL 3444   1.250   2.414   0.575  0.3247 -0.3149 -0.2415
  992CL      CL 3445   0.908   2.352   3.285 -0.1826  0.0831 -0.3281
  993CL      CL 3446   1.830   2.296   1.105 -0.1422 -0.0405  0.1005
  994CL      CL 3447   0.203   2.229   0.375 -0.0448 -0.2177 -0.3178
  995CL      CL 3448   3.171   2.202   0.565  0.4360 -0.0609 -0.3243
  996CL      CL 3449   3.316   2.925   0.179 -0.1797  0.0028  0.0858
  997CL      CL 3450   0.149   0.266   0.655 -0.1105 -0.1123 -0.2472
  998CL      CL 3451   0.436   3.301   0.199 -0.1803 -0.0231 -0.1399
  999CL      CL 3452   2.275   3.016   0.866 -0.1767  0.3772  0.3103
 1000CL      CL 3453   0.079   3.212   0.824 -0.2440  0.0134  0.0918
 1001CL      CL 3454   0.347   2.928   0.799 -0.3562  0.0429 -0.1910
 1002CL      CL 3455   2.160   2.387   0.867 -0.1517  0.1328  0.0712
 1003CL      CL 3456   1.143   1.373   0.304 -0.2727  0.3275  0.2869
 1004CL      CL 3457   3.247   2.586   3.301 -0.1377 -0.1133  0.1792
 1005CL      CL 3458   1.123   1.731   0.566 -0.0120  0.1138  0.1523
 1006CL      CL 3459   1.576   2.472   3.280 -0.0545 -0.3329  0.1541
 1007CL      CL 3460   1.031   3.054   3.308  0.0424 -0.0381  0.2059
 1008CL      CL 3461   3.186   2.213   3.070 -0.1013  0.2616 -0.2833
 1009CL      CL 3462   1.012   3.052   0.807 -0.0848  0.1035 -0.2490
 1010CL      CL 3463   0.119   1.907   0.152 -0.1382 -0.1064 -0.4717
 1011CL      CL 3464   2.885   2.527   0.172 -0.4650 -0.0403 -0.0635
 1012CL      CL 3465   0.980   2.701   0.162 -0.0432  0.1339 -0.0121
 1013CL      CL 3466   1.334   2.767   0.367 -0.2636 -0.1599 -0.3552
 1014CL      CL 3467   0.630   2.651   3.291  0.0097 -0.2835  0.5710
 1015CL      CL 3468   0.284   2.606   3.095 -0.0647 -0.2898  0.6239
 1016CL      CL 3469   0.976   2.709   0.578  0.5225 -0.0880  0.2596
 1017CL      CL 3470   0.805   1.671   0.383  0.5815 -0.2371  0.0043
 1018CL      CL 3471   0.445   3.246   1.017 -0.4649  0.0501  0.2538
 1019CL      CL 3472   1.255   2.407   0.165  0.0291 -0.5817  0.1110
 1020CL      CL 3473   1.477   1.774   0.362  0.0718 -0.2371 -0.0721
 1021CL      CL 3474   0.692   3.021   3.103 -0.2272 -0.0109  0.1778
 1022CL      CL 3475   1.543   2.121   0.158  0.1014  0.5948 -0.1592
 1023CL      CL 3476   1.305   2.760   3.283 -0.2257  0.0316  0.2089
 1024CL      CL 3477   0.204   2.188   1.185 -0.0354 -0.1135 -0.2378
 1025CL      CL 3478   0.625   2.640   0.377 -0.1187 -0.1605  0.0504
 1026CL      CL 3479   0.434   1.899   0.782  0.1264  0.1913 -0.0250
 1027CL      CL 3480   0.198   2.257   3.292 -0.2334  0.0224 -0.1001
 1028CL      CL 3481   0.437   3.314   0.604  0.2533  0.3189 -0.1111
 1029CL      CL 3482   1.183   2.081   3.275  0.2154 -0.1498 -0.2116
 1030CL      CL 3483   0.278   2.579   0.586 -0.1018 -0.2574  0.3889
   3.31896   3.31896   3.31896
