
; Energy Minimization Parameters
; ------------------------------
; This MDP file is used for energy minimization to remove steric clashes
; and relax the system before equilibration.

; Run parameters
integrator              = steep         ; Algorithm for energy minimization
emtol                   = 10.0          ; Convergence criterion (kJ/mol/nm)
emstep                  = 0.01          ; Step size for minimization
nsteps                  = 10000         ; Maximum number of steps

; Output control
nstenergy               = 1             ; Frequency to write energies

; Bonded parameters
constraints             = none          ; No constraints during minimization

; Nonbonded settings
cutoff-scheme           = Verlet        ; Buffered neighbor searching
rlist                   = 1.3           ; Short-range neighbor list cutoff (nm)
rvdw                    = 1.3           ; Short-range van der Waals cutoff (nm)

; Electrostatics settings
coulombtype             = PME           ; Particle Mesh Ewald for long-range electrostatics
rcoulomb                = 1.3           ; Short-range electrostatic cutoff (nm)

; Periodic boundary conditions
pbc                     = xyz           ; Periodic boundary conditions in all directions
