*****
    12
   1.0200000   0.0580000   0.0800000   2.5370000   0.0750000   0.0550000
   3.0710000   0.8480000  -1.1430000   4.4920000   0.8400000  -1.1290000
   0.6590000  -0.5020000   0.9480000   0.6190000  -0.4160000  -0.8220000
   0.6180000   1.0750000   0.1410000   2.9220000  -0.9510000   0.0320000
   2.9190000   0.5200000   0.9820000   2.7300000   1.8880000  -1.1310000
   2.7400000   0.3900000  -2.0800000   4.7790000   1.2710000  -0.3060000
