%VERSION  VERSION_STAMP = V0001.000  DATE = 12/15/25  08:30:02                  
%FLAG TITLE                                                                     
%FORMAT(20a4)                                                                   
PEO                                                                             
%FLAG POINTERS                                                                  
%FORMAT(10I8)                                                                   
     175       3     100      74     246      73     388     216       0       0
     858       5      74      73     216       3       5      10       3       0
       0       0       0       0       0       0       0       0      35       0
       0
%FLAG ATOM_NAME                                                                 
%FORMAT(20a4)                                                                   
C1  H3  H4  O   C2  H5  H6  C3  H7  H8  O1  C4  H9  H10 C5  H11 H12 O2  C6  H13 
H14 C7  H15 H16 O3  C8  H17 H18 C9  H19 H20 O4  C10 H21 H22 C1  H3  H4  O   C2  
H5  H6  C3  H7  H8  O1  C4  H9  H10 C5  H11 H12 O2  C6  H13 H14 C7  H15 H16 O3  
C8  H17 H18 C9  H19 H20 O4  C10 H21 H22 C1  H3  H4  O   C2  H5  H6  C3  H7  H8  
O1  C4  H9  H10 C5  H11 H12 O2  C6  H13 H14 C7  H15 H16 O3  C8  H17 H18 C9  H19 
H20 O4  C10 H21 H22 C1  H3  H4  O   C2  H5  H6  C3  H7  H8  O1  C4  H9  H10 C5  
H11 H12 O2  C6  H13 H14 C7  H15 H16 O3  C8  H17 H18 C9  H19 H20 O4  C10 H21 H22 
C1  H3  H4  O   C2  H5  H6  C3  H7  H8  O1  C4  H9  H10 C5  H11 H12 O2  C6  H13 
H14 C7  H15 H16 O3  C8  H17 H18 C9  H19 H20 O4  C10 H21 H22 
%FLAG CHARGE                                                                    
%FORMAT(5E16.8)                                                                 
  2.45724071E+00  4.76968703E-01  4.76968703E-01 -7.66564783E+00  2.36445276E+00
  7.36800478E-01  7.36800478E-01  2.42012189E+00  7.92487827E-01  7.92487827E-01
 -7.70141821E+00  2.42012189E+00  7.92487827E-01  7.92487827E-01  2.40157158E+00
  7.73919303E-01  7.73919303E-01 -7.68354213E+00  2.40157158E+00  7.73919303E-01
  7.73919303E-01  2.42012189E+00  7.92487827E-01  7.92487827E-01 -7.70141821E+00
  2.42012189E+00  7.92487827E-01  7.92487827E-01  2.36445276E+00  7.36800478E-01
  7.36800478E-01 -7.66564783E+00  2.45724071E+00  4.76968703E-01  4.76968703E-01
  2.45724071E+00  4.76968703E-01  4.76968703E-01 -7.66564783E+00  2.36445276E+00
  7.36800478E-01  7.36800478E-01  2.42012189E+00  7.92487827E-01  7.92487827E-01
 -7.70141821E+00  2.42012189E+00  7.92487827E-01  7.92487827E-01  2.40157158E+00
  7.73919303E-01  7.73919303E-01 -7.68354213E+00  2.40157158E+00  7.73919303E-01
  7.73919303E-01  2.42012189E+00  7.92487827E-01  7.92487827E-01 -7.70141821E+00
  2.42012189E+00  7.92487827E-01  7.92487827E-01  2.36445276E+00  7.36800478E-01
  7.36800478E-01 -7.66564783E+00  2.45724071E+00  4.76968703E-01  4.76968703E-01
  2.45724071E+00  4.76968703E-01  4.76968703E-01 -7.66564783E+00  2.36445276E+00
  7.36800478E-01  7.36800478E-01  2.42012189E+00  7.92487827E-01  7.92487827E-01
 -7.70141821E+00  2.42012189E+00  7.92487827E-01  7.92487827E-01  2.40157158E+00
  7.73919303E-01  7.73919303E-01 -7.68354213E+00  2.40157158E+00  7.73919303E-01
  7.73919303E-01  2.42012189E+00  7.92487827E-01  7.92487827E-01 -7.70141821E+00
  2.42012189E+00  7.92487827E-01  7.92487827E-01  2.36445276E+00  7.36800478E-01
  7.36800478E-01 -7.66564783E+00  2.45724071E+00  4.76968703E-01  4.76968703E-01
  2.45724071E+00  4.76968703E-01  4.76968703E-01 -7.66564783E+00  2.36445276E+00
  7.36800478E-01  7.36800478E-01  2.42012189E+00  7.92487827E-01  7.92487827E-01
 -7.70141821E+00  2.42012189E+00  7.92487827E-01  7.92487827E-01  2.40157158E+00
  7.73919303E-01  7.73919303E-01 -7.68354213E+00  2.40157158E+00  7.73919303E-01
  7.73919303E-01  2.42012189E+00  7.92487827E-01  7.92487827E-01 -7.70141821E+00
  2.42012189E+00  7.92487827E-01  7.92487827E-01  2.36445276E+00  7.36800478E-01
  7.36800478E-01 -7.66564783E+00  2.45724071E+00  4.76968703E-01  4.76968703E-01
  2.45724071E+00  4.76968703E-01  4.76968703E-01 -7.66564783E+00  2.36445276E+00
  7.36800478E-01  7.36800478E-01  2.42012189E+00  7.92487827E-01  7.92487827E-01
 -7.70141821E+00  2.42012189E+00  7.92487827E-01  7.92487827E-01  2.40157158E+00
  7.73919303E-01  7.73919303E-01 -7.68354213E+00  2.40157158E+00  7.73919303E-01
  7.73919303E-01  2.42012189E+00  7.92487827E-01  7.92487827E-01 -7.70141821E+00
  2.42012189E+00  7.92487827E-01  7.92487827E-01  2.36445276E+00  7.36800478E-01
  7.36800478E-01 -7.66564783E+00  2.45724071E+00  4.76968703E-01  4.76968703E-01
%FLAG ATOMIC_NUMBER                                                             
%FORMAT(10I8)                                                                   
       6       1       1       8       6       1       1       6       1       1
       8       6       1       1       6       1       1       8       6       1
       1       6       1       1       8       6       1       1       6       1
       1       8       6       1       1       6       1       1       8       6
       1       1       6       1       1       8       6       1       1       6
       1       1       8       6       1       1       6       1       1       8
       6       1       1       6       1       1       8       6       1       1
       6       1       1       8       6       1       1       6       1       1
       8       6       1       1       6       1       1       8       6       1
       1       6       1       1       8       6       1       1       6       1
       1       8       6       1       1       6       1       1       8       6
       1       1       6       1       1       8       6       1       1       6
       1       1       8       6       1       1       6       1       1       8
       6       1       1       6       1       1       8       6       1       1
       6       1       1       8       6       1       1       6       1       1
       8       6       1       1       6       1       1       8       6       1
       1       6       1       1       8       6       1       1       6       1
       1       8       6       1       1
%FLAG MASS                                                                      
%FORMAT(5E16.8)                                                                 
  1.20100000E+01  1.00800000E+00  1.00800000E+00  1.60000000E+01  1.20100000E+01
  1.00800000E+00  1.00800000E+00  1.20100000E+01  1.00800000E+00  1.00800000E+00
  1.60000000E+01  1.20100000E+01  1.00800000E+00  1.00800000E+00  1.20100000E+01
  1.00800000E+00  1.00800000E+00  1.60000000E+01  1.20100000E+01  1.00800000E+00
  1.00800000E+00  1.20100000E+01  1.00800000E+00  1.00800000E+00  1.60000000E+01
  1.20100000E+01  1.00800000E+00  1.00800000E+00  1.20100000E+01  1.00800000E+00
  1.00800000E+00  1.60000000E+01  1.20100000E+01  1.00800000E+00  1.00800000E+00
  1.20100000E+01  1.00800000E+00  1.00800000E+00  1.60000000E+01  1.20100000E+01
  1.00800000E+00  1.00800000E+00  1.20100000E+01  1.00800000E+00  1.00800000E+00
  1.60000000E+01  1.20100000E+01  1.00800000E+00  1.00800000E+00  1.20100000E+01
  1.00800000E+00  1.00800000E+00  1.60000000E+01  1.20100000E+01  1.00800000E+00
  1.00800000E+00  1.20100000E+01  1.00800000E+00  1.00800000E+00  1.60000000E+01
  1.20100000E+01  1.00800000E+00  1.00800000E+00  1.20100000E+01  1.00800000E+00
  1.00800000E+00  1.60000000E+01  1.20100000E+01  1.00800000E+00  1.00800000E+00
  1.20100000E+01  1.00800000E+00  1.00800000E+00  1.60000000E+01  1.20100000E+01
  1.00800000E+00  1.00800000E+00  1.20100000E+01  1.00800000E+00  1.00800000E+00
  1.60000000E+01  1.20100000E+01  1.00800000E+00  1.00800000E+00  1.20100000E+01
  1.00800000E+00  1.00800000E+00  1.60000000E+01  1.20100000E+01  1.00800000E+00
  1.00800000E+00  1.20100000E+01  1.00800000E+00  1.00800000E+00  1.60000000E+01
  1.20100000E+01  1.00800000E+00  1.00800000E+00  1.20100000E+01  1.00800000E+00
  1.00800000E+00  1.60000000E+01  1.20100000E+01  1.00800000E+00  1.00800000E+00
  1.20100000E+01  1.00800000E+00  1.00800000E+00  1.60000000E+01  1.20100000E+01
  1.00800000E+00  1.00800000E+00  1.20100000E+01  1.00800000E+00  1.00800000E+00
  1.60000000E+01  1.20100000E+01  1.00800000E+00  1.00800000E+00  1.20100000E+01
  1.00800000E+00  1.00800000E+00  1.60000000E+01  1.20100000E+01  1.00800000E+00
  1.00800000E+00  1.20100000E+01  1.00800000E+00  1.00800000E+00  1.60000000E+01
  1.20100000E+01  1.00800000E+00  1.00800000E+00  1.20100000E+01  1.00800000E+00
  1.00800000E+00  1.60000000E+01  1.20100000E+01  1.00800000E+00  1.00800000E+00
  1.20100000E+01  1.00800000E+00  1.00800000E+00  1.60000000E+01  1.20100000E+01
  1.00800000E+00  1.00800000E+00  1.20100000E+01  1.00800000E+00  1.00800000E+00
  1.60000000E+01  1.20100000E+01  1.00800000E+00  1.00800000E+00  1.20100000E+01
  1.00800000E+00  1.00800000E+00  1.60000000E+01  1.20100000E+01  1.00800000E+00
  1.00800000E+00  1.20100000E+01  1.00800000E+00  1.00800000E+00  1.60000000E+01
  1.20100000E+01  1.00800000E+00  1.00800000E+00  1.20100000E+01  1.00800000E+00
  1.00800000E+00  1.60000000E+01  1.20100000E+01  1.00800000E+00  1.00800000E+00
%FLAG ATOM_TYPE_INDEX                                                           
%FORMAT(10I8)                                                                   
       1       2       2       3       1       2       2       1       2       2
       3       1       2       2       1       2       2       3       1       2
       2       1       2       2       3       1       2       2       1       2
       2       3       1       2       2       1       2       2       3       1
       2       2       1       2       2       3       1       2       2       1
       2       2       3       1       2       2       1       2       2       3
       1       2       2       1       2       2       3       1       2       2
       1       2       2       3       1       2       2       1       2       2
       3       1       2       2       1       2       2       3       1       2
       2       1       2       2       3       1       2       2       1       2
       2       3       1       2       2       1       2       2       3       1
       2       2       1       2       2       3       1       2       2       1
       2       2       3       1       2       2       1       2       2       3
       1       2       2       1       2       2       3       1       2       2
       1       2       2       3       1       2       2       1       2       2
       3       1       2       2       1       2       2       3       1       2
       2       1       2       2       3       1       2       2       1       2
       2       3       1       2       2
%FLAG NUMBER_EXCLUDED_ATOMS                                                     
%FORMAT(10I8)                                                                   
       7       3       2       7       7       5       4       7       3       2
       7       7       5       4       7       3       2       7       7       5
       4       7       3       2       7       7       5       4       7       3
       2       7       7       5       4       7       3       2       7       7
       5       4       7       3       2       7       7       5       4       7
       3       2       7       7       5       4       7       3       2       7
       7       5       4       7       3       2       7       7       5       4
       7       3       2       7       7       5       4       7       3       2
       7       7       5       4       7       3       2       7       7       5
       4       7       3       2       7       7       5       4       7       3
       2       7       7       5       4       7       3       2       7       7
       5       4       7       3       2       7       7       5       4       7
       3       2       7       7       5       4       7       3       2       7
       7       5       4       7       3       2       7       7       5       4
       7       3       2       7       7       5       4       7       3       2
       7       7       5       4       7       3       2       7       7       5
       4       7       3       2       7       7       5       4       6       3
       2       3       2       1       1
%FLAG NONBONDED_PARM_INDEX                                                      
%FORMAT(10I8)                                                                   
       1       2       4       2       3       5       4       5       6
%FLAG RESIDUE_LABEL                                                             
%FORMAT(20a4)                                                                   
PEO PEO PEO PEO PEO 
%FLAG RESIDUE_POINTER                                                           
%FORMAT(10I8)                                                                   
       1      36      71     106     141
%FLAG BOND_FORCE_CONSTANT                                                       
%FORMAT(5E16.8)                                                                 
  3.44220000E+02  2.28890000E+02  2.82270000E+02
%FLAG BOND_EQUIL_VALUE                                                          
%FORMAT(5E16.8)                                                                 
  1.09690000E+00  1.53540000E+00  1.42730000E+00
%FLAG ANGLE_FORCE_CONSTANT                                                      
%FORMAT(5E16.8)                                                                 
  4.32800000E+01  3.56400000E+01  7.74400000E+01  5.62000000E+01  8.83300000E+01
%FLAG ANGLE_EQUIL_VALUE                                                         
%FORMAT(5E16.8)                                                                 
  1.91270715E+00  1.89455572E+00  1.87832415E+00  1.92579712E+00  1.98269488E+00
%FLAG DIHEDRAL_FORCE_CONSTANT                                                   
%FORMAT(5E16.8)                                                                 
  1.55555556E-01  2.50000000E-01  0.00000000E+00  8.80000000E-01  8.00000000E-02
  7.50000000E-01  1.80000000E-01  9.00000000E-01  5.00000000E-01  3.37000000E-01
%FLAG DIHEDRAL_PERIODICITY                                                      
%FORMAT(5E16.8)                                                                 
  3.00000000E+00  1.00000000E+00  3.00000000E+00  1.00000000E+00  2.00000000E+00
  3.00000000E+00  1.00000000E+00  2.00000000E+00  3.00000000E+00  3.00000000E+00
%FLAG DIHEDRAL_PHASE                                                            
%FORMAT(5E16.8)                                                                 
  0.00000000E+00  0.00000000E+00  0.00000000E+00  3.14159400E+00  0.00000000E+00
  0.00000000E+00  0.00000000E+00  0.00000000E+00  0.00000000E+00  0.00000000E+00
%FLAG SCEE_SCALE_FACTOR                                                         
%FORMAT(5E16.8)                                                                 
  1.20000000E+00  1.20000000E+00  1.20000000E+00  1.20000000E+00  1.20000000E+00
  1.20000000E+00  1.20000000E+00  1.20000000E+00  1.20000000E+00  1.20000000E+00
%FLAG SCNB_SCALE_FACTOR                                                         
%FORMAT(5E16.8)                                                                 
  2.00000000E+00  2.00000000E+00  2.00000000E+00  2.00000000E+00  2.00000000E+00
  2.00000000E+00  2.00000000E+00  2.00000000E+00  2.00000000E+00  2.00000000E+00
%FLAG SOLTY                                                                     
%FORMAT(5E16.8)                                                                 
  0.00000000E+00  0.00000000E+00  0.00000000E+00
%FLAG LENNARD_JONES_ACOEF                                                       
%FORMAT(5E16.8)                                                                 
  1.02073671E+06  6.97998263E+04  3.39005767E+03  5.42502534E+05  3.44374471E+04
  2.83662575E+05
%FLAG LENNARD_JONES_BCOEF                                                       
%FORMAT(5E16.8)                                                                 
  6.63431737E+02  1.14981426E+02  1.67944276E+01  4.38146883E+02  7.31636661E+01
  2.87011518E+02
%FLAG BONDS_INC_HYDROGEN                                                        
%FORMAT(10I8)                                                                   
      96      99       1      96     102       1      84      87       1      84
      90       1      75      78       1      75      81       1      63      66
       1      63      69       1      54      57       1      54      60       1
      42      45       1      42      48       1      33      36       1      33
      39       1      21      24       1      21      27       1      12      15
       1      12      18       1       0       3       1       0       6       1
     201     204       1     201     207       1     189     192       1     189
     195       1     180     183       1     180     186       1     168     171
       1     168     174       1     159     162       1     159     165       1
     147     150       1     147     153       1     138     141       1     138
     144       1     126     129       1     126     132       1     117     120
       1     117     123       1     105     108       1     105     111       1
     306     309       1     306     312       1     294     297       1     294
     300       1     285     288       1     285     291       1     273     276
       1     273     279       1     264     267       1     264     270       1
     252     255       1     252     258       1     243     246       1     243
     249       1     231     234       1     231     237       1     222     225
       1     222     228       1     210     213       1     210     216       1
     411     414       1     411     417       1     399     402       1     399
     405       1     390     393       1     390     396       1     378     381
       1     378     384       1     369     372       1     369     375       1
     357     360       1     357     363       1     348     351       1     348
     354       1     336     339       1     336     342       1     327     330
       1     327     333       1     315     318       1     315     321       1
     516     519       1     516     522       1     504     507       1     504
     510       1     495     498       1     495     501       1     483     486
       1     483     489       1     474     477       1     474     480       1
     462     465       1     462     468       1     453     456       1     453
     459       1     441     444       1     441     447       1     432     435
       1     432     438       1     420     423       1     420     426       1
%FLAG BONDS_WITHOUT_HYDROGEN                                                    
%FORMAT(10I8)                                                                   
      96     105       2      93      96       3      84      93       3      75
      84       2      72      75       3      63      72       3      54      63
       2      51      54       3      42      51       3      33      42       2
      30      33       3      21      30       3      12      21       2       9
      12       3       0       9       3     201     210       2     198     201
       3     189     198       3     180     189       2     177     180       3
     168     177       3     159     168       2     156     159       3     147
     156       3     138     147       2     135     138       3     126     135
       3     117     126       2     114     117       3     105     114       3
     306     315       2     303     306       3     294     303       3     285
     294       2     282     285       3     273     282       3     264     273
       2     261     264       3     252     261       3     243     252       2
     240     243       3     231     240       3     222     231       2     219
     222       3     210     219       3     411     420       2     408     411
       3     399     408       3     390     399       2     387     390       3
     378     387       3     369     378       2     366     369       3     357
     366       3     348     357       2     345     348       3     336     345
       3     327     336       2     324     327       3     315     324       3
     513     516       3     504     513       3     495     504       2     492
     495       3     483     492       3     474     483       2     471     474
       3     462     471       3     453     462       2     450     453       3
     441     450       3     432     441       2     429     432       3     420
     429       3
%FLAG ANGLES_INC_HYDROGEN                                                       
%FORMAT(10I8)                                                                   
     102      96     105       1      99      96     102       2      99      96
     105       1      96     105     108       1      96     105     111       1
      93      96      99       4      93      96     102       4      90      84
      93       4      87      84      90       2      87      84      93       4
      81      75      84       1      78      75      81       2      78      75
      84       1      75      84      87       1      75      84      90       1
      72      75      78       4      72      75      81       4      69      63
      72       4      66      63      69       2      66      63      72       4
      60      54      63       1      57      54      60       2      57      54
      63       1      54      63      66       1      54      63      69       1
      51      54      57       4      51      54      60       4      48      42
      51       4      45      42      48       2      45      42      51       4
      39      33      42       1      36      33      39       2      36      33
      42       1      33      42      45       1      33      42      48       1
      30      33      36       4      30      33      39       4      27      21
      30       4      24      21      27       2      24      21      30       4
      18      12      21       1      15      12      18       2      15      12
      21       1      12      21      24       1      12      21      27       1
       9      12      15       4       9      12      18       4       6       0
       9       4       3       0       6       2       3       0       9       4
     207     201     210       1     204     201     207       2     204     201
     210       1     201     210     213       1     201     210     216       1
     198     201     204       4     198     201     207       4     195     189
     198       4     192     189     195       2     192     189     198       4
     186     180     189       1     183     180     186       2     183     180
     189       1     180     189     192       1     180     189     195       1
     177     180     183       4     177     180     186       4     174     168
     177       4     171     168     174       2     171     168     177       4
     165     159     168       1     162     159     165       2     162     159
     168       1     159     168     171       1     159     168     174       1
     156     159     162       4     156     159     165       4     153     147
     156       4     150     147     153       2     150     147     156       4
     144     138     147       1     141     138     144       2     141     138
     147       1     138     147     150       1     138     147     153       1
     135     138     141       4     135     138     144       4     132     126
     135       4     129     126     132       2     129     126     135       4
     123     117     126       1     120     117     123       2     120     117
     126       1     117     126     129       1     117     126     132       1
     114     117     120       4     114     117     123       4     111     105
     114       4     108     105     111       2     108     105     114       4
     312     306     315       1     309     306     312       2     309     306
     315       1     306     315     318       1     306     315     321       1
     303     306     309       4     303     306     312       4     300     294
     303       4     297     294     300       2     297     294     303       4
     291     285     294       1     288     285     291       2     288     285
     294       1     285     294     297       1     285     294     300       1
     282     285     288       4     282     285     291       4     279     273
     282       4     276     273     279       2     276     273     282       4
     270     264     273       1     267     264     270       2     267     264
     273       1     264     273     276       1     264     273     279       1
     261     264     267       4     261     264     270       4     258     252
     261       4     255     252     258       2     255     252     261       4
     249     243     252       1     246     243     249       2     246     243
     252       1     243     252     255       1     243     252     258       1
     240     243     246       4     240     243     249       4     237     231
     240       4     234     231     237       2     234     231     240       4
     228     222     231       1     225     222     228       2     225     222
     231       1     222     231     234       1     222     231     237       1
     219     222     225       4     219     222     228       4     216     210
     219       4     213     210     216       2     213     210     219       4
     417     411     420       1     414     411     417       2     414     411
     420       1     411     420     423       1     411     420     426       1
     408     411     414       4     408     411     417       4     405     399
     408       4     402     399     405       2     402     399     408       4
     396     390     399       1     393     390     396       2     393     390
     399       1     390     399     402       1     390     399     405       1
     387     390     393       4     387     390     396       4     384     378
     387       4     381     378     384       2     381     378     387       4
     375     369     378       1     372     369     375       2     372     369
     378       1     369     378     381       1     369     378     384       1
     366     369     372       4     366     369     375       4     363     357
     366       4     360     357     363       2     360     357     366       4
     354     348     357       1     351     348     354       2     351     348
     357       1     348     357     360       1     348     357     363       1
     345     348     351       4     345     348     354       4     342     336
     345       4     339     336     342       2     339     336     345       4
     333     327     336       1     330     327     333       2     330     327
     336       1     327     336     339       1     327     336     342       1
     324     327     330       4     324     327     333       4     321     315
     324       4     318     315     321       2     318     315     324       4
     519     516     522       2     513     516     519       4     513     516
     522       4     510     504     513       4     507     504     510       2
     507     504     513       4     501     495     504       1     498     495
     501       2     498     495     504       1     495     504     507       1
     495     504     510       1     492     495     498       4     492     495
     501       4     489     483     492       4     486     483     489       2
     486     483     492       4     480     474     483       1     477     474
     480       2     477     474     483       1     474     483     486       1
     474     483     489       1     471     474     477       4     471     474
     480       4     468     462     471       4     465     462     468       2
     465     462     471       4     459     453     462       1     456     453
     459       2     456     453     462       1     453     462     465       1
     453     462     468       1     450     453     456       4     450     453
     459       4     447     441     450       4     444     441     447       2
     444     441     450       4     438     432     441       1     435     432
     438       2     435     432     441       1     432     441     444       1
     432     441     447       1     429     432     435       4     429     432
     438       4     426     420     429       4     423     420     426       2
     423     420     429       4
%FLAG ANGLES_WITHOUT_HYDROGEN                                                   
%FORMAT(10I8)                                                                   
      96     105     114       3      93      96     105       3      84      93
      96       5      75      84      93       3      72      75      84       3
      63      72      75       5      54      63      72       3      51      54
      63       3      42      51      54       5      33      42      51       3
      30      33      42       3      21      30      33       5      12      21
      30       3       9      12      21       3       0       9      12       5
     201     210     219       3     198     201     210       3     189     198
     201       5     180     189     198       3     177     180     189       3
     168     177     180       5     159     168     177       3     156     159
     168       3     147     156     159       5     138     147     156       3
     135     138     147       3     126     135     138       5     117     126
     135       3     114     117     126       3     105     114     117       5
     306     315     324       3     303     306     315       3     294     303
     306       5     285     294     303       3     282     285     294       3
     273     282     285       5     264     273     282       3     261     264
     273       3     252     261     264       5     243     252     261       3
     240     243     252       3     231     240     243       5     222     231
     240       3     219     222     231       3     210     219     222       5
     411     420     429       3     408     411     420       3     399     408
     411       5     390     399     408       3     387     390     399       3
     378     387     390       5     369     378     387       3     366     369
     378       3     357     366     369       5     348     357     366       3
     345     348     357       3     336     345     348       5     327     336
     345       3     324     327     336       3     315     324     327       5
     504     513     516       5     495     504     513       3     492     495
     504       3     483     492     495       5     474     483     492       3
     471     474     483       3     462     471     474       5     453     462
     471       3     450     453     462       3     441     450     453       5
     432     441     450       3     429     432     441       3     420     429
     432       5
%FLAG DIHEDRALS_INC_HYDROGEN                                                    
%FORMAT(10I8)                                                                   
     102      96     105     108       1     102      96     105     111       1
     102      96     105     114       2     102      96    -105     114       3
      99      96     105     108       1      99      96     105     111       1
      99      96     105     114       2      99      96    -105     114       3
      93      96     105     108       2      93      96    -105     108       3
      93      96     105     111       2      93      96    -105     111       3
      90      84      93      96      10      87      84      93      96      10
      84      93      96      99      10      84      93      96     102      10
      81      75      84      87       1      81      75      84      90       1
      81      75      84      93       2      81      75     -84      93       3
      78      75      84      87       1      78      75      84      90       1
      78      75      84      93       2      78      75     -84      93       3
      72      75      84      87       2      72      75     -84      87       3
      72      75      84      90       2      72      75     -84      90       3
      69      63      72      75      10      66      63      72      75      10
      63      72      75      78      10      63      72      75      81      10
      60      54      63      66       1      60      54      63      69       1
      60      54      63      72       2      60      54     -63      72       3
      57      54      63      66       1      57      54      63      69       1
      57      54      63      72       2      57      54     -63      72       3
      51      54      63      66       2      51      54     -63      66       3
      51      54      63      69       2      51      54     -63      69       3
      48      42      51      54      10      45      42      51      54      10
      42      51      54      57      10      42      51      54      60      10
      39      33      42      45       1      39      33      42      48       1
      39      33      42      51       2      39      33     -42      51       3
      36      33      42      45       1      36      33      42      48       1
      36      33      42      51       2      36      33     -42      51       3
      30      33      42      45       2      30      33     -42      45       3
      30      33      42      48       2      30      33     -42      48       3
      27      21      30      33      10      24      21      30      33      10
      21      30      33      36      10      21      30      33      39      10
      18      12      21      24       1      18      12      21      27       1
      18      12      21      30       2      18      12     -21      30       3
      15      12      21      24       1      15      12      21      27       1
      15      12      21      30       2      15      12     -21      30       3
       9      12      21      24       2       9      12     -21      24       3
       9      12      21      27       2       9      12     -21      27       3
       6       0       9      12      10       3       0       9      12      10
       0       9      12      15      10       0       9      12      18      10
     207     201     210     213       1     207     201     210     216       1
     207     201     210     219       2     207     201    -210     219       3
     204     201     210     213       1     204     201     210     216       1
     204     201     210     219       2     204     201    -210     219       3
     198     201     210     213       2     198     201    -210     213       3
     198     201     210     216       2     198     201    -210     216       3
     195     189     198     201      10     192     189     198     201      10
     189     198     201     204      10     189     198     201     207      10
     186     180     189     192       1     186     180     189     195       1
     186     180     189     198       2     186     180    -189     198       3
     183     180     189     192       1     183     180     189     195       1
     183     180     189     198       2     183     180    -189     198       3
     177     180     189     192       2     177     180    -189     192       3
     177     180     189     195       2     177     180    -189     195       3
     174     168     177     180      10     171     168     177     180      10
     168     177     180     183      10     168     177     180     186      10
     165     159     168     171       1     165     159     168     174       1
     165     159     168     177       2     165     159    -168     177       3
     162     159     168     171       1     162     159     168     174       1
     162     159     168     177       2     162     159    -168     177       3
     156     159     168     171       2     156     159    -168     171       3
     156     159     168     174       2     156     159    -168     174       3
     153     147     156     159      10     150     147     156     159      10
     147     156     159     162      10     147     156     159     165      10
     144     138     147     150       1     144     138     147     153       1
     144     138     147     156       2     144     138    -147     156       3
     141     138     147     150       1     141     138     147     153       1
     141     138     147     156       2     141     138    -147     156       3
     135     138     147     150       2     135     138    -147     150       3
     135     138     147     153       2     135     138    -147     153       3
     132     126     135     138      10     129     126     135     138      10
     126     135     138     141      10     126     135     138     144      10
     123     117     126     129       1     123     117     126     132       1
     123     117     126     135       2     123     117    -126     135       3
     120     117     126     129       1     120     117     126     132       1
     120     117     126     135       2     120     117    -126     135       3
     114     117     126     129       2     114     117    -126     129       3
     114     117     126     132       2     114     117    -126     132       3
     111     105     114     117      10     108     105     114     117      10
     105     114     117     120      10     105     114     117     123      10
     312     306     315     318       1     312     306     315     321       1
     312     306     315     324       2     312     306    -315     324       3
     309     306     315     318       1     309     306     315     321       1
     309     306     315     324       2     309     306    -315     324       3
     303     306     315     318       2     303     306    -315     318       3
     303     306     315     321       2     303     306    -315     321       3
     300     294     303     306      10     297     294     303     306      10
     294     303     306     309      10     294     303     306     312      10
     291     285     294     297       1     291     285     294     300       1
     291     285     294     303       2     291     285    -294     303       3
     288     285     294     297       1     288     285     294     300       1
     288     285     294     303       2     288     285    -294     303       3
     282     285     294     297       2     282     285    -294     297       3
     282     285     294     300       2     282     285    -294     300       3
     279     273     282     285      10     276     273     282     285      10
     273     282     285     288      10     273     282     285     291      10
     270     264     273     276       1     270     264     273     279       1
     270     264     273     282       2     270     264    -273     282       3
     267     264     273     276       1     267     264     273     279       1
     267     264     273     282       2     267     264    -273     282       3
     261     264     273     276       2     261     264    -273     276       3
     261     264     273     279       2     261     264    -273     279       3
     258     252     261     264      10     255     252     261     264      10
     252     261     264     267      10     252     261     264     270      10
     249     243     252     255       1     249     243     252     258       1
     249     243     252     261       2     249     243    -252     261       3
     246     243     252     255       1     246     243     252     258       1
     246     243     252     261       2     246     243    -252     261       3
     240     243     252     255       2     240     243    -252     255       3
     240     243     252     258       2     240     243    -252     258       3
     237     231     240     243      10     234     231     240     243      10
     231     240     243     246      10     231     240     243     249      10
     228     222     231     234       1     228     222     231     237       1
     228     222     231     240       2     228     222    -231     240       3
     225     222     231     234       1     225     222     231     237       1
     225     222     231     240       2     225     222    -231     240       3
     219     222     231     234       2     219     222    -231     234       3
     219     222     231     237       2     219     222    -231     237       3
     216     210     219     222      10     213     210     219     222      10
     210     219     222     225      10     210     219     222     228      10
     417     411     420     423       1     417     411     420     426       1
     417     411     420     429       2     417     411    -420     429       3
     414     411     420     423       1     414     411     420     426       1
     414     411     420     429       2     414     411    -420     429       3
     408     411     420     423       2     408     411    -420     423       3
     408     411     420     426       2     408     411    -420     426       3
     405     399     408     411      10     402     399     408     411      10
     399     408     411     414      10     399     408     411     417      10
     396     390     399     402       1     396     390     399     405       1
     396     390     399     408       2     396     390    -399     408       3
     393     390     399     402       1     393     390     399     405       1
     393     390     399     408       2     393     390    -399     408       3
     387     390     399     402       2     387     390    -399     402       3
     387     390     399     405       2     387     390    -399     405       3
     384     378     387     390      10     381     378     387     390      10
     378     387     390     393      10     378     387     390     396      10
     375     369     378     381       1     375     369     378     384       1
     375     369     378     387       2     375     369    -378     387       3
     372     369     378     381       1     372     369     378     384       1
     372     369     378     387       2     372     369    -378     387       3
     366     369     378     381       2     366     369    -378     381       3
     366     369     378     384       2     366     369    -378     384       3
     363     357     366     369      10     360     357     366     369      10
     357     366     369     372      10     357     366     369     375      10
     354     348     357     360       1     354     348     357     363       1
     354     348     357     366       2     354     348    -357     366       3
     351     348     357     360       1     351     348     357     363       1
     351     348     357     366       2     351     348    -357     366       3
     345     348     357     360       2     345     348    -357     360       3
     345     348     357     363       2     345     348    -357     363       3
     342     336     345     348      10     339     336     345     348      10
     336     345     348     351      10     336     345     348     354      10
     333     327     336     339       1     333     327     336     342       1
     333     327     336     345       2     333     327    -336     345       3
     330     327     336     339       1     330     327     336     342       1
     330     327     336     345       2     330     327    -336     345       3
     324     327     336     339       2     324     327    -336     339       3
     324     327     336     342       2     324     327    -336     342       3
     321     315     324     327      10     318     315     324     327      10
     315     324     327     330      10     315     324     327     333      10
     510     504     513     516      10     507     504     513     516      10
     504     513     516     519      10     504     513     516     522      10
     501     495     504     507       1     501     495     504     510       1
     501     495     504     513       2     501     495    -504     513       3
     498     495     504     507       1     498     495     504     510       1
     498     495     504     513       2     498     495    -504     513       3
     492     495     504     507       2     492     495    -504     507       3
     492     495     504     510       2     492     495    -504     510       3
     489     483     492     495      10     486     483     492     495      10
     483     492     495     498      10     483     492     495     501      10
     480     474     483     486       1     480     474     483     489       1
     480     474     483     492       2     480     474    -483     492       3
     477     474     483     486       1     477     474     483     489       1
     477     474     483     492       2     477     474    -483     492       3
     471     474     483     486       2     471     474    -483     486       3
     471     474     483     489       2     471     474    -483     489       3
     468     462     471     474      10     465     462     471     474      10
     462     471     474     477      10     462     471     474     480      10
     459     453     462     465       1     459     453     462     468       1
     459     453     462     471       2     459     453    -462     471       3
     456     453     462     465       1     456     453     462     468       1
     456     453     462     471       2     456     453    -462     471       3
     450     453     462     465       2     450     453    -462     465       3
     450     453     462     468       2     450     453    -462     468       3
     447     441     450     453      10     444     441     450     453      10
     441     450     453     456      10     441     450     453     459      10
     438     432     441     444       1     438     432     441     447       1
     438     432     441     450       2     438     432    -441     450       3
     435     432     441     444       1     435     432     441     447       1
     435     432     441     450       2     435     432    -441     450       3
     429     432     441     444       2     429     432    -441     444       3
     429     432     441     447       2     429     432    -441     447       3
     426     420     429     432      10     423     420     429     432      10
     420     429     432     435      10     420     429     432     438      10
%FLAG DIHEDRALS_WITHOUT_HYDROGEN                                                
%FORMAT(10I8)                                                                   
      96     105     114     117       4      96     105    -114     117       5
      96     105    -114     117       6      93      96     105     114       7
      93      96    -105     114       8      93      96    -105     114       9
      84      93      96     105       4      84      93     -96     105       5
      84      93     -96     105       6      75      84      93      96       4
      75      84     -93      96       5      75      84     -93      96       6
      72      75      84      93       7      72      75     -84      93       8
      72      75     -84      93       9      63      72      75      84       4
      63      72     -75      84       5      63      72     -75      84       6
      54      63      72      75       4      54      63     -72      75       5
      54      63     -72      75       6      51      54      63      72       7
      51      54     -63      72       8      51      54     -63      72       9
      42      51      54      63       4      42      51     -54      63       5
      42      51     -54      63       6      33      42      51      54       4
      33      42     -51      54       5      33      42     -51      54       6
      30      33      42      51       7      30      33     -42      51       8
      30      33     -42      51       9      21      30      33      42       4
      21      30     -33      42       5      21      30     -33      42       6
      12      21      30      33       4      12      21     -30      33       5
      12      21     -30      33       6       9      12      21      30       7
       9      12     -21      30       8       9      12     -21      30       9
       0       9      12      21       4       0       9     -12      21       5
       0       9     -12      21       6     201     210     219     222       4
     201     210    -219     222       5     201     210    -219     222       6
     198     201     210     219       7     198     201    -210     219       8
     198     201    -210     219       9     189     198     201     210       4
     189     198    -201     210       5     189     198    -201     210       6
     180     189     198     201       4     180     189    -198     201       5
     180     189    -198     201       6     177     180     189     198       7
     177     180    -189     198       8     177     180    -189     198       9
     168     177     180     189       4     168     177    -180     189       5
     168     177    -180     189       6     159     168     177     180       4
     159     168    -177     180       5     159     168    -177     180       6
     156     159     168     177       7     156     159    -168     177       8
     156     159    -168     177       9     147     156     159     168       4
     147     156    -159     168       5     147     156    -159     168       6
     138     147     156     159       4     138     147    -156     159       5
     138     147    -156     159       6     135     138     147     156       7
     135     138    -147     156       8     135     138    -147     156       9
     126     135     138     147       4     126     135    -138     147       5
     126     135    -138     147       6     117     126     135     138       4
     117     126    -135     138       5     117     126    -135     138       6
     114     117     126     135       7     114     117    -126     135       8
     114     117    -126     135       9     105     114     117     126       4
     105     114    -117     126       5     105     114    -117     126       6
     306     315     324     327       4     306     315    -324     327       5
     306     315    -324     327       6     303     306     315     324       7
     303     306    -315     324       8     303     306    -315     324       9
     294     303     306     315       4     294     303    -306     315       5
     294     303    -306     315       6     285     294     303     306       4
     285     294    -303     306       5     285     294    -303     306       6
     282     285     294     303       7     282     285    -294     303       8
     282     285    -294     303       9     273     282     285     294       4
     273     282    -285     294       5     273     282    -285     294       6
     264     273     282     285       4     264     273    -282     285       5
     264     273    -282     285       6     261     264     273     282       7
     261     264    -273     282       8     261     264    -273     282       9
     252     261     264     273       4     252     261    -264     273       5
     252     261    -264     273       6     243     252     261     264       4
     243     252    -261     264       5     243     252    -261     264       6
     240     243     252     261       7     240     243    -252     261       8
     240     243    -252     261       9     231     240     243     252       4
     231     240    -243     252       5     231     240    -243     252       6
     222     231     240     243       4     222     231    -240     243       5
     222     231    -240     243       6     219     222     231     240       7
     219     222    -231     240       8     219     222    -231     240       9
     210     219     222     231       4     210     219    -222     231       5
     210     219    -222     231       6     411     420     429     432       4
     411     420    -429     432       5     411     420    -429     432       6
     408     411     420     429       7     408     411    -420     429       8
     408     411    -420     429       9     399     408     411     420       4
     399     408    -411     420       5     399     408    -411     420       6
     390     399     408     411       4     390     399    -408     411       5
     390     399    -408     411       6     387     390     399     408       7
     387     390    -399     408       8     387     390    -399     408       9
     378     387     390     399       4     378     387    -390     399       5
     378     387    -390     399       6     369     378     387     390       4
     369     378    -387     390       5     369     378    -387     390       6
     366     369     378     387       7     366     369    -378     387       8
     366     369    -378     387       9     357     366     369     378       4
     357     366    -369     378       5     357     366    -369     378       6
     348     357     366     369       4     348     357    -366     369       5
     348     357    -366     369       6     345     348     357     366       7
     345     348    -357     366       8     345     348    -357     366       9
     336     345     348     357       4     336     345    -348     357       5
     336     345    -348     357       6     327     336     345     348       4
     327     336    -345     348       5     327     336    -345     348       6
     324     327     336     345       7     324     327    -336     345       8
     324     327    -336     345       9     315     324     327     336       4
     315     324    -327     336       5     315     324    -327     336       6
     495     504     513     516       4     495     504    -513     516       5
     495     504    -513     516       6     492     495     504     513       7
     492     495    -504     513       8     492     495    -504     513       9
     483     492     495     504       4     483     492    -495     504       5
     483     492    -495     504       6     474     483     492     495       4
     474     483    -492     495       5     474     483    -492     495       6
     471     474     483     492       7     471     474    -483     492       8
     471     474    -483     492       9     462     471     474     483       4
     462     471    -474     483       5     462     471    -474     483       6
     453     462     471     474       4     453     462    -471     474       5
     453     462    -471     474       6     450     453     462     471       7
     450     453    -462     471       8     450     453    -462     471       9
     441     450     453     462       4     441     450    -453     462       5
     441     450    -453     462       6     432     441     450     453       4
     432     441    -450     453       5     432     441    -450     453       6
     429     432     441     450       7     429     432    -441     450       8
     429     432    -441     450       9     420     429     432     441       4
     420     429    -432     441       5     420     429    -432     441       6
%FLAG EXCLUDED_ATOMS_LIST                                                       
%FORMAT(10I8)                                                                   
       2       3       4       5       6       7       8       3       4       5
       4       5       5       6       7       8       9      10      11       6
       7       8       9      10      11      12       7       8       9      10
      11       8       9      10      11       9      10      11      12      13
      14      15      10      11      12      11      12      12      13      14
      15      16      17      18      13      14      15      16      17      18
      19      14      15      16      17      18      15      16      17      18
      16      17      18      19      20      21      22      17      18      19
      18      19      19      20      21      22      23      24      25      20
      21      22      23      24      25      26      21      22      23      24
      25      22      23      24      25      23      24      25      26      27
      28      29      24      25      26      25      26      26      27      28
      29      30      31      32      27      28      29      30      31      32
      33      28      29      30      31      32      29      30      31      32
      30      31      32      33      34      35      36      31      32      33
      32      33      33      34      35      36      37      38      39      34
      35      36      37      38      39      40      35      36      37      38
      39      36      37      38      39      37      38      39      40      41
      42      43      38      39      40      39      40      40      41      42
      43      44      45      46      41      42      43      44      45      46
      47      42      43      44      45      46      43      44      45      46
      44      45      46      47      48      49      50      45      46      47
      46      47      47      48      49      50      51      52      53      48
      49      50      51      52      53      54      49      50      51      52
      53      50      51      52      53      51      52      53      54      55
      56      57      52      53      54      53      54      54      55      56
      57      58      59      60      55      56      57      58      59      60
      61      56      57      58      59      60      57      58      59      60
      58      59      60      61      62      63      64      59      60      61
      60      61      61      62      63      64      65      66      67      62
      63      64      65      66      67      68      63      64      65      66
      67      64      65      66      67      65      66      67      68      69
      70      71      66      67      68      67      68      68      69      70
      71      72      73      74      69      70      71      72      73      74
      75      70      71      72      73      74      71      72      73      74
      72      73      74      75      76      77      78      73      74      75
      74      75      75      76      77      78      79      80      81      76
      77      78      79      80      81      82      77      78      79      80
      81      78      79      80      81      79      80      81      82      83
      84      85      80      81      82      81      82      82      83      84
      85      86      87      88      83      84      85      86      87      88
      89      84      85      86      87      88      85      86      87      88
      86      87      88      89      90      91      92      87      88      89
      88      89      89      90      91      92      93      94      95      90
      91      92      93      94      95      96      91      92      93      94
      95      92      93      94      95      93      94      95      96      97
      98      99      94      95      96      95      96      96      97      98
      99     100     101     102      97      98      99     100     101     102
     103      98      99     100     101     102      99     100     101     102
     100     101     102     103     104     105     106     101     102     103
     102     103     103     104     105     106     107     108     109     104
     105     106     107     108     109     110     105     106     107     108
     109     106     107     108     109     107     108     109     110     111
     112     113     108     109     110     109     110     110     111     112
     113     114     115     116     111     112     113     114     115     116
     117     112     113     114     115     116     113     114     115     116
     114     115     116     117     118     119     120     115     116     117
     116     117     117     118     119     120     121     122     123     118
     119     120     121     122     123     124     119     120     121     122
     123     120     121     122     123     121     122     123     124     125
     126     127     122     123     124     123     124     124     125     126
     127     128     129     130     125     126     127     128     129     130
     131     126     127     128     129     130     127     128     129     130
     128     129     130     131     132     133     134     129     130     131
     130     131     131     132     133     134     135     136     137     132
     133     134     135     136     137     138     133     134     135     136
     137     134     135     136     137     135     136     137     138     139
     140     141     136     137     138     137     138     138     139     140
     141     142     143     144     139     140     141     142     143     144
     145     140     141     142     143     144     141     142     143     144
     142     143     144     145     146     147     148     143     144     145
     144     145     145     146     147     148     149     150     151     146
     147     148     149     150     151     152     147     148     149     150
     151     148     149     150     151     149     150     151     152     153
     154     155     150     151     152     151     152     152     153     154
     155     156     157     158     153     154     155     156     157     158
     159     154     155     156     157     158     155     156     157     158
     156     157     158     159     160     161     162     157     158     159
     158     159     159     160     161     162     163     164     165     160
     161     162     163     164     165     166     161     162     163     164
     165     162     163     164     165     163     164     165     166     167
     168     169     164     165     166     165     166     166     167     168
     169     170     171     172     167     168     169     170     171     172
     173     168     169     170     171     172     169     170     171     172
     170     171     172     173     174     175     171     172     173     172
     173     173     174     175     174     175     175       0
%FLAG HBOND_ACOEF                                                               
%FORMAT(5E16.8)                                                                 

%FLAG HBOND_BCOEF                                                               
%FORMAT(5E16.8)                                                                 

%FLAG HBCUT                                                                     
%FORMAT(5E16.8)                                                                 

%FLAG AMBER_ATOM_TYPE                                                           
%FORMAT(20a4)                                                                   
c3  h1  h1  os  c3  h1  h1  c3  h1  h1  os  c3  h1  h1  c3  h1  h1  os  c3  h1  
h1  c3  h1  h1  os  c3  h1  h1  c3  h1  h1  os  c3  h1  h1  c3  h1  h1  os  c3  
h1  h1  c3  h1  h1  os  c3  h1  h1  c3  h1  h1  os  c3  h1  h1  c3  h1  h1  os  
c3  h1  h1  c3  h1  h1  os  c3  h1  h1  c3  h1  h1  os  c3  h1  h1  c3  h1  h1  
os  c3  h1  h1  c3  h1  h1  os  c3  h1  h1  c3  h1  h1  os  c3  h1  h1  c3  h1  
h1  os  c3  h1  h1  c3  h1  h1  os  c3  h1  h1  c3  h1  h1  os  c3  h1  h1  c3  
h1  h1  os  c3  h1  h1  c3  h1  h1  os  c3  h1  h1  c3  h1  h1  os  c3  h1  h1  
c3  h1  h1  os  c3  h1  h1  c3  h1  h1  os  c3  h1  h1  c3  h1  h1  os  c3  h1  
h1  c3  h1  h1  os  c3  h1  h1  c3  h1  h1  os  c3  h1  h1  
%FLAG TREE_CHAIN_CLASSIFICATION                                                 
%FORMAT(20a4)                                                                   
M   E   E   M   M   E   E   M   E   E   M   M   E   E   M   E   E   M   M   E   
E   M   E   E   M   M   E   E   M   E   E   M   M   E   E   M   E   E   M   M   
E   E   M   E   E   M   M   E   E   M   E   E   M   M   E   E   M   E   E   M   
M   E   E   M   E   E   M   M   E   E   M   E   E   M   M   E   E   M   E   E   
M   M   E   E   M   E   E   M   M   E   E   M   E   E   M   M   E   E   M   E   
E   M   M   E   E   M   E   E   M   M   E   E   M   E   E   M   M   E   E   M   
E   E   M   M   E   E   M   E   E   M   M   E   E   M   E   E   M   M   E   E   
M   E   E   M   M   E   E   M   E   E   M   M   E   E   M   E   E   M   M   E   
E   M   E   E   M   M   E   E   M   E   E   M   M   E   E   
%FLAG JOIN_ARRAY                                                                
%FORMAT(10I8)                                                                   
       0       0       0       0       0       0       0       0       0       0
       0       0       0       0       0       0       0       0       0       0
       0       0       0       0       0       0       0       0       0       0
       0       0       0       0       0       0       0       0       0       0
       0       0       0       0       0       0       0       0       0       0
       0       0       0       0       0       0       0       0       0       0
       0       0       0       0       0       0       0       0       0       0
       0       0       0       0       0       0       0       0       0       0
       0       0       0       0       0       0       0       0       0       0
       0       0       0       0       0       0       0       0       0       0
       0       0       0       0       0       0       0       0       0       0
       0       0       0       0       0       0       0       0       0       0
       0       0       0       0       0       0       0       0       0       0
       0       0       0       0       0       0       0       0       0       0
       0       0       0       0       0       0       0       0       0       0
       0       0       0       0       0       0       0       0       0       0
       0       0       0       0       0       0       0       0       0       0
       0       0       0       0       0
%FLAG IROTAT                                                                    
%FORMAT(10I8)                                                                   
       0       0       0       0       0       0       0       0       0       0
       0       0       0       0       0       0       0       0       0       0
       0       0       0       0       0       0       0       0       0       0
       0       0       0       0       0       0       0       0       0       0
       0       0       0       0       0       0       0       0       0       0
       0       0       0       0       0       0       0       0       0       0
       0       0       0       0       0       0       0       0       0       0
       0       0       0       0       0       0       0       0       0       0
       0       0       0       0       0       0       0       0       0       0
       0       0       0       0       0       0       0       0       0       0
       0       0       0       0       0       0       0       0       0       0
       0       0       0       0       0       0       0       0       0       0
       0       0       0       0       0       0       0       0       0       0
       0       0       0       0       0       0       0       0       0       0
       0       0       0       0       0       0       0       0       0       0
       0       0       0       0       0       0       0       0       0       0
       0       0       0       0       0       0       0       0       0       0
       0       0       0       0       0
%FLAG RADIUS_SET                                                                
%FORMAT(1a80)                                                                   
modified Bondi radii (mbondi)                                                   
%FLAG RADII                                                                     
%FORMAT(5E16.8)                                                                 
  1.70000000E+00  1.30000000E+00  1.30000000E+00  1.50000000E+00  1.70000000E+00
  1.30000000E+00  1.30000000E+00  1.70000000E+00  1.30000000E+00  1.30000000E+00
  1.50000000E+00  1.70000000E+00  1.30000000E+00  1.30000000E+00  1.70000000E+00
  1.30000000E+00  1.30000000E+00  1.50000000E+00  1.70000000E+00  1.30000000E+00
  1.30000000E+00  1.70000000E+00  1.30000000E+00  1.30000000E+00  1.50000000E+00
  1.70000000E+00  1.30000000E+00  1.30000000E+00  1.70000000E+00  1.30000000E+00
  1.30000000E+00  1.50000000E+00  1.70000000E+00  1.30000000E+00  1.30000000E+00
  1.70000000E+00  1.30000000E+00  1.30000000E+00  1.50000000E+00  1.70000000E+00
  1.30000000E+00  1.30000000E+00  1.70000000E+00  1.30000000E+00  1.30000000E+00
  1.50000000E+00  1.70000000E+00  1.30000000E+00  1.30000000E+00  1.70000000E+00
  1.30000000E+00  1.30000000E+00  1.50000000E+00  1.70000000E+00  1.30000000E+00
  1.30000000E+00  1.70000000E+00  1.30000000E+00  1.30000000E+00  1.50000000E+00
  1.70000000E+00  1.30000000E+00  1.30000000E+00  1.70000000E+00  1.30000000E+00
  1.30000000E+00  1.50000000E+00  1.70000000E+00  1.30000000E+00  1.30000000E+00
  1.70000000E+00  1.30000000E+00  1.30000000E+00  1.50000000E+00  1.70000000E+00
  1.30000000E+00  1.30000000E+00  1.70000000E+00  1.30000000E+00  1.30000000E+00
  1.50000000E+00  1.70000000E+00  1.30000000E+00  1.30000000E+00  1.70000000E+00
  1.30000000E+00  1.30000000E+00  1.50000000E+00  1.70000000E+00  1.30000000E+00
  1.30000000E+00  1.70000000E+00  1.30000000E+00  1.30000000E+00  1.50000000E+00
  1.70000000E+00  1.30000000E+00  1.30000000E+00  1.70000000E+00  1.30000000E+00
  1.30000000E+00  1.50000000E+00  1.70000000E+00  1.30000000E+00  1.30000000E+00
  1.70000000E+00  1.30000000E+00  1.30000000E+00  1.50000000E+00  1.70000000E+00
  1.30000000E+00  1.30000000E+00  1.70000000E+00  1.30000000E+00  1.30000000E+00
  1.50000000E+00  1.70000000E+00  1.30000000E+00  1.30000000E+00  1.70000000E+00
  1.30000000E+00  1.30000000E+00  1.50000000E+00  1.70000000E+00  1.30000000E+00
  1.30000000E+00  1.70000000E+00  1.30000000E+00  1.30000000E+00  1.50000000E+00
  1.70000000E+00  1.30000000E+00  1.30000000E+00  1.70000000E+00  1.30000000E+00
  1.30000000E+00  1.50000000E+00  1.70000000E+00  1.30000000E+00  1.30000000E+00
  1.70000000E+00  1.30000000E+00  1.30000000E+00  1.50000000E+00  1.70000000E+00
  1.30000000E+00  1.30000000E+00  1.70000000E+00  1.30000000E+00  1.30000000E+00
  1.50000000E+00  1.70000000E+00  1.30000000E+00  1.30000000E+00  1.70000000E+00
  1.30000000E+00  1.30000000E+00  1.50000000E+00  1.70000000E+00  1.30000000E+00
  1.30000000E+00  1.70000000E+00  1.30000000E+00  1.30000000E+00  1.50000000E+00
  1.70000000E+00  1.30000000E+00  1.30000000E+00  1.70000000E+00  1.30000000E+00
  1.30000000E+00  1.50000000E+00  1.70000000E+00  1.30000000E+00  1.30000000E+00
%FLAG SCREEN                                                                    
%FORMAT(5E16.8)                                                                 
  7.20000000E-01  8.50000000E-01  8.50000000E-01  8.50000000E-01  7.20000000E-01
  8.50000000E-01  8.50000000E-01  7.20000000E-01  8.50000000E-01  8.50000000E-01
  8.50000000E-01  7.20000000E-01  8.50000000E-01  8.50000000E-01  7.20000000E-01
  8.50000000E-01  8.50000000E-01  8.50000000E-01  7.20000000E-01  8.50000000E-01
  8.50000000E-01  7.20000000E-01  8.50000000E-01  8.50000000E-01  8.50000000E-01
  7.20000000E-01  8.50000000E-01  8.50000000E-01  7.20000000E-01  8.50000000E-01
  8.50000000E-01  8.50000000E-01  7.20000000E-01  8.50000000E-01  8.50000000E-01
  7.20000000E-01  8.50000000E-01  8.50000000E-01  8.50000000E-01  7.20000000E-01
  8.50000000E-01  8.50000000E-01  7.20000000E-01  8.50000000E-01  8.50000000E-01
  8.50000000E-01  7.20000000E-01  8.50000000E-01  8.50000000E-01  7.20000000E-01
  8.50000000E-01  8.50000000E-01  8.50000000E-01  7.20000000E-01  8.50000000E-01
  8.50000000E-01  7.20000000E-01  8.50000000E-01  8.50000000E-01  8.50000000E-01
  7.20000000E-01  8.50000000E-01  8.50000000E-01  7.20000000E-01  8.50000000E-01
  8.50000000E-01  8.50000000E-01  7.20000000E-01  8.50000000E-01  8.50000000E-01
  7.20000000E-01  8.50000000E-01  8.50000000E-01  8.50000000E-01  7.20000000E-01
  8.50000000E-01  8.50000000E-01  7.20000000E-01  8.50000000E-01  8.50000000E-01
  8.50000000E-01  7.20000000E-01  8.50000000E-01  8.50000000E-01  7.20000000E-01
  8.50000000E-01  8.50000000E-01  8.50000000E-01  7.20000000E-01  8.50000000E-01
  8.50000000E-01  7.20000000E-01  8.50000000E-01  8.50000000E-01  8.50000000E-01
  7.20000000E-01  8.50000000E-01  8.50000000E-01  7.20000000E-01  8.50000000E-01
  8.50000000E-01  8.50000000E-01  7.20000000E-01  8.50000000E-01  8.50000000E-01
  7.20000000E-01  8.50000000E-01  8.50000000E-01  8.50000000E-01  7.20000000E-01
  8.50000000E-01  8.50000000E-01  7.20000000E-01  8.50000000E-01  8.50000000E-01
  8.50000000E-01  7.20000000E-01  8.50000000E-01  8.50000000E-01  7.20000000E-01
  8.50000000E-01  8.50000000E-01  8.50000000E-01  7.20000000E-01  8.50000000E-01
  8.50000000E-01  7.20000000E-01  8.50000000E-01  8.50000000E-01  8.50000000E-01
  7.20000000E-01  8.50000000E-01  8.50000000E-01  7.20000000E-01  8.50000000E-01
  8.50000000E-01  8.50000000E-01  7.20000000E-01  8.50000000E-01  8.50000000E-01
  7.20000000E-01  8.50000000E-01  8.50000000E-01  8.50000000E-01  7.20000000E-01
  8.50000000E-01  8.50000000E-01  7.20000000E-01  8.50000000E-01  8.50000000E-01
  8.50000000E-01  7.20000000E-01  8.50000000E-01  8.50000000E-01  7.20000000E-01
  8.50000000E-01  8.50000000E-01  8.50000000E-01  7.20000000E-01  8.50000000E-01
  8.50000000E-01  7.20000000E-01  8.50000000E-01  8.50000000E-01  8.50000000E-01
  7.20000000E-01  8.50000000E-01  8.50000000E-01  7.20000000E-01  8.50000000E-01
  8.50000000E-01  8.50000000E-01  7.20000000E-01  8.50000000E-01  8.50000000E-01
%FLAG IPOL                                                                      
%FORMAT(1I8)                                                                    
       0
