PEO
   175
   3.5400032   1.4197788   0.0000019   3.9020088   0.9067293  -0.8970807
   3.8980352   0.8886924   0.8881378   4.0250111   2.7606809   0.0150023
   5.4506246   2.7936391   0.0189914   5.8427105   2.2865146  -0.8712347
   5.8377447   2.2674552   0.9002845   5.9235209   4.2401967   0.0369970
   5.5364349   4.7493502   0.9282523   5.5415751   4.7691535  -0.8448935
   7.3493756   4.2601647   0.0409752   7.8474177   5.5952012   0.0569914
   7.4864217   6.1222136   0.9500445   7.4893243   6.1433416  -0.8231905
   9.3679880   5.5591736   0.0599773   9.7289678   5.0341715  -0.8330375
   9.7270597   5.0100442   0.9391437   9.8630650   6.8952870   0.0779964
  11.2879093   6.9162605   0.0799808  11.6760404   6.4080715  -0.8113705
  11.6729482   6.3881900   0.9610571  11.7608057   8.3628299   0.0970035
  11.3729606   8.8706304   0.9887007  11.3756762   8.8900488  -0.7832984
  13.1856173   8.3858065   0.0999964  13.6794817   9.7223817   0.1170149
  13.3185486  10.2472819   1.0088799  13.3196096  10.2701974  -0.7626435
  15.2000553   9.6863665   0.1169964  15.5588758   9.1596128  -0.7746281
  15.5580719   9.1363253   0.9960230  15.7061061  11.0194319   0.1350286
  17.1320466  11.0324191   0.1360076  17.5058652  10.5306623  -0.7626162
  17.5049406  10.5075486   1.0217198  17.5834598  12.4998589   0.1533181
  17.1978702  12.9920126   1.0522789  17.1989078  13.0127700  -0.7344132
  19.0094003  12.5128461   0.1542990  19.5131651  13.8466199   0.1815817
  19.1549195  14.3674800   1.0781160  19.1548359  14.4032629  -0.6931512
  21.0347970  13.8131971   0.1797177  21.3966258  13.2963996  -0.7177283
  21.3974510  13.2605030   1.0551720  21.5263869  15.1515068   0.2069644
  22.9511264  15.1787528   0.2071908  23.3384723  14.6806744  -0.6914109
  23.3398044  14.6422263   1.0815349  23.4212809  16.6249515   0.2372735
  23.0358265  17.1223485   1.1358447  23.0319830  17.1627092  -0.6360379
  24.8460754  16.6490823   0.2354370  25.3382569  17.9860671   0.2646591
  24.9776834  18.5035286   1.1622277  24.9774554  18.5413688  -0.6099101
  26.8598891  17.9526215   0.2637778  27.2201947  17.4355654  -0.6341320
  27.2198656  17.3975318   1.1375674  27.3539606  19.2889305   0.2919989
  28.7787777  19.3117452   0.2911381  29.1641387  18.8144038  -0.6062829
  29.1665655  18.7736588   1.1649188  29.2489119  20.7578849   0.3242246
  28.8611045  21.2538531   1.2213517  28.8584024  21.2949472  -0.5489738
  30.6744692  20.7933774   0.3226025  31.1594689  22.1340257   0.3528215
  30.8001382  22.6357139   1.2573742  30.7977110  22.6769003  -0.5266348
  32.6936707  22.0734003   0.3512671  33.0400433  21.5638015  -0.5539180
  33.0402590  21.5234578   1.2324395  33.1786704  23.4140487   0.3814843
  34.6042402  23.4473284   0.3705668  34.9867324  22.9539519  -0.5314799
  35.0009214  22.9078643   1.2394923  35.0771505  24.8935709   0.4055319
  34.6996688  25.3889620   1.3085847  34.6856364  25.4358182  -0.4640045
  36.5029627  24.9138621   0.3944028  37.0010074  26.2486337   0.4254052
  36.6496318  26.7618611   1.3302460  36.6333609  26.8100427  -0.4423879
  38.5215250  26.2129765   0.4114058  38.8728845  25.7017586  -0.4933658
  38.8901388  25.6505944   1.2781579  39.0166264  27.5487935   0.4444593
  40.4414066  27.5701202   0.4313629  40.8199322  27.0756953  -0.4717824
  40.8360046  27.0287724   1.3000654  40.9143062  29.0163896   0.4653455
  40.5360705  29.5104207   1.3688276  40.5196261  29.5568740  -0.4025947
  42.3390645  29.0397037   0.4532883  42.8329425  30.3759973   0.4853616
  42.4816172  30.8871310   1.3889815  42.4635231  30.9370732  -0.3818939
  44.3534308  30.3403985   0.4683584  44.7026465  29.8274073  -0.4350266
  44.7209882  29.7771065   1.3349683  44.8595059  31.6731706   0.5012599
  46.2853722  31.6865275   0.4870246  46.6495067  31.1986412  -0.4231391
  46.6678758  31.1483053   1.3605422  46.7367908  33.1536547   0.5218456
  46.3608906  33.6319306   1.4323268  46.3426093  33.6799464  -0.3537473
  48.1626572  33.1670115   0.5076121  48.6665463  34.5003502   0.5497980
  48.3179592  35.0073737   1.4579958  48.2987220  35.0701777  -0.3124148
  50.1880726  34.4673718   0.5309778  50.5402324  33.9644254  -0.3781082
  50.5602288  33.9014831   1.3939254  50.6797866  35.8052432   0.5733285
  52.1044424  35.8328684   0.5585713  52.4821034  35.3486634  -0.3516604
  52.5026074  35.2831693   1.4203744  52.5747416  37.2785671   0.6056355
  52.1989718  37.7620918   1.5158059  52.1759678  37.8294813  -0.2551095
  53.9994304  37.3031090   0.5887677  54.4917574  38.6396256   0.6330668
  54.1408542  39.1432344   1.5422720  54.1214630  39.2081087  -0.2289761
  56.0132947  38.6066094   0.6152287  56.3639264  38.1034111  -0.2943085
  56.3827558  38.0383499   1.4765043  56.5075009  39.9424661   0.6584963
  57.9322230  39.9656771   0.6425837  58.3079119  39.4821905  -0.2664348
  58.3294919  39.4144266   1.5038092  58.4025343  41.4112710   0.6926505
  58.0243963  41.8933884   1.6013806  58.0025504  41.9614878  -0.1679791
  59.8279870  41.4471701   0.6761621  60.3131431  42.7873327   0.7215915
  59.9635598  43.2750639   1.6375254  59.9418408  43.3434645  -0.1455169
  61.8472449  42.7271536   0.7025298  62.1838649  42.2315188  -0.2140170
  62.2033979  42.1639244   1.5714101  62.3324010  44.0673162   0.7479574
  63.7577659  44.1011447   0.7221414  64.1305357  43.6216922  -0.1914105
  64.1638753  43.5485931   1.5783954  64.2308734  45.5468134   0.7740580
  63.8631246  46.0282661   1.6885924  63.8299240  46.1021585  -0.0828202
  65.6564798  45.5676582   0.7478296  66.1546893  46.9019362   0.7938116
  65.8130625  47.4012031   1.7101236  65.7776228  47.4764207  -0.0612892
  67.6749704  46.8669086   0.7628360  68.0165817  46.3696500  -0.1533761
  68.0529930  46.2914673   1.6168707  68.1702588  48.2021999   0.8109165
  69.5948118  48.2241098   0.7827481  69.9636034  47.7436248  -0.1318753
  69.9988360  47.6696776   1.6387729  70.0678981  49.6698203   0.8336829
  69.6994001  50.1499066   1.7486339  69.6638003  50.2233776  -0.0215921
  71.4924403  49.6937016   0.8065842  71.9864947  51.0294841   0.8537050
  71.6449051  51.5266760   1.7687639  71.6076613  51.6036268  -0.0008442
  73.5067141  50.9945606   0.8197274  73.8461968  50.4955072  -0.0951021
  73.8836788  50.4182114   1.6736174  74.0129741  52.3268126   0.8674908
  75.4386018  52.3407714   0.8380504  75.7929266  51.8669274  -0.0833349
  75.8305839  51.7893877   1.6990679
