;
;   File /Users/harish/Documents/Work_folder/MetaChem-workshops/polymermd-workshop/Day3-gen-polymer-solved/polymers/PEO25_homo/topol.top  was generated
;   By user: harish (501)
;   On host:Mac 
;   At date:Mon. December  1 09:52:27 2025 
;
;   This is a standalone topology file
;
;   Created by:
;   ParmEd:       ipykernel_launcher.py, VERSION4.3.0 
;   Executable:   ipykernel_launcher.py
;   Library dir:  /Users/harish/miniconda3/envs/polymer_md/share/gromacs/top
;   Command line:
;     /Users/harish/miniconda3/envs/polymer_md/lib/python3.12/site-packages/ipykernel_launcher.py --f=/Users/harish/Library/Jupyter/runtime/kernel-v322f24bccc3f1cd820d1847e5d0c18409702f8398.json
;

[ defaults ]
; nbfunc        comb-rule       gen-pairs       fudgeLJ fudgeQQ
1               2               yes             0.5          0.83333333  

[ atomtypes ]
; name    at.num    mass    charge ptype  sigma      epsilon
c3             6  12.010000  0.00000000  A     0.33977095      0.4510352
h1             1   1.008000  0.00000000  A     0.24219973      0.0870272
os             8  16.000000  0.00000000  A     0.31560978      0.3037584


[ moleculetype ]
; Name            nrexcl
system1          3

[ atoms ]
;   nr       type  resnr residue  atom   cgnr    charge       mass  typeB    chargeB      massB
; residue    1 PEO rtp PEO q 0.0
    1         c3      1    PEO     C1      1 0.13484800  12.010000   ; qtot 0.134848
    2         h1      1    PEO     H3      2 0.02617500   1.008000   ; qtot 0.161023
    3         h1      1    PEO     H4      3 0.02617500   1.008000   ; qtot 0.187198
    4         os      1    PEO      O      4 -0.42067400  16.000000   ; qtot -0.233476
    5         c3      1    PEO     C2      5 0.12975600  12.010000   ; qtot -0.103720
    6         h1      1    PEO     H5      6 0.04043400   1.008000   ; qtot -0.063286
    7         h1      1    PEO     H6      7 0.04043400   1.008000   ; qtot -0.022852
    8         c3      1    PEO     C3      8 0.13281100  12.010000   ; qtot 0.109959
    9         h1      1    PEO     H7      9 0.04349000   1.008000   ; qtot 0.153449
   10         h1      1    PEO     H8     10 0.04349000   1.008000   ; qtot 0.196939
   11         os      1    PEO     O1     11 -0.42263700  16.000000   ; qtot -0.225698
   12         c3      1    PEO     C4     12 0.13281100  12.010000   ; qtot -0.092887
   13         h1      1    PEO     H9     13 0.04349000   1.008000   ; qtot -0.049397
   14         h1      1    PEO    H10     14 0.04349000   1.008000   ; qtot -0.005907
   15         c3      1    PEO     C5     15 0.13179300  12.010000   ; qtot 0.125886
   16         h1      1    PEO    H11     16 0.04247100   1.008000   ; qtot 0.168357
   17         h1      1    PEO    H12     17 0.04247100   1.008000   ; qtot 0.210828
   18         os      1    PEO     O2     18 -0.42165600  16.000000   ; qtot -0.210828
   19         c3      1    PEO     C6     19 0.13179300  12.010000   ; qtot -0.079035
   20         h1      1    PEO    H13     20 0.04247100   1.008000   ; qtot -0.036564
   21         h1      1    PEO    H14     21 0.04247100   1.008000   ; qtot 0.005907
   22         c3      1    PEO     C7     22 0.13281100  12.010000   ; qtot 0.138718
   23         h1      1    PEO    H15     23 0.04349000   1.008000   ; qtot 0.182208
   24         h1      1    PEO    H16     24 0.04349000   1.008000   ; qtot 0.225698
   25         os      1    PEO     O3     25 -0.42263700  16.000000   ; qtot -0.196939
   26         c3      1    PEO     C8     26 0.13281100  12.010000   ; qtot -0.064128
   27         h1      1    PEO    H17     27 0.04349000   1.008000   ; qtot -0.020638
   28         h1      1    PEO    H18     28 0.04349000   1.008000   ; qtot 0.022852
   29         c3      1    PEO     C9     29 0.12975600  12.010000   ; qtot 0.152608
   30         h1      1    PEO    H19     30 0.04043400   1.008000   ; qtot 0.193042
   31         h1      1    PEO    H20     31 0.04043400   1.008000   ; qtot 0.233476
   32         os      1    PEO     O4     32 -0.42067400  16.000000   ; qtot -0.187198
   33         c3      1    PEO    C10     33 0.13484800  12.010000   ; qtot -0.052350
   34         h1      1    PEO    H21     34 0.02617500   1.008000   ; qtot -0.026175
   35         h1      1    PEO    H22     35 0.02617500   1.008000   ; qtot 0.000000
; residue    2 PEO rtp PEO q 0.0
   36         c3      2    PEO     C1     36 0.13484800  12.010000   ; qtot 0.134848
   37         h1      2    PEO     H3     37 0.02617500   1.008000   ; qtot 0.161023
   38         h1      2    PEO     H4     38 0.02617500   1.008000   ; qtot 0.187198
   39         os      2    PEO      O     39 -0.42067400  16.000000   ; qtot -0.233476
   40         c3      2    PEO     C2     40 0.12975600  12.010000   ; qtot -0.103720
   41         h1      2    PEO     H5     41 0.04043400   1.008000   ; qtot -0.063286
   42         h1      2    PEO     H6     42 0.04043400   1.008000   ; qtot -0.022852
   43         c3      2    PEO     C3     43 0.13281100  12.010000   ; qtot 0.109959
   44         h1      2    PEO     H7     44 0.04349000   1.008000   ; qtot 0.153449
   45         h1      2    PEO     H8     45 0.04349000   1.008000   ; qtot 0.196939
   46         os      2    PEO     O1     46 -0.42263700  16.000000   ; qtot -0.225698
   47         c3      2    PEO     C4     47 0.13281100  12.010000   ; qtot -0.092887
   48         h1      2    PEO     H9     48 0.04349000   1.008000   ; qtot -0.049397
   49         h1      2    PEO    H10     49 0.04349000   1.008000   ; qtot -0.005907
   50         c3      2    PEO     C5     50 0.13179300  12.010000   ; qtot 0.125886
   51         h1      2    PEO    H11     51 0.04247100   1.008000   ; qtot 0.168357
   52         h1      2    PEO    H12     52 0.04247100   1.008000   ; qtot 0.210828
   53         os      2    PEO     O2     53 -0.42165600  16.000000   ; qtot -0.210828
   54         c3      2    PEO     C6     54 0.13179300  12.010000   ; qtot -0.079035
   55         h1      2    PEO    H13     55 0.04247100   1.008000   ; qtot -0.036564
   56         h1      2    PEO    H14     56 0.04247100   1.008000   ; qtot 0.005907
   57         c3      2    PEO     C7     57 0.13281100  12.010000   ; qtot 0.138718
   58         h1      2    PEO    H15     58 0.04349000   1.008000   ; qtot 0.182208
   59         h1      2    PEO    H16     59 0.04349000   1.008000   ; qtot 0.225698
   60         os      2    PEO     O3     60 -0.42263700  16.000000   ; qtot -0.196939
   61         c3      2    PEO     C8     61 0.13281100  12.010000   ; qtot -0.064128
   62         h1      2    PEO    H17     62 0.04349000   1.008000   ; qtot -0.020638
   63         h1      2    PEO    H18     63 0.04349000   1.008000   ; qtot 0.022852
   64         c3      2    PEO     C9     64 0.12975600  12.010000   ; qtot 0.152608
   65         h1      2    PEO    H19     65 0.04043400   1.008000   ; qtot 0.193042
   66         h1      2    PEO    H20     66 0.04043400   1.008000   ; qtot 0.233476
   67         os      2    PEO     O4     67 -0.42067400  16.000000   ; qtot -0.187198
   68         c3      2    PEO    C10     68 0.13484800  12.010000   ; qtot -0.052350
   69         h1      2    PEO    H21     69 0.02617500   1.008000   ; qtot -0.026175
   70         h1      2    PEO    H22     70 0.02617500   1.008000   ; qtot 0.000000
; residue    3 PEO rtp PEO q 0.0
   71         c3      3    PEO     C1     71 0.13484800  12.010000   ; qtot 0.134848
   72         h1      3    PEO     H3     72 0.02617500   1.008000   ; qtot 0.161023
   73         h1      3    PEO     H4     73 0.02617500   1.008000   ; qtot 0.187198
   74         os      3    PEO      O     74 -0.42067400  16.000000   ; qtot -0.233476
   75         c3      3    PEO     C2     75 0.12975600  12.010000   ; qtot -0.103720
   76         h1      3    PEO     H5     76 0.04043400   1.008000   ; qtot -0.063286
   77         h1      3    PEO     H6     77 0.04043400   1.008000   ; qtot -0.022852
   78         c3      3    PEO     C3     78 0.13281100  12.010000   ; qtot 0.109959
   79         h1      3    PEO     H7     79 0.04349000   1.008000   ; qtot 0.153449
   80         h1      3    PEO     H8     80 0.04349000   1.008000   ; qtot 0.196939
   81         os      3    PEO     O1     81 -0.42263700  16.000000   ; qtot -0.225698
   82         c3      3    PEO     C4     82 0.13281100  12.010000   ; qtot -0.092887
   83         h1      3    PEO     H9     83 0.04349000   1.008000   ; qtot -0.049397
   84         h1      3    PEO    H10     84 0.04349000   1.008000   ; qtot -0.005907
   85         c3      3    PEO     C5     85 0.13179300  12.010000   ; qtot 0.125886
   86         h1      3    PEO    H11     86 0.04247100   1.008000   ; qtot 0.168357
   87         h1      3    PEO    H12     87 0.04247100   1.008000   ; qtot 0.210828
   88         os      3    PEO     O2     88 -0.42165600  16.000000   ; qtot -0.210828
   89         c3      3    PEO     C6     89 0.13179300  12.010000   ; qtot -0.079035
   90         h1      3    PEO    H13     90 0.04247100   1.008000   ; qtot -0.036564
   91         h1      3    PEO    H14     91 0.04247100   1.008000   ; qtot 0.005907
   92         c3      3    PEO     C7     92 0.13281100  12.010000   ; qtot 0.138718
   93         h1      3    PEO    H15     93 0.04349000   1.008000   ; qtot 0.182208
   94         h1      3    PEO    H16     94 0.04349000   1.008000   ; qtot 0.225698
   95         os      3    PEO     O3     95 -0.42263700  16.000000   ; qtot -0.196939
   96         c3      3    PEO     C8     96 0.13281100  12.010000   ; qtot -0.064128
   97         h1      3    PEO    H17     97 0.04349000   1.008000   ; qtot -0.020638
   98         h1      3    PEO    H18     98 0.04349000   1.008000   ; qtot 0.022852
   99         c3      3    PEO     C9     99 0.12975600  12.010000   ; qtot 0.152608
  100         h1      3    PEO    H19    100 0.04043400   1.008000   ; qtot 0.193042
  101         h1      3    PEO    H20    101 0.04043400   1.008000   ; qtot 0.233476
  102         os      3    PEO     O4    102 -0.42067400  16.000000   ; qtot -0.187198
  103         c3      3    PEO    C10    103 0.13484800  12.010000   ; qtot -0.052350
  104         h1      3    PEO    H21    104 0.02617500   1.008000   ; qtot -0.026175
  105         h1      3    PEO    H22    105 0.02617500   1.008000   ; qtot 0.000000
; residue    4 PEO rtp PEO q 0.0
  106         c3      4    PEO     C1    106 0.13484800  12.010000   ; qtot 0.134848
  107         h1      4    PEO     H3    107 0.02617500   1.008000   ; qtot 0.161023
  108         h1      4    PEO     H4    108 0.02617500   1.008000   ; qtot 0.187198
  109         os      4    PEO      O    109 -0.42067400  16.000000   ; qtot -0.233476
  110         c3      4    PEO     C2    110 0.12975600  12.010000   ; qtot -0.103720
  111         h1      4    PEO     H5    111 0.04043400   1.008000   ; qtot -0.063286
  112         h1      4    PEO     H6    112 0.04043400   1.008000   ; qtot -0.022852
  113         c3      4    PEO     C3    113 0.13281100  12.010000   ; qtot 0.109959
  114         h1      4    PEO     H7    114 0.04349000   1.008000   ; qtot 0.153449
  115         h1      4    PEO     H8    115 0.04349000   1.008000   ; qtot 0.196939
  116         os      4    PEO     O1    116 -0.42263700  16.000000   ; qtot -0.225698
  117         c3      4    PEO     C4    117 0.13281100  12.010000   ; qtot -0.092887
  118         h1      4    PEO     H9    118 0.04349000   1.008000   ; qtot -0.049397
  119         h1      4    PEO    H10    119 0.04349000   1.008000   ; qtot -0.005907
  120         c3      4    PEO     C5    120 0.13179300  12.010000   ; qtot 0.125886
  121         h1      4    PEO    H11    121 0.04247100   1.008000   ; qtot 0.168357
  122         h1      4    PEO    H12    122 0.04247100   1.008000   ; qtot 0.210828
  123         os      4    PEO     O2    123 -0.42165600  16.000000   ; qtot -0.210828
  124         c3      4    PEO     C6    124 0.13179300  12.010000   ; qtot -0.079035
  125         h1      4    PEO    H13    125 0.04247100   1.008000   ; qtot -0.036564
  126         h1      4    PEO    H14    126 0.04247100   1.008000   ; qtot 0.005907
  127         c3      4    PEO     C7    127 0.13281100  12.010000   ; qtot 0.138718
  128         h1      4    PEO    H15    128 0.04349000   1.008000   ; qtot 0.182208
  129         h1      4    PEO    H16    129 0.04349000   1.008000   ; qtot 0.225698
  130         os      4    PEO     O3    130 -0.42263700  16.000000   ; qtot -0.196939
  131         c3      4    PEO     C8    131 0.13281100  12.010000   ; qtot -0.064128
  132         h1      4    PEO    H17    132 0.04349000   1.008000   ; qtot -0.020638
  133         h1      4    PEO    H18    133 0.04349000   1.008000   ; qtot 0.022852
  134         c3      4    PEO     C9    134 0.12975600  12.010000   ; qtot 0.152608
  135         h1      4    PEO    H19    135 0.04043400   1.008000   ; qtot 0.193042
  136         h1      4    PEO    H20    136 0.04043400   1.008000   ; qtot 0.233476
  137         os      4    PEO     O4    137 -0.42067400  16.000000   ; qtot -0.187198
  138         c3      4    PEO    C10    138 0.13484800  12.010000   ; qtot -0.052350
  139         h1      4    PEO    H21    139 0.02617500   1.008000   ; qtot -0.026175
  140         h1      4    PEO    H22    140 0.02617500   1.008000   ; qtot 0.000000
; residue    5 PEO rtp PEO q 0.0
  141         c3      5    PEO     C1    141 0.13484800  12.010000   ; qtot 0.134848
  142         h1      5    PEO     H3    142 0.02617500   1.008000   ; qtot 0.161023
  143         h1      5    PEO     H4    143 0.02617500   1.008000   ; qtot 0.187198
  144         os      5    PEO      O    144 -0.42067400  16.000000   ; qtot -0.233476
  145         c3      5    PEO     C2    145 0.12975600  12.010000   ; qtot -0.103720
  146         h1      5    PEO     H5    146 0.04043400   1.008000   ; qtot -0.063286
  147         h1      5    PEO     H6    147 0.04043400   1.008000   ; qtot -0.022852
  148         c3      5    PEO     C3    148 0.13281100  12.010000   ; qtot 0.109959
  149         h1      5    PEO     H7    149 0.04349000   1.008000   ; qtot 0.153449
  150         h1      5    PEO     H8    150 0.04349000   1.008000   ; qtot 0.196939
  151         os      5    PEO     O1    151 -0.42263700  16.000000   ; qtot -0.225698
  152         c3      5    PEO     C4    152 0.13281100  12.010000   ; qtot -0.092887
  153         h1      5    PEO     H9    153 0.04349000   1.008000   ; qtot -0.049397
  154         h1      5    PEO    H10    154 0.04349000   1.008000   ; qtot -0.005907
  155         c3      5    PEO     C5    155 0.13179300  12.010000   ; qtot 0.125886
  156         h1      5    PEO    H11    156 0.04247100   1.008000   ; qtot 0.168357
  157         h1      5    PEO    H12    157 0.04247100   1.008000   ; qtot 0.210828
  158         os      5    PEO     O2    158 -0.42165600  16.000000   ; qtot -0.210828
  159         c3      5    PEO     C6    159 0.13179300  12.010000   ; qtot -0.079035
  160         h1      5    PEO    H13    160 0.04247100   1.008000   ; qtot -0.036564
  161         h1      5    PEO    H14    161 0.04247100   1.008000   ; qtot 0.005907
  162         c3      5    PEO     C7    162 0.13281100  12.010000   ; qtot 0.138718
  163         h1      5    PEO    H15    163 0.04349000   1.008000   ; qtot 0.182208
  164         h1      5    PEO    H16    164 0.04349000   1.008000   ; qtot 0.225698
  165         os      5    PEO     O3    165 -0.42263700  16.000000   ; qtot -0.196939
  166         c3      5    PEO     C8    166 0.13281100  12.010000   ; qtot -0.064128
  167         h1      5    PEO    H17    167 0.04349000   1.008000   ; qtot -0.020638
  168         h1      5    PEO    H18    168 0.04349000   1.008000   ; qtot 0.022852
  169         c3      5    PEO     C9    169 0.12975600  12.010000   ; qtot 0.152608
  170         h1      5    PEO    H19    170 0.04043400   1.008000   ; qtot 0.193042
  171         h1      5    PEO    H20    171 0.04043400   1.008000   ; qtot 0.233476
  172         os      5    PEO     O4    172 -0.42067400  16.000000   ; qtot -0.187198
  173         c3      5    PEO    C10    173 0.13484800  12.010000   ; qtot -0.052350
  174         h1      5    PEO    H21    174 0.02617500   1.008000   ; qtot -0.026175
  175         h1      5    PEO    H22    175 0.02617500   1.008000   ; qtot 0.000000

[ bonds ]
;    ai     aj funct         c0         c1         c2         c3
     33     36     1   0.15354 191535.152000
     32     33     1   0.14273 236203.536000
     29     32     1   0.14273 236203.536000
     26     29     1   0.15354 191535.152000
     25     26     1   0.14273 236203.536000
     22     25     1   0.14273 236203.536000
     19     22     1   0.15354 191535.152000
     18     19     1   0.14273 236203.536000
     15     18     1   0.14273 236203.536000
     12     15     1   0.15354 191535.152000
     11     12     1   0.14273 236203.536000
      8     11     1   0.14273 236203.536000
      5      8     1   0.15354 191535.152000
      4      5     1   0.14273 236203.536000
      1      4     1   0.14273 236203.536000
     68     71     1   0.15354 191535.152000
     67     68     1   0.14273 236203.536000
     64     67     1   0.14273 236203.536000
     61     64     1   0.15354 191535.152000
     60     61     1   0.14273 236203.536000
     57     60     1   0.14273 236203.536000
     54     57     1   0.15354 191535.152000
     53     54     1   0.14273 236203.536000
     50     53     1   0.14273 236203.536000
     47     50     1   0.15354 191535.152000
     46     47     1   0.14273 236203.536000
     43     46     1   0.14273 236203.536000
     40     43     1   0.15354 191535.152000
     39     40     1   0.14273 236203.536000
     36     39     1   0.14273 236203.536000
    103    106     1   0.15354 191535.152000
    102    103     1   0.14273 236203.536000
     99    102     1   0.14273 236203.536000
     96     99     1   0.15354 191535.152000
     95     96     1   0.14273 236203.536000
     92     95     1   0.14273 236203.536000
     89     92     1   0.15354 191535.152000
     88     89     1   0.14273 236203.536000
     85     88     1   0.14273 236203.536000
     82     85     1   0.15354 191535.152000
     81     82     1   0.14273 236203.536000
     78     81     1   0.14273 236203.536000
     75     78     1   0.15354 191535.152000
     74     75     1   0.14273 236203.536000
     71     74     1   0.14273 236203.536000
    138    141     1   0.15354 191535.152000
    137    138     1   0.14273 236203.536000
    134    137     1   0.14273 236203.536000
    131    134     1   0.15354 191535.152000
    130    131     1   0.14273 236203.536000
    127    130     1   0.14273 236203.536000
    124    127     1   0.15354 191535.152000
    123    124     1   0.14273 236203.536000
    120    123     1   0.14273 236203.536000
    117    120     1   0.15354 191535.152000
    116    117     1   0.14273 236203.536000
    113    116     1   0.14273 236203.536000
    110    113     1   0.15354 191535.152000
    109    110     1   0.14273 236203.536000
    106    109     1   0.14273 236203.536000
    172    173     1   0.14273 236203.536000
    169    172     1   0.14273 236203.536000
    166    169     1   0.15354 191535.152000
    165    166     1   0.14273 236203.536000
    162    165     1   0.14273 236203.536000
    159    162     1   0.15354 191535.152000
    158    159     1   0.14273 236203.536000
    155    158     1   0.14273 236203.536000
    152    155     1   0.15354 191535.152000
    151    152     1   0.14273 236203.536000
    148    151     1   0.14273 236203.536000
    145    148     1   0.15354 191535.152000
    144    145     1   0.14273 236203.536000
    141    144     1   0.14273 236203.536000
     33     34     1   0.10969 288043.296000
     33     35     1   0.10969 288043.296000
     29     30     1   0.10969 288043.296000
     29     31     1   0.10969 288043.296000
     26     27     1   0.10969 288043.296000
     26     28     1   0.10969 288043.296000
     22     23     1   0.10969 288043.296000
     22     24     1   0.10969 288043.296000
     19     20     1   0.10969 288043.296000
     19     21     1   0.10969 288043.296000
     15     16     1   0.10969 288043.296000
     15     17     1   0.10969 288043.296000
     12     13     1   0.10969 288043.296000
     12     14     1   0.10969 288043.296000
      8      9     1   0.10969 288043.296000
      8     10     1   0.10969 288043.296000
      5      6     1   0.10969 288043.296000
      5      7     1   0.10969 288043.296000
      1      2     1   0.10969 288043.296000
      1      3     1   0.10969 288043.296000
     68     69     1   0.10969 288043.296000
     68     70     1   0.10969 288043.296000
     64     65     1   0.10969 288043.296000
     64     66     1   0.10969 288043.296000
     61     62     1   0.10969 288043.296000
     61     63     1   0.10969 288043.296000
     57     58     1   0.10969 288043.296000
     57     59     1   0.10969 288043.296000
     54     55     1   0.10969 288043.296000
     54     56     1   0.10969 288043.296000
     50     51     1   0.10969 288043.296000
     50     52     1   0.10969 288043.296000
     47     48     1   0.10969 288043.296000
     47     49     1   0.10969 288043.296000
     43     44     1   0.10969 288043.296000
     43     45     1   0.10969 288043.296000
     40     41     1   0.10969 288043.296000
     40     42     1   0.10969 288043.296000
     36     37     1   0.10969 288043.296000
     36     38     1   0.10969 288043.296000
    103    104     1   0.10969 288043.296000
    103    105     1   0.10969 288043.296000
     99    100     1   0.10969 288043.296000
     99    101     1   0.10969 288043.296000
     96     97     1   0.10969 288043.296000
     96     98     1   0.10969 288043.296000
     92     93     1   0.10969 288043.296000
     92     94     1   0.10969 288043.296000
     89     90     1   0.10969 288043.296000
     89     91     1   0.10969 288043.296000
     85     86     1   0.10969 288043.296000
     85     87     1   0.10969 288043.296000
     82     83     1   0.10969 288043.296000
     82     84     1   0.10969 288043.296000
     78     79     1   0.10969 288043.296000
     78     80     1   0.10969 288043.296000
     75     76     1   0.10969 288043.296000
     75     77     1   0.10969 288043.296000
     71     72     1   0.10969 288043.296000
     71     73     1   0.10969 288043.296000
    138    139     1   0.10969 288043.296000
    138    140     1   0.10969 288043.296000
    134    135     1   0.10969 288043.296000
    134    136     1   0.10969 288043.296000
    131    132     1   0.10969 288043.296000
    131    133     1   0.10969 288043.296000
    127    128     1   0.10969 288043.296000
    127    129     1   0.10969 288043.296000
    124    125     1   0.10969 288043.296000
    124    126     1   0.10969 288043.296000
    120    121     1   0.10969 288043.296000
    120    122     1   0.10969 288043.296000
    117    118     1   0.10969 288043.296000
    117    119     1   0.10969 288043.296000
    113    114     1   0.10969 288043.296000
    113    115     1   0.10969 288043.296000
    110    111     1   0.10969 288043.296000
    110    112     1   0.10969 288043.296000
    106    107     1   0.10969 288043.296000
    106    108     1   0.10969 288043.296000
    173    174     1   0.10969 288043.296000
    173    175     1   0.10969 288043.296000
    169    170     1   0.10969 288043.296000
    169    171     1   0.10969 288043.296000
    166    167     1   0.10969 288043.296000
    166    168     1   0.10969 288043.296000
    162    163     1   0.10969 288043.296000
    162    164     1   0.10969 288043.296000
    159    160     1   0.10969 288043.296000
    159    161     1   0.10969 288043.296000
    155    156     1   0.10969 288043.296000
    155    157     1   0.10969 288043.296000
    152    153     1   0.10969 288043.296000
    152    154     1   0.10969 288043.296000
    148    149     1   0.10969 288043.296000
    148    150     1   0.10969 288043.296000
    145    146     1   0.10969 288043.296000
    145    147     1   0.10969 288043.296000
    141    142     1   0.10969 288043.296000
    141    143     1   0.10969 288043.296000

[ pairs ]
;    ai     aj funct         c0         c1         c2         c3
     33     40     1
     32     39     1
     29     36     1
     26     33     1
     25     32     1
     22     29     1
     19     26     1
     18     25     1
     15     22     1
     12     19     1
     11     18     1
      8     15     1
      5     12     1
      4     11     1
      1      8     1
     68     75     1
     67     74     1
     64     71     1
     61     68     1
     60     67     1
     57     64     1
     54     61     1
     53     60     1
     50     57     1
     47     54     1
     46     53     1
     43     50     1
     40     47     1
     39     46     1
     36     43     1
    103    110     1
    102    109     1
     99    106     1
     96    103     1
     95    102     1
     92     99     1
     89     96     1
     88     95     1
     85     92     1
     82     89     1
     81     88     1
     78     85     1
     75     82     1
     74     81     1
     71     78     1
    138    145     1
    137    144     1
    134    141     1
    131    138     1
    130    137     1
    127    134     1
    124    131     1
    123    130     1
    120    127     1
    117    124     1
    116    123     1
    113    120     1
    110    117     1
    109    116     1
    106    113     1
    166    173     1
    165    172     1
    162    169     1
    159    166     1
    158    165     1
    155    162     1
    152    159     1
    151    158     1
    148    155     1
    145    152     1
    144    151     1
    141    148     1
     35     37     1
     35     38     1
     35     39     1
     34     37     1
     34     38     1
     34     39     1
     32     37     1
     32     38     1
     31     33     1
     30     33     1
     29     34     1
     29     35     1
     28     30     1
     28     31     1
     28     32     1
     27     30     1
     27     31     1
     27     32     1
     25     30     1
     25     31     1
     24     26     1
     23     26     1
     22     27     1
     22     28     1
     21     23     1
     21     24     1
     21     25     1
     20     23     1
     20     24     1
     20     25     1
     18     23     1
     18     24     1
     17     19     1
     16     19     1
     15     20     1
     15     21     1
     14     16     1
     14     17     1
     14     18     1
     13     16     1
     13     17     1
     13     18     1
     11     16     1
     11     17     1
     10     12     1
      9     12     1
      8     13     1
      8     14     1
      7      9     1
      7     10     1
      7     11     1
      6      9     1
      6     10     1
      6     11     1
      4      9     1
      4     10     1
      3      5     1
      2      5     1
      1      6     1
      1      7     1
     70     72     1
     70     73     1
     70     74     1
     69     72     1
     69     73     1
     69     74     1
     67     72     1
     67     73     1
     66     68     1
     65     68     1
     64     69     1
     64     70     1
     63     65     1
     63     66     1
     63     67     1
     62     65     1
     62     66     1
     62     67     1
     60     65     1
     60     66     1
     59     61     1
     58     61     1
     57     62     1
     57     63     1
     56     58     1
     56     59     1
     56     60     1
     55     58     1
     55     59     1
     55     60     1
     53     58     1
     53     59     1
     52     54     1
     51     54     1
     50     55     1
     50     56     1
     49     51     1
     49     52     1
     49     53     1
     48     51     1
     48     52     1
     48     53     1
     46     51     1
     46     52     1
     45     47     1
     44     47     1
     43     48     1
     43     49     1
     42     44     1
     42     45     1
     42     46     1
     41     44     1
     41     45     1
     41     46     1
     39     44     1
     39     45     1
     38     40     1
     37     40     1
     36     41     1
     36     42     1
    105    107     1
    105    108     1
    105    109     1
    104    107     1
    104    108     1
    104    109     1
    102    107     1
    102    108     1
    101    103     1
    100    103     1
     99    104     1
     99    105     1
     98    100     1
     98    101     1
     98    102     1
     97    100     1
     97    101     1
     97    102     1
     95    100     1
     95    101     1
     94     96     1
     93     96     1
     92     97     1
     92     98     1
     91     93     1
     91     94     1
     91     95     1
     90     93     1
     90     94     1
     90     95     1
     88     93     1
     88     94     1
     87     89     1
     86     89     1
     85     90     1
     85     91     1
     84     86     1
     84     87     1
     84     88     1
     83     86     1
     83     87     1
     83     88     1
     81     86     1
     81     87     1
     80     82     1
     79     82     1
     78     83     1
     78     84     1
     77     79     1
     77     80     1
     77     81     1
     76     79     1
     76     80     1
     76     81     1
     74     79     1
     74     80     1
     73     75     1
     72     75     1
     71     76     1
     71     77     1
    140    142     1
    140    143     1
    140    144     1
    139    142     1
    139    143     1
    139    144     1
    137    142     1
    137    143     1
    136    138     1
    135    138     1
    134    139     1
    134    140     1
    133    135     1
    133    136     1
    133    137     1
    132    135     1
    132    136     1
    132    137     1
    130    135     1
    130    136     1
    129    131     1
    128    131     1
    127    132     1
    127    133     1
    126    128     1
    126    129     1
    126    130     1
    125    128     1
    125    129     1
    125    130     1
    123    128     1
    123    129     1
    122    124     1
    121    124     1
    120    125     1
    120    126     1
    119    121     1
    119    122     1
    119    123     1
    118    121     1
    118    122     1
    118    123     1
    116    121     1
    116    122     1
    115    117     1
    114    117     1
    113    118     1
    113    119     1
    112    114     1
    112    115     1
    112    116     1
    111    114     1
    111    115     1
    111    116     1
    109    114     1
    109    115     1
    108    110     1
    107    110     1
    106    111     1
    106    112     1
    171    173     1
    170    173     1
    169    174     1
    169    175     1
    168    170     1
    168    171     1
    168    172     1
    167    170     1
    167    171     1
    167    172     1
    165    170     1
    165    171     1
    164    166     1
    163    166     1
    162    167     1
    162    168     1
    161    163     1
    161    164     1
    161    165     1
    160    163     1
    160    164     1
    160    165     1
    158    163     1
    158    164     1
    157    159     1
    156    159     1
    155    160     1
    155    161     1
    154    156     1
    154    157     1
    154    158     1
    153    156     1
    153    157     1
    153    158     1
    151    156     1
    151    157     1
    150    152     1
    149    152     1
    148    153     1
    148    154     1
    147    149     1
    147    150     1
    147    151     1
    146    149     1
    146    150     1
    146    151     1
    144    149     1
    144    150     1
    143    145     1
    142    145     1
    141    146     1
    141    147     1

[ angles ]
;    ai     aj     ak funct         c0         c1         c2         c3
     33     36     39     1   107.6200464 648.017920
     32     33     36     1   107.6200464 648.017920
     29     32     33     1   113.6000487 739.145440
     26     29     32     1   107.6200464 648.017920
     25     26     29     1   107.6200464 648.017920
     22     25     26     1   113.6000487 739.145440
     19     22     25     1   107.6200464 648.017920
     18     19     22     1   107.6200464 648.017920
     15     18     19     1   113.6000487 739.145440
     12     15     18     1   107.6200464 648.017920
     11     12     15     1   107.6200464 648.017920
      8     11     12     1   113.6000487 739.145440
      5      8     11     1   107.6200464 648.017920
      4      5      8     1   107.6200464 648.017920
      1      4      5     1   113.6000487 739.145440
     68     71     74     1   107.6200464 648.017920
     67     68     71     1   107.6200464 648.017920
     64     67     68     1   113.6000487 739.145440
     61     64     67     1   107.6200464 648.017920
     60     61     64     1   107.6200464 648.017920
     57     60     61     1   113.6000487 739.145440
     54     57     60     1   107.6200464 648.017920
     53     54     57     1   107.6200464 648.017920
     50     53     54     1   113.6000487 739.145440
     47     50     53     1   107.6200464 648.017920
     46     47     50     1   107.6200464 648.017920
     43     46     47     1   113.6000487 739.145440
     40     43     46     1   107.6200464 648.017920
     39     40     43     1   107.6200464 648.017920
     36     39     40     1   113.6000487 739.145440
    103    106    109     1   107.6200464 648.017920
    102    103    106     1   107.6200464 648.017920
     99    102    103     1   113.6000487 739.145440
     96     99    102     1   107.6200464 648.017920
     95     96     99     1   107.6200464 648.017920
     92     95     96     1   113.6000487 739.145440
     89     92     95     1   107.6200464 648.017920
     88     89     92     1   107.6200464 648.017920
     85     88     89     1   113.6000487 739.145440
     82     85     88     1   107.6200464 648.017920
     81     82     85     1   107.6200464 648.017920
     78     81     82     1   113.6000487 739.145440
     75     78     81     1   107.6200464 648.017920
     74     75     78     1   107.6200464 648.017920
     71     74     75     1   113.6000487 739.145440
    138    141    144     1   107.6200464 648.017920
    137    138    141     1   107.6200464 648.017920
    134    137    138     1   113.6000487 739.145440
    131    134    137     1   107.6200464 648.017920
    130    131    134     1   107.6200464 648.017920
    127    130    131     1   113.6000487 739.145440
    124    127    130     1   107.6200464 648.017920
    123    124    127     1   107.6200464 648.017920
    120    123    124     1   113.6000487 739.145440
    117    120    123     1   107.6200464 648.017920
    116    117    120     1   107.6200464 648.017920
    113    116    117     1   113.6000487 739.145440
    110    113    116     1   107.6200464 648.017920
    109    110    113     1   107.6200464 648.017920
    106    109    110     1   113.6000487 739.145440
    169    172    173     1   113.6000487 739.145440
    166    169    172     1   107.6200464 648.017920
    165    166    169     1   107.6200464 648.017920
    162    165    166     1   113.6000487 739.145440
    159    162    165     1   107.6200464 648.017920
    158    159    162     1   107.6200464 648.017920
    155    158    159     1   113.6000487 739.145440
    152    155    158     1   107.6200464 648.017920
    151    152    155     1   107.6200464 648.017920
    148    151    152     1   113.6000487 739.145440
    145    148    151     1   107.6200464 648.017920
    144    145    148     1   107.6200464 648.017920
    141    144    145     1   113.6000487 739.145440
     35     33     36     1   109.5900471 362.167040
     34     33     35     1   108.5500468 298.235520
     34     33     36     1   109.5900471 362.167040
     33     36     37     1   109.5900471 362.167040
     33     36     38     1   109.5900471 362.167040
     32     33     34     1   110.3400472 470.281600
     32     33     35     1   110.3400472 470.281600
     31     29     32     1   110.3400472 470.281600
     30     29     31     1   108.5500468 298.235520
     30     29     32     1   110.3400472 470.281600
     28     26     29     1   109.5900471 362.167040
     27     26     28     1   108.5500468 298.235520
     27     26     29     1   109.5900471 362.167040
     26     29     30     1   109.5900471 362.167040
     26     29     31     1   109.5900471 362.167040
     25     26     27     1   110.3400472 470.281600
     25     26     28     1   110.3400472 470.281600
     24     22     25     1   110.3400472 470.281600
     23     22     24     1   108.5500468 298.235520
     23     22     25     1   110.3400472 470.281600
     21     19     22     1   109.5900471 362.167040
     20     19     21     1   108.5500468 298.235520
     20     19     22     1   109.5900471 362.167040
     19     22     23     1   109.5900471 362.167040
     19     22     24     1   109.5900471 362.167040
     18     19     20     1   110.3400472 470.281600
     18     19     21     1   110.3400472 470.281600
     17     15     18     1   110.3400472 470.281600
     16     15     17     1   108.5500468 298.235520
     16     15     18     1   110.3400472 470.281600
     14     12     15     1   109.5900471 362.167040
     13     12     14     1   108.5500468 298.235520
     13     12     15     1   109.5900471 362.167040
     12     15     16     1   109.5900471 362.167040
     12     15     17     1   109.5900471 362.167040
     11     12     13     1   110.3400472 470.281600
     11     12     14     1   110.3400472 470.281600
     10      8     11     1   110.3400472 470.281600
      9      8     10     1   108.5500468 298.235520
      9      8     11     1   110.3400472 470.281600
      7      5      8     1   109.5900471 362.167040
      6      5      7     1   108.5500468 298.235520
      6      5      8     1   109.5900471 362.167040
      5      8      9     1   109.5900471 362.167040
      5      8     10     1   109.5900471 362.167040
      4      5      6     1   110.3400472 470.281600
      4      5      7     1   110.3400472 470.281600
      3      1      4     1   110.3400472 470.281600
      2      1      3     1   108.5500468 298.235520
      2      1      4     1   110.3400472 470.281600
     70     68     71     1   109.5900471 362.167040
     69     68     70     1   108.5500468 298.235520
     69     68     71     1   109.5900471 362.167040
     68     71     72     1   109.5900471 362.167040
     68     71     73     1   109.5900471 362.167040
     67     68     69     1   110.3400472 470.281600
     67     68     70     1   110.3400472 470.281600
     66     64     67     1   110.3400472 470.281600
     65     64     66     1   108.5500468 298.235520
     65     64     67     1   110.3400472 470.281600
     63     61     64     1   109.5900471 362.167040
     62     61     63     1   108.5500468 298.235520
     62     61     64     1   109.5900471 362.167040
     61     64     65     1   109.5900471 362.167040
     61     64     66     1   109.5900471 362.167040
     60     61     62     1   110.3400472 470.281600
     60     61     63     1   110.3400472 470.281600
     59     57     60     1   110.3400472 470.281600
     58     57     59     1   108.5500468 298.235520
     58     57     60     1   110.3400472 470.281600
     56     54     57     1   109.5900471 362.167040
     55     54     56     1   108.5500468 298.235520
     55     54     57     1   109.5900471 362.167040
     54     57     58     1   109.5900471 362.167040
     54     57     59     1   109.5900471 362.167040
     53     54     55     1   110.3400472 470.281600
     53     54     56     1   110.3400472 470.281600
     52     50     53     1   110.3400472 470.281600
     51     50     52     1   108.5500468 298.235520
     51     50     53     1   110.3400472 470.281600
     49     47     50     1   109.5900471 362.167040
     48     47     49     1   108.5500468 298.235520
     48     47     50     1   109.5900471 362.167040
     47     50     51     1   109.5900471 362.167040
     47     50     52     1   109.5900471 362.167040
     46     47     48     1   110.3400472 470.281600
     46     47     49     1   110.3400472 470.281600
     45     43     46     1   110.3400472 470.281600
     44     43     45     1   108.5500468 298.235520
     44     43     46     1   110.3400472 470.281600
     42     40     43     1   109.5900471 362.167040
     41     40     42     1   108.5500468 298.235520
     41     40     43     1   109.5900471 362.167040
     40     43     44     1   109.5900471 362.167040
     40     43     45     1   109.5900471 362.167040
     39     40     41     1   110.3400472 470.281600
     39     40     42     1   110.3400472 470.281600
     38     36     39     1   110.3400472 470.281600
     37     36     38     1   108.5500468 298.235520
     37     36     39     1   110.3400472 470.281600
    105    103    106     1   109.5900471 362.167040
    104    103    105     1   108.5500468 298.235520
    104    103    106     1   109.5900471 362.167040
    103    106    107     1   109.5900471 362.167040
    103    106    108     1   109.5900471 362.167040
    102    103    104     1   110.3400472 470.281600
    102    103    105     1   110.3400472 470.281600
    101     99    102     1   110.3400472 470.281600
    100     99    101     1   108.5500468 298.235520
    100     99    102     1   110.3400472 470.281600
     98     96     99     1   109.5900471 362.167040
     97     96     98     1   108.5500468 298.235520
     97     96     99     1   109.5900471 362.167040
     96     99    100     1   109.5900471 362.167040
     96     99    101     1   109.5900471 362.167040
     95     96     97     1   110.3400472 470.281600
     95     96     98     1   110.3400472 470.281600
     94     92     95     1   110.3400472 470.281600
     93     92     94     1   108.5500468 298.235520
     93     92     95     1   110.3400472 470.281600
     91     89     92     1   109.5900471 362.167040
     90     89     91     1   108.5500468 298.235520
     90     89     92     1   109.5900471 362.167040
     89     92     93     1   109.5900471 362.167040
     89     92     94     1   109.5900471 362.167040
     88     89     90     1   110.3400472 470.281600
     88     89     91     1   110.3400472 470.281600
     87     85     88     1   110.3400472 470.281600
     86     85     87     1   108.5500468 298.235520
     86     85     88     1   110.3400472 470.281600
     84     82     85     1   109.5900471 362.167040
     83     82     84     1   108.5500468 298.235520
     83     82     85     1   109.5900471 362.167040
     82     85     86     1   109.5900471 362.167040
     82     85     87     1   109.5900471 362.167040
     81     82     83     1   110.3400472 470.281600
     81     82     84     1   110.3400472 470.281600
     80     78     81     1   110.3400472 470.281600
     79     78     80     1   108.5500468 298.235520
     79     78     81     1   110.3400472 470.281600
     77     75     78     1   109.5900471 362.167040
     76     75     77     1   108.5500468 298.235520
     76     75     78     1   109.5900471 362.167040
     75     78     79     1   109.5900471 362.167040
     75     78     80     1   109.5900471 362.167040
     74     75     76     1   110.3400472 470.281600
     74     75     77     1   110.3400472 470.281600
     73     71     74     1   110.3400472 470.281600
     72     71     73     1   108.5500468 298.235520
     72     71     74     1   110.3400472 470.281600
    140    138    141     1   109.5900471 362.167040
    139    138    140     1   108.5500468 298.235520
    139    138    141     1   109.5900471 362.167040
    138    141    142     1   109.5900471 362.167040
    138    141    143     1   109.5900471 362.167040
    137    138    139     1   110.3400472 470.281600
    137    138    140     1   110.3400472 470.281600
    136    134    137     1   110.3400472 470.281600
    135    134    136     1   108.5500468 298.235520
    135    134    137     1   110.3400472 470.281600
    133    131    134     1   109.5900471 362.167040
    132    131    133     1   108.5500468 298.235520
    132    131    134     1   109.5900471 362.167040
    131    134    135     1   109.5900471 362.167040
    131    134    136     1   109.5900471 362.167040
    130    131    132     1   110.3400472 470.281600
    130    131    133     1   110.3400472 470.281600
    129    127    130     1   110.3400472 470.281600
    128    127    129     1   108.5500468 298.235520
    128    127    130     1   110.3400472 470.281600
    126    124    127     1   109.5900471 362.167040
    125    124    126     1   108.5500468 298.235520
    125    124    127     1   109.5900471 362.167040
    124    127    128     1   109.5900471 362.167040
    124    127    129     1   109.5900471 362.167040
    123    124    125     1   110.3400472 470.281600
    123    124    126     1   110.3400472 470.281600
    122    120    123     1   110.3400472 470.281600
    121    120    122     1   108.5500468 298.235520
    121    120    123     1   110.3400472 470.281600
    119    117    120     1   109.5900471 362.167040
    118    117    119     1   108.5500468 298.235520
    118    117    120     1   109.5900471 362.167040
    117    120    121     1   109.5900471 362.167040
    117    120    122     1   109.5900471 362.167040
    116    117    118     1   110.3400472 470.281600
    116    117    119     1   110.3400472 470.281600
    115    113    116     1   110.3400472 470.281600
    114    113    115     1   108.5500468 298.235520
    114    113    116     1   110.3400472 470.281600
    112    110    113     1   109.5900471 362.167040
    111    110    112     1   108.5500468 298.235520
    111    110    113     1   109.5900471 362.167040
    110    113    114     1   109.5900471 362.167040
    110    113    115     1   109.5900471 362.167040
    109    110    111     1   110.3400472 470.281600
    109    110    112     1   110.3400472 470.281600
    108    106    109     1   110.3400472 470.281600
    107    106    108     1   108.5500468 298.235520
    107    106    109     1   110.3400472 470.281600
    174    173    175     1   108.5500468 298.235520
    172    173    174     1   110.3400472 470.281600
    172    173    175     1   110.3400472 470.281600
    171    169    172     1   110.3400472 470.281600
    170    169    171     1   108.5500468 298.235520
    170    169    172     1   110.3400472 470.281600
    168    166    169     1   109.5900471 362.167040
    167    166    168     1   108.5500468 298.235520
    167    166    169     1   109.5900471 362.167040
    166    169    170     1   109.5900471 362.167040
    166    169    171     1   109.5900471 362.167040
    165    166    167     1   110.3400472 470.281600
    165    166    168     1   110.3400472 470.281600
    164    162    165     1   110.3400472 470.281600
    163    162    164     1   108.5500468 298.235520
    163    162    165     1   110.3400472 470.281600
    161    159    162     1   109.5900471 362.167040
    160    159    161     1   108.5500468 298.235520
    160    159    162     1   109.5900471 362.167040
    159    162    163     1   109.5900471 362.167040
    159    162    164     1   109.5900471 362.167040
    158    159    160     1   110.3400472 470.281600
    158    159    161     1   110.3400472 470.281600
    157    155    158     1   110.3400472 470.281600
    156    155    157     1   108.5500468 298.235520
    156    155    158     1   110.3400472 470.281600
    154    152    155     1   109.5900471 362.167040
    153    152    154     1   108.5500468 298.235520
    153    152    155     1   109.5900471 362.167040
    152    155    156     1   109.5900471 362.167040
    152    155    157     1   109.5900471 362.167040
    151    152    153     1   110.3400472 470.281600
    151    152    154     1   110.3400472 470.281600
    150    148    151     1   110.3400472 470.281600
    149    148    150     1   108.5500468 298.235520
    149    148    151     1   110.3400472 470.281600
    147    145    148     1   109.5900471 362.167040
    146    145    147     1   108.5500468 298.235520
    146    145    148     1   109.5900471 362.167040
    145    148    149     1   109.5900471 362.167040
    145    148    150     1   109.5900471 362.167040
    144    145    146     1   110.3400472 470.281600
    144    145    147     1   110.3400472 470.281600
    143    141    144     1   110.3400472 470.281600
    142    141    143     1   108.5500468 298.235520
    142    141    144     1   110.3400472 470.281600

[ dihedrals ]
;    ai     aj     ak     al funct         c0         c1         c2         c3         c4         c5
     33     36     39     40     1  180.0000771  3.6819200  1
     33     36     39     40     1  0.0000000  0.3347200  2
     33     36     39     40     1  0.0000000  3.1380000  3
     32     33     36     39     1  0.0000000  0.7531200  1
     32     33     36     39     1  0.0000000  3.7656000  2
     32     33     36     39     1  0.0000000  2.0920000  3
     29     32     33     36     1  180.0000771  3.6819200  1
     29     32     33     36     1  0.0000000  0.3347200  2
     29     32     33     36     1  0.0000000  3.1380000  3
     26     29     32     33     1  180.0000771  3.6819200  1
     26     29     32     33     1  0.0000000  0.3347200  2
     26     29     32     33     1  0.0000000  3.1380000  3
     25     26     29     32     1  0.0000000  0.7531200  1
     25     26     29     32     1  0.0000000  3.7656000  2
     25     26     29     32     1  0.0000000  2.0920000  3
     22     25     26     29     1  180.0000771  3.6819200  1
     22     25     26     29     1  0.0000000  0.3347200  2
     22     25     26     29     1  0.0000000  3.1380000  3
     19     22     25     26     1  180.0000771  3.6819200  1
     19     22     25     26     1  0.0000000  0.3347200  2
     19     22     25     26     1  0.0000000  3.1380000  3
     18     19     22     25     1  0.0000000  0.7531200  1
     18     19     22     25     1  0.0000000  3.7656000  2
     18     19     22     25     1  0.0000000  2.0920000  3
     15     18     19     22     1  180.0000771  3.6819200  1
     15     18     19     22     1  0.0000000  0.3347200  2
     15     18     19     22     1  0.0000000  3.1380000  3
     12     15     18     19     1  180.0000771  3.6819200  1
     12     15     18     19     1  0.0000000  0.3347200  2
     12     15     18     19     1  0.0000000  3.1380000  3
     11     12     15     18     1  0.0000000  0.7531200  1
     11     12     15     18     1  0.0000000  3.7656000  2
     11     12     15     18     1  0.0000000  2.0920000  3
      8     11     12     15     1  180.0000771  3.6819200  1
      8     11     12     15     1  0.0000000  0.3347200  2
      8     11     12     15     1  0.0000000  3.1380000  3
      5      8     11     12     1  180.0000771  3.6819200  1
      5      8     11     12     1  0.0000000  0.3347200  2
      5      8     11     12     1  0.0000000  3.1380000  3
      4      5      8     11     1  0.0000000  0.7531200  1
      4      5      8     11     1  0.0000000  3.7656000  2
      4      5      8     11     1  0.0000000  2.0920000  3
      1      4      5      8     1  180.0000771  3.6819200  1
      1      4      5      8     1  0.0000000  0.3347200  2
      1      4      5      8     1  0.0000000  3.1380000  3
     68     71     74     75     1  180.0000771  3.6819200  1
     68     71     74     75     1  0.0000000  0.3347200  2
     68     71     74     75     1  0.0000000  3.1380000  3
     67     68     71     74     1  0.0000000  0.7531200  1
     67     68     71     74     1  0.0000000  3.7656000  2
     67     68     71     74     1  0.0000000  2.0920000  3
     64     67     68     71     1  180.0000771  3.6819200  1
     64     67     68     71     1  0.0000000  0.3347200  2
     64     67     68     71     1  0.0000000  3.1380000  3
     61     64     67     68     1  180.0000771  3.6819200  1
     61     64     67     68     1  0.0000000  0.3347200  2
     61     64     67     68     1  0.0000000  3.1380000  3
     60     61     64     67     1  0.0000000  0.7531200  1
     60     61     64     67     1  0.0000000  3.7656000  2
     60     61     64     67     1  0.0000000  2.0920000  3
     57     60     61     64     1  180.0000771  3.6819200  1
     57     60     61     64     1  0.0000000  0.3347200  2
     57     60     61     64     1  0.0000000  3.1380000  3
     54     57     60     61     1  180.0000771  3.6819200  1
     54     57     60     61     1  0.0000000  0.3347200  2
     54     57     60     61     1  0.0000000  3.1380000  3
     53     54     57     60     1  0.0000000  0.7531200  1
     53     54     57     60     1  0.0000000  3.7656000  2
     53     54     57     60     1  0.0000000  2.0920000  3
     50     53     54     57     1  180.0000771  3.6819200  1
     50     53     54     57     1  0.0000000  0.3347200  2
     50     53     54     57     1  0.0000000  3.1380000  3
     47     50     53     54     1  180.0000771  3.6819200  1
     47     50     53     54     1  0.0000000  0.3347200  2
     47     50     53     54     1  0.0000000  3.1380000  3
     46     47     50     53     1  0.0000000  0.7531200  1
     46     47     50     53     1  0.0000000  3.7656000  2
     46     47     50     53     1  0.0000000  2.0920000  3
     43     46     47     50     1  180.0000771  3.6819200  1
     43     46     47     50     1  0.0000000  0.3347200  2
     43     46     47     50     1  0.0000000  3.1380000  3
     40     43     46     47     1  180.0000771  3.6819200  1
     40     43     46     47     1  0.0000000  0.3347200  2
     40     43     46     47     1  0.0000000  3.1380000  3
     39     40     43     46     1  0.0000000  0.7531200  1
     39     40     43     46     1  0.0000000  3.7656000  2
     39     40     43     46     1  0.0000000  2.0920000  3
     36     39     40     43     1  180.0000771  3.6819200  1
     36     39     40     43     1  0.0000000  0.3347200  2
     36     39     40     43     1  0.0000000  3.1380000  3
    103    106    109    110     1  180.0000771  3.6819200  1
    103    106    109    110     1  0.0000000  0.3347200  2
    103    106    109    110     1  0.0000000  3.1380000  3
    102    103    106    109     1  0.0000000  0.7531200  1
    102    103    106    109     1  0.0000000  3.7656000  2
    102    103    106    109     1  0.0000000  2.0920000  3
     99    102    103    106     1  180.0000771  3.6819200  1
     99    102    103    106     1  0.0000000  0.3347200  2
     99    102    103    106     1  0.0000000  3.1380000  3
     96     99    102    103     1  180.0000771  3.6819200  1
     96     99    102    103     1  0.0000000  0.3347200  2
     96     99    102    103     1  0.0000000  3.1380000  3
     95     96     99    102     1  0.0000000  0.7531200  1
     95     96     99    102     1  0.0000000  3.7656000  2
     95     96     99    102     1  0.0000000  2.0920000  3
     92     95     96     99     1  180.0000771  3.6819200  1
     92     95     96     99     1  0.0000000  0.3347200  2
     92     95     96     99     1  0.0000000  3.1380000  3
     89     92     95     96     1  180.0000771  3.6819200  1
     89     92     95     96     1  0.0000000  0.3347200  2
     89     92     95     96     1  0.0000000  3.1380000  3
     88     89     92     95     1  0.0000000  0.7531200  1
     88     89     92     95     1  0.0000000  3.7656000  2
     88     89     92     95     1  0.0000000  2.0920000  3
     85     88     89     92     1  180.0000771  3.6819200  1
     85     88     89     92     1  0.0000000  0.3347200  2
     85     88     89     92     1  0.0000000  3.1380000  3
     82     85     88     89     1  180.0000771  3.6819200  1
     82     85     88     89     1  0.0000000  0.3347200  2
     82     85     88     89     1  0.0000000  3.1380000  3
     81     82     85     88     1  0.0000000  0.7531200  1
     81     82     85     88     1  0.0000000  3.7656000  2
     81     82     85     88     1  0.0000000  2.0920000  3
     78     81     82     85     1  180.0000771  3.6819200  1
     78     81     82     85     1  0.0000000  0.3347200  2
     78     81     82     85     1  0.0000000  3.1380000  3
     75     78     81     82     1  180.0000771  3.6819200  1
     75     78     81     82     1  0.0000000  0.3347200  2
     75     78     81     82     1  0.0000000  3.1380000  3
     74     75     78     81     1  0.0000000  0.7531200  1
     74     75     78     81     1  0.0000000  3.7656000  2
     74     75     78     81     1  0.0000000  2.0920000  3
     71     74     75     78     1  180.0000771  3.6819200  1
     71     74     75     78     1  0.0000000  0.3347200  2
     71     74     75     78     1  0.0000000  3.1380000  3
    138    141    144    145     1  180.0000771  3.6819200  1
    138    141    144    145     1  0.0000000  0.3347200  2
    138    141    144    145     1  0.0000000  3.1380000  3
    137    138    141    144     1  0.0000000  0.7531200  1
    137    138    141    144     1  0.0000000  3.7656000  2
    137    138    141    144     1  0.0000000  2.0920000  3
    134    137    138    141     1  180.0000771  3.6819200  1
    134    137    138    141     1  0.0000000  0.3347200  2
    134    137    138    141     1  0.0000000  3.1380000  3
    131    134    137    138     1  180.0000771  3.6819200  1
    131    134    137    138     1  0.0000000  0.3347200  2
    131    134    137    138     1  0.0000000  3.1380000  3
    130    131    134    137     1  0.0000000  0.7531200  1
    130    131    134    137     1  0.0000000  3.7656000  2
    130    131    134    137     1  0.0000000  2.0920000  3
    127    130    131    134     1  180.0000771  3.6819200  1
    127    130    131    134     1  0.0000000  0.3347200  2
    127    130    131    134     1  0.0000000  3.1380000  3
    124    127    130    131     1  180.0000771  3.6819200  1
    124    127    130    131     1  0.0000000  0.3347200  2
    124    127    130    131     1  0.0000000  3.1380000  3
    123    124    127    130     1  0.0000000  0.7531200  1
    123    124    127    130     1  0.0000000  3.7656000  2
    123    124    127    130     1  0.0000000  2.0920000  3
    120    123    124    127     1  180.0000771  3.6819200  1
    120    123    124    127     1  0.0000000  0.3347200  2
    120    123    124    127     1  0.0000000  3.1380000  3
    117    120    123    124     1  180.0000771  3.6819200  1
    117    120    123    124     1  0.0000000  0.3347200  2
    117    120    123    124     1  0.0000000  3.1380000  3
    116    117    120    123     1  0.0000000  0.7531200  1
    116    117    120    123     1  0.0000000  3.7656000  2
    116    117    120    123     1  0.0000000  2.0920000  3
    113    116    117    120     1  180.0000771  3.6819200  1
    113    116    117    120     1  0.0000000  0.3347200  2
    113    116    117    120     1  0.0000000  3.1380000  3
    110    113    116    117     1  180.0000771  3.6819200  1
    110    113    116    117     1  0.0000000  0.3347200  2
    110    113    116    117     1  0.0000000  3.1380000  3
    109    110    113    116     1  0.0000000  0.7531200  1
    109    110    113    116     1  0.0000000  3.7656000  2
    109    110    113    116     1  0.0000000  2.0920000  3
    106    109    110    113     1  180.0000771  3.6819200  1
    106    109    110    113     1  0.0000000  0.3347200  2
    106    109    110    113     1  0.0000000  3.1380000  3
    166    169    172    173     1  180.0000771  3.6819200  1
    166    169    172    173     1  0.0000000  0.3347200  2
    166    169    172    173     1  0.0000000  3.1380000  3
    165    166    169    172     1  0.0000000  0.7531200  1
    165    166    169    172     1  0.0000000  3.7656000  2
    165    166    169    172     1  0.0000000  2.0920000  3
    162    165    166    169     1  180.0000771  3.6819200  1
    162    165    166    169     1  0.0000000  0.3347200  2
    162    165    166    169     1  0.0000000  3.1380000  3
    159    162    165    166     1  180.0000771  3.6819200  1
    159    162    165    166     1  0.0000000  0.3347200  2
    159    162    165    166     1  0.0000000  3.1380000  3
    158    159    162    165     1  0.0000000  0.7531200  1
    158    159    162    165     1  0.0000000  3.7656000  2
    158    159    162    165     1  0.0000000  2.0920000  3
    155    158    159    162     1  180.0000771  3.6819200  1
    155    158    159    162     1  0.0000000  0.3347200  2
    155    158    159    162     1  0.0000000  3.1380000  3
    152    155    158    159     1  180.0000771  3.6819200  1
    152    155    158    159     1  0.0000000  0.3347200  2
    152    155    158    159     1  0.0000000  3.1380000  3
    151    152    155    158     1  0.0000000  0.7531200  1
    151    152    155    158     1  0.0000000  3.7656000  2
    151    152    155    158     1  0.0000000  2.0920000  3
    148    151    152    155     1  180.0000771  3.6819200  1
    148    151    152    155     1  0.0000000  0.3347200  2
    148    151    152    155     1  0.0000000  3.1380000  3
    145    148    151    152     1  180.0000771  3.6819200  1
    145    148    151    152     1  0.0000000  0.3347200  2
    145    148    151    152     1  0.0000000  3.1380000  3
    144    145    148    151     1  0.0000000  0.7531200  1
    144    145    148    151     1  0.0000000  3.7656000  2
    144    145    148    151     1  0.0000000  2.0920000  3
    141    144    145    148     1  180.0000771  3.6819200  1
    141    144    145    148     1  0.0000000  0.3347200  2
    141    144    145    148     1  0.0000000  3.1380000  3
     35     33     36     37     1  0.0000000  0.6508444  3
     35     33     36     38     1  0.0000000  0.6508444  3
     35     33     36     39     1  0.0000000  1.0460000  1
     35     33     36     39     1  0.0000000  0.0000000  3
     34     33     36     37     1  0.0000000  0.6508444  3
     34     33     36     38     1  0.0000000  0.6508444  3
     34     33     36     39     1  0.0000000  1.0460000  1
     34     33     36     39     1  0.0000000  0.0000000  3
     32     33     36     37     1  0.0000000  1.0460000  1
     32     33     36     37     1  0.0000000  0.0000000  3
     32     33     36     38     1  0.0000000  1.0460000  1
     32     33     36     38     1  0.0000000  0.0000000  3
     31     29     32     33     1  0.0000000  1.4100080  3
     30     29     32     33     1  0.0000000  1.4100080  3
     29     32     33     34     1  0.0000000  1.4100080  3
     29     32     33     35     1  0.0000000  1.4100080  3
     28     26     29     30     1  0.0000000  0.6508444  3
     28     26     29     31     1  0.0000000  0.6508444  3
     28     26     29     32     1  0.0000000  1.0460000  1
     28     26     29     32     1  0.0000000  0.0000000  3
     27     26     29     30     1  0.0000000  0.6508444  3
     27     26     29     31     1  0.0000000  0.6508444  3
     27     26     29     32     1  0.0000000  1.0460000  1
     27     26     29     32     1  0.0000000  0.0000000  3
     25     26     29     30     1  0.0000000  1.0460000  1
     25     26     29     30     1  0.0000000  0.0000000  3
     25     26     29     31     1  0.0000000  1.0460000  1
     25     26     29     31     1  0.0000000  0.0000000  3
     24     22     25     26     1  0.0000000  1.4100080  3
     23     22     25     26     1  0.0000000  1.4100080  3
     22     25     26     27     1  0.0000000  1.4100080  3
     22     25     26     28     1  0.0000000  1.4100080  3
     21     19     22     23     1  0.0000000  0.6508444  3
     21     19     22     24     1  0.0000000  0.6508444  3
     21     19     22     25     1  0.0000000  1.0460000  1
     21     19     22     25     1  0.0000000  0.0000000  3
     20     19     22     23     1  0.0000000  0.6508444  3
     20     19     22     24     1  0.0000000  0.6508444  3
     20     19     22     25     1  0.0000000  1.0460000  1
     20     19     22     25     1  0.0000000  0.0000000  3
     18     19     22     23     1  0.0000000  1.0460000  1
     18     19     22     23     1  0.0000000  0.0000000  3
     18     19     22     24     1  0.0000000  1.0460000  1
     18     19     22     24     1  0.0000000  0.0000000  3
     17     15     18     19     1  0.0000000  1.4100080  3
     16     15     18     19     1  0.0000000  1.4100080  3
     15     18     19     20     1  0.0000000  1.4100080  3
     15     18     19     21     1  0.0000000  1.4100080  3
     14     12     15     16     1  0.0000000  0.6508444  3
     14     12     15     17     1  0.0000000  0.6508444  3
     14     12     15     18     1  0.0000000  1.0460000  1
     14     12     15     18     1  0.0000000  0.0000000  3
     13     12     15     16     1  0.0000000  0.6508444  3
     13     12     15     17     1  0.0000000  0.6508444  3
     13     12     15     18     1  0.0000000  1.0460000  1
     13     12     15     18     1  0.0000000  0.0000000  3
     11     12     15     16     1  0.0000000  1.0460000  1
     11     12     15     16     1  0.0000000  0.0000000  3
     11     12     15     17     1  0.0000000  1.0460000  1
     11     12     15     17     1  0.0000000  0.0000000  3
     10      8     11     12     1  0.0000000  1.4100080  3
      9      8     11     12     1  0.0000000  1.4100080  3
      8     11     12     13     1  0.0000000  1.4100080  3
      8     11     12     14     1  0.0000000  1.4100080  3
      7      5      8      9     1  0.0000000  0.6508444  3
      7      5      8     10     1  0.0000000  0.6508444  3
      7      5      8     11     1  0.0000000  1.0460000  1
      7      5      8     11     1  0.0000000  0.0000000  3
      6      5      8      9     1  0.0000000  0.6508444  3
      6      5      8     10     1  0.0000000  0.6508444  3
      6      5      8     11     1  0.0000000  1.0460000  1
      6      5      8     11     1  0.0000000  0.0000000  3
      4      5      8      9     1  0.0000000  1.0460000  1
      4      5      8      9     1  0.0000000  0.0000000  3
      4      5      8     10     1  0.0000000  1.0460000  1
      4      5      8     10     1  0.0000000  0.0000000  3
      3      1      4      5     1  0.0000000  1.4100080  3
      2      1      4      5     1  0.0000000  1.4100080  3
      1      4      5      6     1  0.0000000  1.4100080  3
      1      4      5      7     1  0.0000000  1.4100080  3
     70     68     71     72     1  0.0000000  0.6508444  3
     70     68     71     73     1  0.0000000  0.6508444  3
     70     68     71     74     1  0.0000000  1.0460000  1
     70     68     71     74     1  0.0000000  0.0000000  3
     69     68     71     72     1  0.0000000  0.6508444  3
     69     68     71     73     1  0.0000000  0.6508444  3
     69     68     71     74     1  0.0000000  1.0460000  1
     69     68     71     74     1  0.0000000  0.0000000  3
     67     68     71     72     1  0.0000000  1.0460000  1
     67     68     71     72     1  0.0000000  0.0000000  3
     67     68     71     73     1  0.0000000  1.0460000  1
     67     68     71     73     1  0.0000000  0.0000000  3
     66     64     67     68     1  0.0000000  1.4100080  3
     65     64     67     68     1  0.0000000  1.4100080  3
     64     67     68     69     1  0.0000000  1.4100080  3
     64     67     68     70     1  0.0000000  1.4100080  3
     63     61     64     65     1  0.0000000  0.6508444  3
     63     61     64     66     1  0.0000000  0.6508444  3
     63     61     64     67     1  0.0000000  1.0460000  1
     63     61     64     67     1  0.0000000  0.0000000  3
     62     61     64     65     1  0.0000000  0.6508444  3
     62     61     64     66     1  0.0000000  0.6508444  3
     62     61     64     67     1  0.0000000  1.0460000  1
     62     61     64     67     1  0.0000000  0.0000000  3
     60     61     64     65     1  0.0000000  1.0460000  1
     60     61     64     65     1  0.0000000  0.0000000  3
     60     61     64     66     1  0.0000000  1.0460000  1
     60     61     64     66     1  0.0000000  0.0000000  3
     59     57     60     61     1  0.0000000  1.4100080  3
     58     57     60     61     1  0.0000000  1.4100080  3
     57     60     61     62     1  0.0000000  1.4100080  3
     57     60     61     63     1  0.0000000  1.4100080  3
     56     54     57     58     1  0.0000000  0.6508444  3
     56     54     57     59     1  0.0000000  0.6508444  3
     56     54     57     60     1  0.0000000  1.0460000  1
     56     54     57     60     1  0.0000000  0.0000000  3
     55     54     57     58     1  0.0000000  0.6508444  3
     55     54     57     59     1  0.0000000  0.6508444  3
     55     54     57     60     1  0.0000000  1.0460000  1
     55     54     57     60     1  0.0000000  0.0000000  3
     53     54     57     58     1  0.0000000  1.0460000  1
     53     54     57     58     1  0.0000000  0.0000000  3
     53     54     57     59     1  0.0000000  1.0460000  1
     53     54     57     59     1  0.0000000  0.0000000  3
     52     50     53     54     1  0.0000000  1.4100080  3
     51     50     53     54     1  0.0000000  1.4100080  3
     50     53     54     55     1  0.0000000  1.4100080  3
     50     53     54     56     1  0.0000000  1.4100080  3
     49     47     50     51     1  0.0000000  0.6508444  3
     49     47     50     52     1  0.0000000  0.6508444  3
     49     47     50     53     1  0.0000000  1.0460000  1
     49     47     50     53     1  0.0000000  0.0000000  3
     48     47     50     51     1  0.0000000  0.6508444  3
     48     47     50     52     1  0.0000000  0.6508444  3
     48     47     50     53     1  0.0000000  1.0460000  1
     48     47     50     53     1  0.0000000  0.0000000  3
     46     47     50     51     1  0.0000000  1.0460000  1
     46     47     50     51     1  0.0000000  0.0000000  3
     46     47     50     52     1  0.0000000  1.0460000  1
     46     47     50     52     1  0.0000000  0.0000000  3
     45     43     46     47     1  0.0000000  1.4100080  3
     44     43     46     47     1  0.0000000  1.4100080  3
     43     46     47     48     1  0.0000000  1.4100080  3
     43     46     47     49     1  0.0000000  1.4100080  3
     42     40     43     44     1  0.0000000  0.6508444  3
     42     40     43     45     1  0.0000000  0.6508444  3
     42     40     43     46     1  0.0000000  1.0460000  1
     42     40     43     46     1  0.0000000  0.0000000  3
     41     40     43     44     1  0.0000000  0.6508444  3
     41     40     43     45     1  0.0000000  0.6508444  3
     41     40     43     46     1  0.0000000  1.0460000  1
     41     40     43     46     1  0.0000000  0.0000000  3
     39     40     43     44     1  0.0000000  1.0460000  1
     39     40     43     44     1  0.0000000  0.0000000  3
     39     40     43     45     1  0.0000000  1.0460000  1
     39     40     43     45     1  0.0000000  0.0000000  3
     38     36     39     40     1  0.0000000  1.4100080  3
     37     36     39     40     1  0.0000000  1.4100080  3
     36     39     40     41     1  0.0000000  1.4100080  3
     36     39     40     42     1  0.0000000  1.4100080  3
    105    103    106    107     1  0.0000000  0.6508444  3
    105    103    106    108     1  0.0000000  0.6508444  3
    105    103    106    109     1  0.0000000  1.0460000  1
    105    103    106    109     1  0.0000000  0.0000000  3
    104    103    106    107     1  0.0000000  0.6508444  3
    104    103    106    108     1  0.0000000  0.6508444  3
    104    103    106    109     1  0.0000000  1.0460000  1
    104    103    106    109     1  0.0000000  0.0000000  3
    102    103    106    107     1  0.0000000  1.0460000  1
    102    103    106    107     1  0.0000000  0.0000000  3
    102    103    106    108     1  0.0000000  1.0460000  1
    102    103    106    108     1  0.0000000  0.0000000  3
    101     99    102    103     1  0.0000000  1.4100080  3
    100     99    102    103     1  0.0000000  1.4100080  3
     99    102    103    104     1  0.0000000  1.4100080  3
     99    102    103    105     1  0.0000000  1.4100080  3
     98     96     99    100     1  0.0000000  0.6508444  3
     98     96     99    101     1  0.0000000  0.6508444  3
     98     96     99    102     1  0.0000000  1.0460000  1
     98     96     99    102     1  0.0000000  0.0000000  3
     97     96     99    100     1  0.0000000  0.6508444  3
     97     96     99    101     1  0.0000000  0.6508444  3
     97     96     99    102     1  0.0000000  1.0460000  1
     97     96     99    102     1  0.0000000  0.0000000  3
     95     96     99    100     1  0.0000000  1.0460000  1
     95     96     99    100     1  0.0000000  0.0000000  3
     95     96     99    101     1  0.0000000  1.0460000  1
     95     96     99    101     1  0.0000000  0.0000000  3
     94     92     95     96     1  0.0000000  1.4100080  3
     93     92     95     96     1  0.0000000  1.4100080  3
     92     95     96     97     1  0.0000000  1.4100080  3
     92     95     96     98     1  0.0000000  1.4100080  3
     91     89     92     93     1  0.0000000  0.6508444  3
     91     89     92     94     1  0.0000000  0.6508444  3
     91     89     92     95     1  0.0000000  1.0460000  1
     91     89     92     95     1  0.0000000  0.0000000  3
     90     89     92     93     1  0.0000000  0.6508444  3
     90     89     92     94     1  0.0000000  0.6508444  3
     90     89     92     95     1  0.0000000  1.0460000  1
     90     89     92     95     1  0.0000000  0.0000000  3
     88     89     92     93     1  0.0000000  1.0460000  1
     88     89     92     93     1  0.0000000  0.0000000  3
     88     89     92     94     1  0.0000000  1.0460000  1
     88     89     92     94     1  0.0000000  0.0000000  3
     87     85     88     89     1  0.0000000  1.4100080  3
     86     85     88     89     1  0.0000000  1.4100080  3
     85     88     89     90     1  0.0000000  1.4100080  3
     85     88     89     91     1  0.0000000  1.4100080  3
     84     82     85     86     1  0.0000000  0.6508444  3
     84     82     85     87     1  0.0000000  0.6508444  3
     84     82     85     88     1  0.0000000  1.0460000  1
     84     82     85     88     1  0.0000000  0.0000000  3
     83     82     85     86     1  0.0000000  0.6508444  3
     83     82     85     87     1  0.0000000  0.6508444  3
     83     82     85     88     1  0.0000000  1.0460000  1
     83     82     85     88     1  0.0000000  0.0000000  3
     81     82     85     86     1  0.0000000  1.0460000  1
     81     82     85     86     1  0.0000000  0.0000000  3
     81     82     85     87     1  0.0000000  1.0460000  1
     81     82     85     87     1  0.0000000  0.0000000  3
     80     78     81     82     1  0.0000000  1.4100080  3
     79     78     81     82     1  0.0000000  1.4100080  3
     78     81     82     83     1  0.0000000  1.4100080  3
     78     81     82     84     1  0.0000000  1.4100080  3
     77     75     78     79     1  0.0000000  0.6508444  3
     77     75     78     80     1  0.0000000  0.6508444  3
     77     75     78     81     1  0.0000000  1.0460000  1
     77     75     78     81     1  0.0000000  0.0000000  3
     76     75     78     79     1  0.0000000  0.6508444  3
     76     75     78     80     1  0.0000000  0.6508444  3
     76     75     78     81     1  0.0000000  1.0460000  1
     76     75     78     81     1  0.0000000  0.0000000  3
     74     75     78     79     1  0.0000000  1.0460000  1
     74     75     78     79     1  0.0000000  0.0000000  3
     74     75     78     80     1  0.0000000  1.0460000  1
     74     75     78     80     1  0.0000000  0.0000000  3
     73     71     74     75     1  0.0000000  1.4100080  3
     72     71     74     75     1  0.0000000  1.4100080  3
     71     74     75     76     1  0.0000000  1.4100080  3
     71     74     75     77     1  0.0000000  1.4100080  3
    140    138    141    142     1  0.0000000  0.6508444  3
    140    138    141    143     1  0.0000000  0.6508444  3
    140    138    141    144     1  0.0000000  1.0460000  1
    140    138    141    144     1  0.0000000  0.0000000  3
    139    138    141    142     1  0.0000000  0.6508444  3
    139    138    141    143     1  0.0000000  0.6508444  3
    139    138    141    144     1  0.0000000  1.0460000  1
    139    138    141    144     1  0.0000000  0.0000000  3
    137    138    141    142     1  0.0000000  1.0460000  1
    137    138    141    142     1  0.0000000  0.0000000  3
    137    138    141    143     1  0.0000000  1.0460000  1
    137    138    141    143     1  0.0000000  0.0000000  3
    136    134    137    138     1  0.0000000  1.4100080  3
    135    134    137    138     1  0.0000000  1.4100080  3
    134    137    138    139     1  0.0000000  1.4100080  3
    134    137    138    140     1  0.0000000  1.4100080  3
    133    131    134    135     1  0.0000000  0.6508444  3
    133    131    134    136     1  0.0000000  0.6508444  3
    133    131    134    137     1  0.0000000  1.0460000  1
    133    131    134    137     1  0.0000000  0.0000000  3
    132    131    134    135     1  0.0000000  0.6508444  3
    132    131    134    136     1  0.0000000  0.6508444  3
    132    131    134    137     1  0.0000000  1.0460000  1
    132    131    134    137     1  0.0000000  0.0000000  3
    130    131    134    135     1  0.0000000  1.0460000  1
    130    131    134    135     1  0.0000000  0.0000000  3
    130    131    134    136     1  0.0000000  1.0460000  1
    130    131    134    136     1  0.0000000  0.0000000  3
    129    127    130    131     1  0.0000000  1.4100080  3
    128    127    130    131     1  0.0000000  1.4100080  3
    127    130    131    132     1  0.0000000  1.4100080  3
    127    130    131    133     1  0.0000000  1.4100080  3
    126    124    127    128     1  0.0000000  0.6508444  3
    126    124    127    129     1  0.0000000  0.6508444  3
    126    124    127    130     1  0.0000000  1.0460000  1
    126    124    127    130     1  0.0000000  0.0000000  3
    125    124    127    128     1  0.0000000  0.6508444  3
    125    124    127    129     1  0.0000000  0.6508444  3
    125    124    127    130     1  0.0000000  1.0460000  1
    125    124    127    130     1  0.0000000  0.0000000  3
    123    124    127    128     1  0.0000000  1.0460000  1
    123    124    127    128     1  0.0000000  0.0000000  3
    123    124    127    129     1  0.0000000  1.0460000  1
    123    124    127    129     1  0.0000000  0.0000000  3
    122    120    123    124     1  0.0000000  1.4100080  3
    121    120    123    124     1  0.0000000  1.4100080  3
    120    123    124    125     1  0.0000000  1.4100080  3
    120    123    124    126     1  0.0000000  1.4100080  3
    119    117    120    121     1  0.0000000  0.6508444  3
    119    117    120    122     1  0.0000000  0.6508444  3
    119    117    120    123     1  0.0000000  1.0460000  1
    119    117    120    123     1  0.0000000  0.0000000  3
    118    117    120    121     1  0.0000000  0.6508444  3
    118    117    120    122     1  0.0000000  0.6508444  3
    118    117    120    123     1  0.0000000  1.0460000  1
    118    117    120    123     1  0.0000000  0.0000000  3
    116    117    120    121     1  0.0000000  1.0460000  1
    116    117    120    121     1  0.0000000  0.0000000  3
    116    117    120    122     1  0.0000000  1.0460000  1
    116    117    120    122     1  0.0000000  0.0000000  3
    115    113    116    117     1  0.0000000  1.4100080  3
    114    113    116    117     1  0.0000000  1.4100080  3
    113    116    117    118     1  0.0000000  1.4100080  3
    113    116    117    119     1  0.0000000  1.4100080  3
    112    110    113    114     1  0.0000000  0.6508444  3
    112    110    113    115     1  0.0000000  0.6508444  3
    112    110    113    116     1  0.0000000  1.0460000  1
    112    110    113    116     1  0.0000000  0.0000000  3
    111    110    113    114     1  0.0000000  0.6508444  3
    111    110    113    115     1  0.0000000  0.6508444  3
    111    110    113    116     1  0.0000000  1.0460000  1
    111    110    113    116     1  0.0000000  0.0000000  3
    109    110    113    114     1  0.0000000  1.0460000  1
    109    110    113    114     1  0.0000000  0.0000000  3
    109    110    113    115     1  0.0000000  1.0460000  1
    109    110    113    115     1  0.0000000  0.0000000  3
    108    106    109    110     1  0.0000000  1.4100080  3
    107    106    109    110     1  0.0000000  1.4100080  3
    106    109    110    111     1  0.0000000  1.4100080  3
    106    109    110    112     1  0.0000000  1.4100080  3
    171    169    172    173     1  0.0000000  1.4100080  3
    170    169    172    173     1  0.0000000  1.4100080  3
    169    172    173    174     1  0.0000000  1.4100080  3
    169    172    173    175     1  0.0000000  1.4100080  3
    168    166    169    170     1  0.0000000  0.6508444  3
    168    166    169    171     1  0.0000000  0.6508444  3
    168    166    169    172     1  0.0000000  1.0460000  1
    168    166    169    172     1  0.0000000  0.0000000  3
    167    166    169    170     1  0.0000000  0.6508444  3
    167    166    169    171     1  0.0000000  0.6508444  3
    167    166    169    172     1  0.0000000  1.0460000  1
    167    166    169    172     1  0.0000000  0.0000000  3
    165    166    169    170     1  0.0000000  1.0460000  1
    165    166    169    170     1  0.0000000  0.0000000  3
    165    166    169    171     1  0.0000000  1.0460000  1
    165    166    169    171     1  0.0000000  0.0000000  3
    164    162    165    166     1  0.0000000  1.4100080  3
    163    162    165    166     1  0.0000000  1.4100080  3
    162    165    166    167     1  0.0000000  1.4100080  3
    162    165    166    168     1  0.0000000  1.4100080  3
    161    159    162    163     1  0.0000000  0.6508444  3
    161    159    162    164     1  0.0000000  0.6508444  3
    161    159    162    165     1  0.0000000  1.0460000  1
    161    159    162    165     1  0.0000000  0.0000000  3
    160    159    162    163     1  0.0000000  0.6508444  3
    160    159    162    164     1  0.0000000  0.6508444  3
    160    159    162    165     1  0.0000000  1.0460000  1
    160    159    162    165     1  0.0000000  0.0000000  3
    158    159    162    163     1  0.0000000  1.0460000  1
    158    159    162    163     1  0.0000000  0.0000000  3
    158    159    162    164     1  0.0000000  1.0460000  1
    158    159    162    164     1  0.0000000  0.0000000  3
    157    155    158    159     1  0.0000000  1.4100080  3
    156    155    158    159     1  0.0000000  1.4100080  3
    155    158    159    160     1  0.0000000  1.4100080  3
    155    158    159    161     1  0.0000000  1.4100080  3
    154    152    155    156     1  0.0000000  0.6508444  3
    154    152    155    157     1  0.0000000  0.6508444  3
    154    152    155    158     1  0.0000000  1.0460000  1
    154    152    155    158     1  0.0000000  0.0000000  3
    153    152    155    156     1  0.0000000  0.6508444  3
    153    152    155    157     1  0.0000000  0.6508444  3
    153    152    155    158     1  0.0000000  1.0460000  1
    153    152    155    158     1  0.0000000  0.0000000  3
    151    152    155    156     1  0.0000000  1.0460000  1
    151    152    155    156     1  0.0000000  0.0000000  3
    151    152    155    157     1  0.0000000  1.0460000  1
    151    152    155    157     1  0.0000000  0.0000000  3
    150    148    151    152     1  0.0000000  1.4100080  3
    149    148    151    152     1  0.0000000  1.4100080  3
    148    151    152    153     1  0.0000000  1.4100080  3
    148    151    152    154     1  0.0000000  1.4100080  3
    147    145    148    149     1  0.0000000  0.6508444  3
    147    145    148    150     1  0.0000000  0.6508444  3
    147    145    148    151     1  0.0000000  1.0460000  1
    147    145    148    151     1  0.0000000  0.0000000  3
    146    145    148    149     1  0.0000000  0.6508444  3
    146    145    148    150     1  0.0000000  0.6508444  3
    146    145    148    151     1  0.0000000  1.0460000  1
    146    145    148    151     1  0.0000000  0.0000000  3
    144    145    148    149     1  0.0000000  1.0460000  1
    144    145    148    149     1  0.0000000  0.0000000  3
    144    145    148    150     1  0.0000000  1.0460000  1
    144    145    148    150     1  0.0000000  0.0000000  3
    143    141    144    145     1  0.0000000  1.4100080  3
    142    141    144    145     1  0.0000000  1.4100080  3
    141    144    145    146     1  0.0000000  1.4100080  3
    141    144    145    147     1  0.0000000  1.4100080  3

[ system ]
; Name
Generic title

[ molecules ]
; Compound       #mols
system1              1
