Generic title in water
 3483
    1PEO     C1    1   1.781   1.711   1.525 -0.1028  0.0376 -0.2993
    1PEO     H3    2   1.825   1.653   1.607 -2.0039 -0.3529  0.4969
    1PEO     H4    3   1.740   1.807   1.558  4.3962  2.0884  0.1550
    1PEO      O    4   1.683   1.637   1.443 -0.1140 -0.2334  0.2262
    1PEO     C2    5   1.611   1.716   1.342 -0.8797  0.1546  0.0032
    1PEO     H5    6   1.578   1.655   1.257  0.9297 -0.3115 -0.3883
    1PEO     H6    7   1.674   1.799   1.309 -0.0671 -0.5146 -0.1394
    1PEO     C3    8   1.483   1.778   1.395  0.3855 -0.1563  0.4421
    1PEO     H7    9   1.436   1.827   1.309  1.0722 -0.8112 -0.3257
    1PEO     H8   10   1.509   1.850   1.473 -1.0594  0.1862  0.6285
    1PEO     O1   11   1.386   1.675   1.426  0.1388 -0.7857 -0.1200
    1PEO     C4   12   1.387   1.624   1.562  0.0702 -1.2157 -0.8011
    1PEO     H9   13   1.487   1.588   1.590 -0.2089 -0.8489  0.7317
    1PEO    H10   14   1.329   1.531   1.567  0.2820 -1.2793  0.7447
    1PEO     C5   15   1.340   1.736   1.664 -0.6052 -0.6913 -0.6189
    1PEO    H11   16   1.247   1.780   1.627 -0.9537 -1.0669 -0.1958
    1PEO    H12   17   1.407   1.822   1.671 -1.2613 -0.1970 -0.3514
    1PEO     O2   18   1.326   1.667   1.787 -0.5567 -0.3301 -0.3064
    1PEO     C6   19   1.254   1.737   1.882  0.0772  0.3778  0.3845
    1PEO    H13   20   1.146   1.734   1.861 -0.1379  1.1416  1.3320
    1PEO    H14   21   1.280   1.844   1.881 -2.3332  1.0335 -1.2057
    1PEO     C7   22   1.266   1.668   2.023 -0.5836 -0.0665  0.0807
    1PEO    H15   23   1.233   1.564   2.008 -0.5334  0.2243 -2.7151
    1PEO    H16   24   1.210   1.725   2.098 -1.0166  0.6810 -0.7859
    1PEO     O3   25   1.406   1.673   2.074  0.5180 -0.3267  0.2796
    1PEO     C8   26   1.428   1.597   2.196  0.1653 -0.2662 -0.3766
    1PEO    H17   27   1.440   1.490   2.173 -1.6856 -0.1652 -2.0818
    1PEO    H18   28   1.343   1.600   2.265 -0.5736 -1.8727 -1.1568
    1PEO     C9   29   1.561   1.645   2.257 -0.5241  0.4469 -0.0923
    1PEO    H19   30   1.629   1.663   2.173  0.2022  0.0899  0.4112
    1PEO    H20   31   1.598   1.563   2.321  1.2004  0.5845 -0.8570
    1PEO     O4   32   1.527   1.750   2.344  0.0549  0.8093 -0.4300
    1PEO    C10   33   1.510   1.880   2.284 -0.4388  0.1371 -0.0215
    1PEO    H21   34   1.470   1.953   2.355  0.0375  0.6132 -0.2412
    1PEO    H22   35   1.435   1.875   2.204  1.4594  1.4507 -2.0101
    2PEO     C1   36   1.641   1.927   2.216 -0.4738  0.4311  0.0165
    2PEO     H3   37   1.618   1.999   2.136  1.4509  0.7594 -0.2911
    2PEO     H4   38   1.698   1.849   2.165 -2.5771 -2.1162  1.3276
    2PEO      O   39   1.727   1.994   2.312 -0.3369  0.2597 -0.0407
    2PEO     C2   40   1.761   1.932   2.437 -0.0287  0.1085  0.0948
    2PEO     H5   41   1.682   1.869   2.481 -1.1505  1.5296  0.1787
    2PEO     H6   42   1.792   2.004   2.514 -2.5177 -0.2110  1.5056
    2PEO     C3   43   1.879   1.832   2.408  1.0381 -0.3000  0.0016
    2PEO     H7   44   1.874   1.780   2.312 -1.2082 -0.4970  0.1706
    2PEO     H8   45   1.887   1.766   2.495 -0.9045  0.9741  1.2197
    2PEO     O1   46   1.999   1.908   2.401  0.1062  0.8892  0.5273
    2PEO     C4   47   2.111   1.873   2.487  0.3901  0.2982 -0.0687
    2PEO     H9   48   2.068   1.846   2.584  0.0498 -0.3673 -0.4031
    2PEO    H10   49   2.173   1.963   2.500 -1.5955  1.5198  1.5120
    2PEO     C5   50   2.191   1.747   2.435 -0.2918 -0.5566 -0.4191
    2PEO    H11   51   2.131   1.684   2.368 -1.9051 -0.7369  1.1253
    2PEO    H12   52   2.214   1.680   2.519 -2.1421 -1.3917 -0.5265
    2PEO     O2   53   2.309   1.788   2.367 -0.4650  0.0237  0.7055
    2PEO     C6   54   2.297   1.879   2.254  0.0668 -0.6397 -0.4639
    2PEO    H13   55   2.259   1.979   2.278 -2.1023 -1.4707 -0.2009
    2PEO    H14   56   2.221   1.838   2.186  1.8761  0.0371 -3.0385
    2PEO     C7   57   2.433   1.880   2.177 -0.1551 -0.2675  0.7025
    2PEO    H15   58   2.415   1.953   2.097  0.6809  1.0563  1.6743
    2PEO    H16   59   2.452   1.785   2.128 -1.2183 -1.0359  1.7200
    2PEO     O3   60   2.543   1.916   2.265  0.0423  0.0485 -0.1925
    2PEO     C8   61   2.677   1.934   2.217 -0.3735 -0.9093 -0.2862
    2PEO    H17   62   2.748   1.986   2.282 -0.6969 -0.8325  0.0130
    2PEO    H18   63   2.674   2.010   2.138 -3.9063 -0.2619  0.3021
    2PEO     C9   64   2.736   1.800   2.176  0.5585 -0.1341  0.1141
    2PEO    H19   65   2.680   1.744   2.100 -1.4900  0.3035  1.2373
    2PEO    H20   66   2.733   1.746   2.271  0.4734  2.3789  1.6130
    2PEO     O4   67   2.867   1.802   2.119  0.2599 -0.7391 -0.5110
    2PEO    C10   68   2.884   1.867   1.993 -0.4537 -0.4618 -0.0599
    2PEO    H21   69   2.862   1.974   2.008 -0.7965 -0.4957 -0.3029
    2PEO    H22   70   2.812   1.822   1.923 -1.6770  3.0033 -1.2674
    3PEO     C1   71   3.030   1.852   1.943  0.9198 -0.6806  0.2199
    3PEO     H3   72   3.023   1.861   1.834  3.2522  1.0198  0.1353
    3PEO     H4   73   3.072   1.756   1.975  0.0323 -1.2115 -0.1564
    3PEO      O   74   3.108   1.970   1.982 -0.0573  0.0931 -1.1014
    3PEO     C2   75   3.119   1.981   2.122 -0.6346 -0.0052  0.1869
    3PEO     H5   76   3.170   1.896   2.169 -0.3499 -0.1640 -0.4050
    3PEO     H6   77   3.021   2.000   2.169 -0.4852 -1.1735  1.0258
    3PEO     C3   78   3.207   2.103   2.169  0.3698  0.4661 -0.4170
    3PEO     H7   79   3.282   2.119   2.091  0.6900  1.3122  0.0519
    3PEO     H8   80   3.259   2.076   2.262 -0.4412 -2.4387 -0.6999
    3PEO     O1   81   3.123   2.218   2.195 -0.4066 -0.3717 -0.1500
    3PEO     C4   82   3.136   2.318   2.093  0.7367 -0.3751 -0.1917
    3PEO     H9   83   3.043   2.375   2.097  1.4133  0.7764 -0.3955
    3PEO    H10   84   3.149   2.270   1.995  0.4665 -1.3673  0.2524
    3PEO     C5   85   3.267   2.406   2.120  0.4494  0.3099 -0.2597
    3PEO    H11   86   3.334   2.345   2.183 -0.6574  0.6833  1.3399
    3PEO    H12   87   3.229   2.479   2.192 -0.4698 -1.5644  1.2583
    3PEO     O2   88   3.325   2.444   1.997  0.1523 -0.2732 -0.0904
    3PEO     C6   89   3.255   2.561   1.933 -0.3278  0.1818 -0.1090
    3PEO    H13   90   3.279   2.649   1.995 -0.9081  0.8606 -0.8223
    3PEO    H14   91   3.145   2.556   1.936 -0.3547  0.5731 -0.2790
    3PEO     C7   92   3.301   2.590   1.787  0.4199  0.4407  0.3426
    3PEO    H15   93   3.387   2.656   1.801 -0.9755  1.9366  2.4280
    3PEO    H16   94   3.229   2.638   1.720  2.2623  0.9170 -1.4198
    3PEO     O3   95   3.338   2.456   1.749  0.3908  0.0226  0.1398
    3PEO     C8   96   3.229   2.373   1.697  0.0777  0.3243 -0.3427
    3PEO    H17   97   3.163   2.433   1.633  0.4309  2.0852  0.8827
    3PEO    H18   98   3.169   2.337   1.782 -0.7288  0.3414 -0.8957
    3PEO     C9   99   3.295   2.253   1.615 -0.1628 -0.8801 -0.0713
    3PEO    H19  100   3.342   2.297   1.526 -2.7579  1.5739 -0.3723
    3PEO    H20  101   3.214   2.186   1.582 -1.2882  0.7272 -0.7403
    3PEO     O4  102   3.393   2.185   1.698  0.1263  0.5874 -0.2454
    3PEO    C10  103   3.334   2.107   1.809 -0.1195 -0.2702  0.2591
    3PEO    H21  104   3.236   2.068   1.780 -1.5294  2.2651  1.2638
    3PEO    H22  105   3.304   2.166   1.896  2.7610  0.0585  1.1382
    4PEO     C1  106   3.428   1.993   1.850 -0.1242  0.5866 -0.3152
    4PEO     H3  107   3.433   1.909   1.779  1.8339  0.1333  0.2920
    4PEO     H4  108   3.394   1.942   1.940  1.8853 -1.6660 -0.7302
    4PEO      O  109   3.561   2.037   1.869  0.1446  0.2071  0.0237
    4PEO     C2  110   3.584   2.089   2.001  0.1699 -0.0079 -0.1301
    4PEO     H5  111   3.550   2.022   2.080 -0.8343  1.3365  0.6029
    4PEO     H6  112   3.523   2.180   2.009 -0.7233 -0.5743 -0.3565
    4PEO     C3  113   3.734   2.131   2.028 -0.2268  0.2368  0.2118
    4PEO     H7  114   3.730   2.201   2.112 -2.0007 -0.8778  1.1286
    4PEO     H8  115   3.779   2.179   1.940 -1.0116  0.2639 -0.1799
    4PEO     O1  116   3.801   2.008   2.063 -0.5236 -0.5909  0.3128
    4PEO     C4  117   3.945   2.016   2.050 -0.1181  0.3387  0.3513
    4PEO     H9  118   3.980   2.115   2.082 -0.4233  0.2969  0.8240
    4PEO    H10  119   3.984   1.986   1.952  3.0868 -1.6010  2.0388
    4PEO     C5  120   4.015   1.921   2.149  0.7563  0.2284  1.3132
    4PEO    H11  121   4.097   1.867   2.100 -0.0693 -1.1767  1.4444
    4PEO    H12  122   3.941   1.845   2.175 -0.9391  1.3149 -0.0589
    4PEO     O2  123   4.058   1.996   2.267 -0.8897 -0.4124 -0.2759
    4PEO     C6  124   3.951   2.022   2.363  0.0277 -0.5406  0.6601
    4PEO    H13  125   3.883   1.936   2.363 -2.1933  1.0010 -3.0566
    4PEO    H14  126   3.886   2.105   2.333  0.4550 -0.4368  0.0087
    4PEO     C7  127   4.016   2.062   2.505  0.0350 -0.0284  0.5726
    4PEO    H15  128   4.101   1.999   2.534  1.1945  0.7644 -0.9070
    4PEO    H16  129   3.942   2.047   2.584  0.4047  1.9742  1.3728
    4PEO     O3  130   4.067   2.201   2.506  0.2863  0.2751  0.5095
    4PEO     C8  131   4.199   2.225   2.444  0.1954  0.9053  0.3332
    4PEO    H17  132   4.210   2.184   2.342 -0.0481 -2.0042  1.3611
    4PEO    H18  133   4.276   2.174   2.503 -1.1195  0.0382  1.3898
    4PEO     C9  134   4.228   2.382   2.443  0.3357 -0.6707 -0.1985
    4PEO    H19  135   4.337   2.392   2.435  0.1966  1.2788 -0.0323
    4PEO    H20  136   4.202   2.431   2.538  2.8085 -0.3543  0.3684
    4PEO     O4  137   4.154   2.437   2.330  0.3388  0.1701  0.2247
    4PEO    C10  138   4.007   2.414   2.318 -0.6279 -0.6240  0.2845
    4PEO    H21  139   3.973   2.310   2.317 -0.6455 -0.6383  1.2383
    4PEO    H22  140   3.982   2.445   2.216  0.8742 -1.3039 -0.3209
    5PEO     C1  141   3.931   2.499   2.423  0.3742 -0.0527  0.1799
    5PEO     H3  142   3.968   2.478   2.525  0.8524  0.5432  0.1345
    5PEO     H4  143   3.829   2.459   2.415  0.8101 -2.0754  3.0453
    5PEO      O  144   3.937   2.638   2.393  0.0953  0.1317  0.6738
    5PEO     C2  145   3.865   2.724   2.486 -0.0157 -0.5952  0.2008
    5PEO     H5  146   3.884   2.830   2.467 -0.3050 -0.1766  2.0208
    5PEO     H6  147   3.885   2.706   2.593  3.5266 -1.6611 -0.5303
    5PEO     C3  148   3.708   2.710   2.468 -0.0351  0.4705  0.4535
    5PEO     H7  149   3.686   2.711   2.361 -1.1212  1.4742  0.6635
    5PEO     H8  150   3.651   2.794   2.511 -1.5111 -0.3768  0.2046
    5PEO     O1  151   3.661   2.586   2.536  0.2121 -0.1332  0.3351
    5PEO     C4  152   3.521   2.572   2.543  0.2361 -0.2634  0.0192
    5PEO     H9  153   3.483   2.672   2.571  2.8510  0.7652  0.2206
    5PEO    H10  154   3.498   2.487   2.608 -2.4530 -0.9075 -1.6636
    5PEO     C5  155   3.467   2.543   2.403  0.4507  0.4232  0.4589
    5PEO    H11  156   3.485   2.436   2.385  2.2501  0.7918 -0.1798
    5PEO    H12  157   3.520   2.594   2.322  1.5265 -1.8070 -0.3498
    5PEO     O2  158   3.328   2.575   2.402 -0.3580 -0.5798 -0.1479
    5PEO     C6  159   3.255   2.484   2.486 -0.1780 -0.6105  0.6994
    5PEO    H13  160   3.285   2.482   2.592  1.1287  1.7293  0.4550
    5PEO    H14  161   3.260   2.378   2.460 -0.1374 -0.5155  0.3221
    5PEO     C7  162   3.106   2.530   2.481 -0.2146  0.4444  0.4931
    5PEO    H15  163   3.108   2.630   2.527  0.2504  0.4778  0.4015
    5PEO    H16  164   3.044   2.465   2.545 -2.2114  1.7011 -0.0771
    5PEO     O3  165   3.060   2.522   2.342 -0.3976 -0.6378 -0.5389
    5PEO     C8  166   2.931   2.570   2.330  1.0849  0.3313  0.0953
    5PEO    H17  167   2.922   2.596   2.223 -0.8555  1.0572  0.3861
    5PEO    H18  168   2.903   2.661   2.384 -0.2104 -1.4716  2.6402
    5PEO     C9  169   2.828   2.460   2.367  0.6600 -0.6425 -0.0351
    5PEO    H19  170   2.766   2.473   2.456 -0.9876 -0.6264 -1.1335
    5PEO    H20  171   2.879   2.364   2.381 -0.1739 -0.8738  1.7173
    5PEO     O4  172   2.747   2.436   2.248 -0.1186  0.3073 -0.4774
    5PEO    C10  173   2.651   2.338   2.270  0.1488  0.6754  0.0620
    5PEO    H21  174   2.585   2.366   2.353 -0.0869  1.7000 -0.4521
    5PEO    H22  175   2.703   2.246   2.299  0.5198  0.9771  0.3701
    6PET     C9  176   2.560   2.318   2.153  0.2041  0.1593 -0.0335
    6PET     H6  177   2.515   2.415   2.126 -0.0653  0.1559  0.3947
    6PET     H7  178   2.477   2.252   2.181  1.2339 -0.9992  0.3575
    6PET     O2  179   2.634   2.253   2.045 -0.4097 -0.2268 -0.5580
    6PET     C8  180   2.565   2.218   1.933  0.1012 -0.3153 -0.1758
    6PET     O1  181   2.446   2.233   1.923 -0.1263 -0.2752  0.4333
    6PET     C4  182   2.650   2.154   1.824 -0.2345 -0.2973 -0.0076
    6PET     C5  183   2.787   2.175   1.834 -0.2464 -0.3819  0.7079
    6PET     C6  184   2.872   2.112   1.744  0.3497 -0.1675 -0.3336
    6PET     H4  185   2.977   2.137   1.732  0.0280  1.4981  0.0464
    6PET     H3  186   2.834   2.245   1.902  1.6341 -0.9842  0.1012
    6PET     C3  187   2.592   2.083   1.721 -0.0942 -0.2869  0.2400
    6PET     H2  188   2.486   2.077   1.701  0.2219  1.5610 -2.7554
    6PET     C2  189   2.678   2.016   1.638 -0.3014 -0.2146 -0.0622
    6PET     H1  190   2.640   1.966   1.549  1.1774 -0.0977 -0.7842
    6PET     C1  191   2.823   2.026   1.646 -0.1212 -0.3807 -0.5932
    6PET     C7  192   2.915   1.978   1.544 -0.2055 -0.4239  0.5047
    6PET     O3  193   2.875   1.927   1.440  0.0616 -0.3959  0.0876
    6PET     O4  194   3.049   1.987   1.573 -0.1728 -0.1227  0.1058
    6PET    C10  195   3.151   1.916   1.498 -0.2748  1.4957  0.1188
    6PET     H8  196   3.245   1.970   1.518 -0.0126  1.0596  0.0699
    6PET     H9  197   3.129   1.930   1.392  1.3784  0.9276 -0.3237
    6PET    C11  198   3.158   1.767   1.542 -0.1605 -0.4849  0.2710
    6PET    H10  199   3.059   1.722   1.529 -0.1790 -0.0521 -1.2278
    6PET    H11  200   3.181   1.777   1.649  3.0065 -1.1784 -0.2689
    6PET    C12  201   3.278   1.687   1.487  0.1116  0.5013  0.1389
    6PET    H13  202   3.370   1.743   1.507  0.1985  0.9798 -1.4732
    6PET    H14  203   3.259   1.672   1.380 -2.5810 -1.2817  0.7688
    7PET     C9  204   3.318   1.548   1.560  0.3648  0.6624 -0.0399
    7PET     H6  205   3.396   1.489   1.510 -2.6074 -2.1571 -1.7941
    7PET     H7  206   3.232   1.480   1.560 -0.0866  1.2008  1.2907
    7PET     O2  207   3.341   1.573   1.698  0.1764 -0.1620  0.1757
    7PET     C8  208   3.460   1.632   1.735 -0.2191  0.0335  0.9336
    7PET     O1  209   3.544   1.663   1.649  0.4096  0.1641 -0.2410
    7PET     C4  210   3.461   1.661   1.883 -0.0210  0.2433  0.7927
    7PET     C5  211   3.575   1.712   1.941 -0.3574  0.0583  0.2524
    7PET     C6  212   3.576   1.752   2.075 -0.2460 -0.2330 -0.1766
    7PET     H4  213   3.668   1.793   2.117  1.5335 -3.8085 -0.1714
    7PET     H3  214   3.658   1.717   1.872 -0.8433  1.2490 -0.2611
    7PET     C3  215   3.339   1.654   1.961 -0.3304  0.3056  0.8162
    7PET     H2  216   3.252   1.603   1.919 -0.1424  0.6574 -0.0186
    7PET     C2  217   3.336   1.699   2.093  0.5794 -0.1940  0.8768
    7PET     H1  218   3.245   1.689   2.152 -0.8181  1.3772 -0.8658
    7PET     C1  219   3.454   1.741   2.160 -0.6636  0.5859  0.3077
    7PET     C7  220   3.451   1.793   2.295  0.1702 -0.2095 -0.6058
    7PET     O3  221   3.350   1.796   2.359  0.2102  0.0268  0.3907
    7PET     O4  222   3.565   1.844   2.336  0.5107 -0.2677 -0.0019
    7PET    C10  223   3.561   1.925   2.454 -0.2544 -0.6163  0.3207
    7PET     H8  224   3.657   1.915   2.508  0.8243  1.4105 -1.1014
    7PET     H9  225   3.487   1.896   2.529 -0.1158  0.7122  1.0078
    7PET    C11  226   3.560   2.073   2.400 -0.0347  0.7018 -0.1500
    7PET    H10  227   3.457   2.089   2.368 -0.0562  0.7103 -0.0763
    7PET    H11  228   3.620   2.088   2.309 -3.9876  2.6558 -2.7235
    7PET    C12  229   3.593   2.175   2.514  0.0372  0.8665 -0.4562
    7PET    H13  230   3.589   2.274   2.467 -0.0418  0.7669 -0.6631
    7PET    H14  231   3.699   2.166   2.537  0.3852  0.2583 -2.1481
    8PET     C9  232   3.517   2.179   2.649 -0.5292 -1.1797  0.2526
    8PET     H6  233   3.525   2.274   2.702  3.5367 -2.1721  1.7516
    8PET     H7  234   3.564   2.099   2.707  0.4489 -0.3373  0.6447
    8PET     O2  235   3.380   2.154   2.623 -0.4499 -0.3238  0.6425
    8PET     C8  236   3.292   2.162   2.725  0.5259  0.2536 -0.3229
    8PET     O1  237   3.327   2.190   2.840 -0.0265  0.2624 -0.1173
    8PET     C4  238   3.148   2.162   2.690 -0.1474  0.6864  0.5879
    8PET     C5  239   3.055   2.201   2.789  0.4446  0.1849  0.4984
    8PET     C6  240   2.918   2.211   2.763 -0.1631 -0.4053 -0.2256
    8PET     H4  241   2.851   2.251   2.838  3.0545 -2.5926  4.2186
    8PET     H3  242   3.093   2.247   2.880  0.4268 -0.9153  1.0741
    8PET     C3  243   3.098   2.127   2.563 -0.5646 -0.2896  0.0051
    8PET     H2  244   3.147   2.090   2.474 -1.2785  0.2296 -0.6201
    8PET     C2  245   2.962   2.143   2.537  0.2321  0.0211  0.3576
    8PET     H1  246   2.927   2.109   2.440  0.2633  1.8945 -0.3536
    8PET     C1  247   2.871   2.177   2.638 -0.6797  0.3973  0.1921
    8PET     C7  248   2.723   2.179   2.607  0.4447  0.1182 -0.1987
    8PET     O3  249   2.662   2.138   2.506 -0.5940  0.2497 -0.0171
    8PET     O4  250   2.645   2.225   2.714  0.3022  0.0579 -0.5101
    8PET    C10  251   2.504   2.200   2.709  0.4210  0.3418  0.2695
    8PET     H8  252   2.477   2.095   2.691  0.1912  0.1840  1.4782
    8PET     H9  253   2.464   2.253   2.622 -2.4615 -1.8907  0.0935
    8PET    C11  254   2.430   2.245   2.834  0.1211 -0.3084 -0.0360
    8PET    H10  255   2.463   2.346   2.859 -1.0140 -0.0902  0.6483
    8PET    H11  256   2.453   2.179   2.919 -0.3424 -1.3406 -0.6911
    8PET    C12  257   2.267   2.247   2.833 -0.1783  0.2277  0.3924
    8PET    H13  258   2.227   2.308   2.751  1.0309 -1.7137 -1.7748
    8PET    H14  259   2.237   2.299   2.924  1.2277  2.1906 -0.2051
    9PET     C9  260   2.201   2.112   2.797  0.3976 -0.6518 -0.3282
    9PET     H6  261   2.242   2.068   2.706  1.1651  1.2047 -0.9079
    9PET     H7  262   2.092   2.128   2.796  0.3723  0.3378  3.2962
    9PET     O2  263   2.224   2.016   2.909  0.5006  0.5073  0.4338
    9PET     C8  264   2.170   1.893   2.902 -0.7550  0.2995 -0.1429
    9PET     O1  265   2.082   1.853   2.825  0.0005 -0.8902  0.4126
    9PET     C4  266   2.227   1.798   3.009 -0.2421  0.6363 -0.7801
    9PET     C5  267   2.329   1.844   3.102  0.0712 -0.0640  0.3118
    9PET     C6  268   2.398   1.746   3.177  0.2079 -0.2222 -0.3143
    9PET     H4  269   2.479   1.776   3.242 -0.5452 -0.4537  0.7719
    9PET     H3  270   2.343   1.950   3.117 -2.0292  0.3559 -0.3171
    9PET     C3  271   2.185   1.666   3.012 -0.5116 -0.2506  0.3344
    9PET     H2  272   2.100   1.643   2.949 -0.6464 -1.6576  0.9831
    9PET     C2  273   2.256   1.571   3.095  0.1504 -0.5150  0.5160
    9PET     H1  274   2.241   1.464   3.084 -0.8897 -0.5315  1.8027
    9PET     C1  275   2.362   1.616   3.177  0.3913  0.8726 -0.5632
    9PET     C7  276   2.434   1.516   3.267  0.5729 -0.1270  0.1912
    9PET     O3  277   2.400   1.398   3.280  0.1778  0.3617 -0.6648
    9PET     O4  278   2.537   1.572   3.335 -0.1670  0.3982  0.3972
    9PET    C10  279   2.628   1.505   3.416 -0.6710 -0.2365  0.3982
    9PET     H8  280   2.622   1.396   3.404  1.1142 -0.3107 -0.0424
    9PET     H9  281   2.611   1.529   3.521 -1.8163  0.8282  0.0001
    9PET    C11  282   2.776   1.564   3.385 -1.3074  0.8261  0.2782
    9PET    H10  283   2.846   1.532   3.463 -0.9332  2.4402  0.6206
    9PET    H11  284   2.770   1.673   3.386  2.3236  1.1324  0.4144
    9PET    C12  285   2.828   1.517   3.244  0.4469  0.1714 -0.2306
    9PET    H13  286   2.751   1.552   3.175  0.4329 -0.0995 -0.3573
    9PET    H14  287   2.825   1.407   3.234  0.8810  0.1922 -0.5952
   10PET     C9  288   2.968   1.575   3.207  0.5736 -0.4602 -0.0321
   10PET     H6  289   3.046   1.547   3.279  0.1899 -0.7244  0.2879
   10PET     H7  290   2.973   1.684   3.220  0.2119 -0.5836  1.3172
   10PET     O2  291   3.001   1.540   3.071  0.0257 -0.4547  0.1098
   10PET     C8  292   3.137   1.529   3.037  0.4575  0.0139  0.2896
   10PET     O1  293   3.230   1.546   3.115 -0.3482  0.2041 -0.1484
   10PET     C4  294   3.152   1.493   2.888  0.4917  0.0919 -0.3698
   10PET     C5  295   3.040   1.468   2.802  0.1003 -0.1819  0.1853
   10PET     C6  296   3.063   1.460   2.662 -0.3396 -0.0960 -0.3243
   10PET     H4  297   2.979   1.460   2.593 -0.0883 -1.4717 -0.6645
   10PET     H3  298   2.937   1.463   2.838  0.7201 -0.9249  1.9798
   10PET     C3  299   3.278   1.498   2.835 -0.3445  0.2359  0.4757
   10PET     H2  300   3.360   1.516   2.904  0.4348  1.1419 -0.6642
   10PET     C2  301   3.298   1.475   2.707 -0.5346 -0.3642  0.4992
   10PET     H1  302   3.400   1.460   2.674  0.0528  1.3369  1.4622
   10PET     C1  303   3.198   1.453   2.615 -0.0952  0.2702 -0.1556
   10PET     C7  304   3.227   1.436   2.468 -0.5121 -0.1266 -0.4897
   10PET     O3  305   3.339   1.406   2.427  0.6416  0.5255 -0.0996
   10PET     O4  306   3.119   1.476   2.384 -0.2695 -0.1355  0.5171
   10PET    C10  307   3.113   1.410   2.255 -0.1359  0.9691  0.4451
   10PET     H8  308   3.104   1.302   2.272  2.0907  0.8258  1.0702
   10PET     H9  309   3.206   1.427   2.199 -0.2101 -3.7850 -1.6189
   10PET    C11  310   2.992   1.452   2.174  0.3939 -0.3079 -0.7167
   10PET    H10  311   2.983   1.393   2.082  0.0523 -1.4227  0.0144
   10PET    H11  312   3.008   1.551   2.131 -0.1831 -0.3980 -1.1586
   10PET    C12  313   2.847   1.454   2.240 -0.0076  0.2294 -0.2622
   10PET    H13  314   2.772   1.466   2.160 -2.3644 -0.5643  1.7058
   10PET    H14  315   2.839   1.545   2.301  0.0925  0.3617 -0.4430
   11PET     C9  316   2.820   1.322   2.318 -0.3099 -0.3028  0.2858
   11PET     H6  317   2.885   1.320   2.406  0.3891  2.0845 -0.1088
   11PET     H7  318   2.851   1.234   2.260  0.1525 -0.4930  0.8092
   11PET     O2  319   2.685   1.316   2.353 -1.1101 -0.0294 -0.2264
   11PET     C8  320   2.661   1.204   2.434  0.4102 -0.3287  0.0190
   11PET     O1  321   2.741   1.116   2.461  0.1183  0.8036  0.7131
   11PET     C4  322   2.515   1.202   2.497 -0.6752  0.5891 -0.3770
   11PET     C5  323   2.475   1.080   2.554  0.4941 -0.2101  0.1268
   11PET     C6  324   2.358   1.078   2.630  0.1669 -0.0723  0.5002
   11PET     H4  325   2.334   0.989   2.687  0.3358 -0.3510  0.1410
   11PET     H3  326   2.536   0.989   2.554  0.0381 -0.5396  1.8790
   11PET     C3  327   2.439   1.317   2.516  0.4328  0.4268  0.0032
   11PET     H2  328   2.487   1.408   2.479 -1.3859  2.0656  1.4310
   11PET     C2  329   2.310   1.313   2.580  0.2802  0.9034  0.3609
   11PET     H1  330   2.244   1.399   2.587  0.1683  1.0042 -1.4379
   11PET     C1  331   2.273   1.191   2.644 -0.4592  0.1363  0.3598
   11PET     C7  332   2.148   1.175   2.722 -0.2012 -0.0134 -0.2907
   11PET     O3  333   2.120   1.072   2.783  0.3327  0.4455 -0.3181
   11PET     O4  334   2.069   1.288   2.716  0.3582 -0.4090  0.5499
   11PET    C10  335   1.941   1.278   2.774 -0.1384  0.4172  0.1352
   11PET     H8  336   1.944   1.242   2.878 -1.2414 -0.6499 -0.1825
   11PET     H9  337   1.880   1.206   2.719 -0.0721  0.4420  0.0300
   11PET    C11  338   1.869   1.408   2.773 -0.6531  0.9919 -0.4034
   11PET    H10  339   1.906   1.460   2.862  0.9703 -0.5554 -0.1140
   11PET    H11  340   1.765   1.385   2.801 -0.5097 -1.0022 -1.3168
   11PET    C12  341   1.877   1.504   2.648 -0.5759 -0.1936 -0.1592
   11PET    H13  342   1.977   1.544   2.630 -0.1745 -0.6072  1.0640
   11PET    H14  343   1.821   1.593   2.678 -1.5770 -0.8181 -0.1121
   12PET     C9  344   1.807   1.467   2.517 -0.8160 -0.1480  0.0403
   12PET     H6  345   1.831   1.551   2.451  0.8861  0.2374  1.0917
   12PET     H7  346   1.701   1.468   2.547 -0.5449 -1.0901  1.1258
   12PET     O2  347   1.852   1.331   2.470 -0.2089  0.4362  0.4461
   12PET     C8  348   1.971   1.322   2.409 -0.3338  0.3213  0.0148
   12PET     O1  349   2.031   1.416   2.358 -0.3499  0.2078 -0.4043
   12PET     C4  350   2.021   1.183   2.414  0.1172  0.1870  0.3071
   12PET     C5  351   1.951   1.078   2.480  0.7947  0.0581  0.3418
   12PET     C6  352   2.007   0.951   2.498 -0.2339 -0.0433 -0.7417
   12PET     H4  353   1.962   0.876   2.563  1.3603 -1.0484 -0.7256
   12PET     H3  354   1.856   1.101   2.527  0.7649  0.8531 -0.1002
   12PET     C3  355   2.150   1.153   2.352  0.0042 -0.3018 -0.4174
   12PET     H2  356   2.214   1.230   2.310  2.4138 -1.8111  0.2959
   12PET     C2  357   2.201   1.028   2.362  0.5333  0.0690 -0.2291
   12PET     H1  358   2.301   1.000   2.329  0.0786 -1.5899 -0.3068
   12PET     C1  359   2.133   0.921   2.432  0.0691  0.3446  0.0080
   12PET     C7  360   2.203   0.786   2.454 -0.1723  0.7618 -0.1190
   12PET     O3  361   2.319   0.771   2.421 -0.0916  0.2927 -0.1603
   12PET     O4  362   2.129   0.694   2.522  0.5423 -0.1239 -0.0303
   12PET    C10  363   2.201   0.574   2.559 -0.3800 -0.8319 -0.0824
   12PET     H8  364   2.244   0.525   2.471 -0.8248 -0.4704 -0.5086
   12PET     H9  365   2.122   0.503   2.589 -1.1094 -0.9381 -2.0737
   12PET    C11  366   2.297   0.593   2.674  0.5942  0.2460  0.0660
   12PET    H10  367   2.367   0.671   2.643  0.1711  1.0163  1.0360
   12PET    H11  368   2.368   0.509   2.677  0.9368  0.4252 -1.8204
   12PET    C12  369   2.226   0.637   2.808  0.5367 -0.1227 -0.1767
   12PET    H13  370   2.166   0.552   2.842  1.2572  0.5581  3.2132
   12PET    H14  371   2.161   0.724   2.792  0.5023  0.1342  1.1756
   13PET     C9  372   2.324   0.663   2.925  0.5123  0.9393 -0.5178
   13PET     H6  373   2.399   0.583   2.922 -0.8024 -0.3163 -2.3054
   13PET     H7  374   2.270   0.650   3.019  1.3093  3.5182  0.3761
   13PET     O2  375   2.379   0.794   2.900  0.8888 -0.3777 -0.2807
   13PET     C8  376   2.513   0.818   2.910 -0.4591  0.3397 -0.1972
   13PET     O1  377   2.597   0.742   2.955  0.1220 -0.0575 -0.7334
   13PET     C4  378   2.548   0.957   2.880 -0.3691 -0.0386  0.8506
   13PET     C5  379   2.669   0.991   2.818 -0.6883  0.1104 -0.5874
   13PET     C6  380   2.696   1.128   2.800  0.3980  0.0048 -0.6326
   13PET     H4  381   2.788   1.158   2.750  0.8076 -0.9622 -0.4847
   13PET     H3  382   2.744   0.918   2.791 -0.4533  0.9358 -2.2948
   13PET     C3  383   2.460   1.057   2.929 -0.1451  0.0387  0.3306
   13PET     H2  384   2.368   1.028   2.978 -0.4992  1.7335  0.7523
   13PET     C2  385   2.486   1.188   2.893  0.6649 -0.4854 -0.4803
   13PET     H1  386   2.421   1.270   2.924  2.3234  0.2897  1.0936
   13PET     C1  387   2.600   1.226   2.833 -0.2683  0.3005  0.4039
   13PET     C7  388   2.620   1.366   2.792  0.1122  0.0971  0.3998
   13PET     O3  389   2.709   1.402   2.720 -0.2804 -0.0030 -0.6261
   13PET     O4  390   2.539   1.455   2.853 -0.1827  0.2725  0.6127
   13PET    C10  391   2.564   1.597   2.824 -0.0390 -0.1903 -0.0158
   13PET     H8  392   2.669   1.616   2.801  0.8559 -0.8446  3.0156
   13PET     H9  393   2.531   1.661   2.907 -1.4820 -0.6416 -0.2150
   13PET    C11  394   2.475   1.635   2.709  0.3731  0.1251  0.5375
   13PET    H10  395   2.369   1.623   2.737  0.4702 -2.7568  0.0030
   13PET    H11  396   2.496   1.563   2.629  0.3223 -0.2387  0.8481
   13PET    C12  397   2.486   1.784   2.668 -0.4725 -0.5156 -0.4099
   13PET    H13  398   2.486   1.852   2.753 -0.5729  0.7603 -1.4066
   13PET    H14  399   2.401   1.807   2.603  0.0822  2.0032 -0.3434
   14PET     C9  400   2.611   1.812   2.579 -0.0515  0.0610 -0.0313
   14PET     H6  401   2.588   1.901   2.519 -0.4625 -2.0778 -3.2994
   14PET     H7  402   2.603   1.730   2.507  0.7283 -0.6866  0.7025
   14PET     O2  403   2.727   1.826   2.662 -0.2172  0.3650 -0.2343
   14PET     C8  404   2.850   1.831   2.598  0.3782 -0.5644 -0.3395
   14PET     O1  405   2.857   1.835   2.478 -0.6001  0.0146 -0.6929
   14PET     C4  406   2.976   1.822   2.680  0.2898  0.0519 -0.4481
   14PET     C5  407   3.109   1.788   2.621  0.0363  0.0091  0.5181
   14PET     C6  408   3.223   1.789   2.705  0.2927  0.5672 -0.2515
   14PET     H4  409   3.319   1.764   2.660 -1.4733 -3.0361 -2.4334
   14PET     H3  410   3.111   1.752   2.518  1.5091  0.7930  0.2503
   14PET     C3  411   2.966   1.841   2.822  0.6007  0.1829 -0.0651
   14PET     H2  412   2.865   1.844   2.861 -0.1140 -2.5471 -1.4265
   14PET     C2  413   3.079   1.838   2.904 -0.6279 -0.7207  0.3109
   14PET     H1  414   3.068   1.854   3.010  0.5468  1.4337  0.1505
   14PET     C1  415   3.204   1.819   2.843 -0.0655 -0.2130  0.3513
   14PET     C7  416   3.323   1.803   2.938  0.4461  0.1169 -0.0955
   14PET     O3  417   3.311   1.801   3.055 -0.4325 -0.5577 -0.4693
   14PET     O4  418   3.445   1.787   2.871 -0.2150 -0.3713  0.6232
   14PET    C10  419   3.557   1.758   2.944 -0.3075 -1.0195  0.7483
   14PET     H8  420   3.561   1.658   2.988  0.1584 -0.6892  1.4774
   14PET     H9  421   3.572   1.836   3.020  1.6851 -0.7988  0.2089
   14PET    C11  422   3.681   1.769   2.849  0.3250 -0.1152 -0.1859
   14PET    H10  423   3.773   1.743   2.902 -0.8239  1.2371  2.6718
   14PET    H11  424   3.703   1.872   2.817 -1.1039  0.7470  1.4746
   14PET    C12  425   3.669   1.673   2.725 -0.5461  0.1915  0.3361
   14PET    H13  426   3.577   1.701   2.674 -0.6004  0.3654  0.5274
   14PET    H14  427   3.651   1.570   2.758  2.3577  0.3395  2.8520
   15PET     C9  428   3.789   1.670   2.630  0.3255  0.1769 -0.5501
   15PET     H6  429   3.867   1.609   2.676  1.5872  2.5835  0.6910
   15PET     H7  430   3.829   1.770   2.607  1.3680  0.3700  1.7502
   15PET     O2  431   3.744   1.608   2.518  0.7699  0.5227 -0.0344
   15PET     C8  432   3.823   1.603   2.406 -0.0418  0.4274 -0.5043
   15PET     O1  433   3.929   1.658   2.397 -0.3727  0.6066  0.3545
   15PET     C4  434   3.765   1.532   2.292  0.0742 -0.1716 -0.4548
   15PET     C5  435   3.643   1.469   2.302  0.2990 -0.1558  0.1050
   15PET     C6  436   3.581   1.409   2.188 -0.6933 -0.0617  0.0569
   15PET     H4  437   3.483   1.364   2.198 -1.0278  0.4259 -0.8813
   15PET     H3  438   3.587   1.467   2.396 -2.8698  0.5368 -1.6213
   15PET     C3  439   3.826   1.533   2.159  0.1080 -0.4572 -0.7040
   15PET     H2  440   3.917   1.589   2.141  0.0797 -0.0037  0.5208
   15PET     C2  441   3.761   1.484   2.049 -0.2450  0.2669 -0.4160
   15PET     H1  442   3.815   1.491   1.955  0.5227  1.3716  0.0893
   15PET     C1  443   3.635   1.425   2.059  0.7725  0.5006 -0.0585
   15PET     C7  444   3.564   1.375   1.937 -0.3183  0.7693  0.2238
   15PET     O3  445   3.614   1.375   1.823  0.3731 -0.6477  0.7187
   15PET     O4  446   3.442   1.325   1.971  0.3726  0.1499  0.1850
   15PET    C10  447   3.343   1.270   1.880 -0.1626  0.8998  0.0865
   15PET     H8  448   3.372   1.165   1.865 -0.6732  0.1396  3.6230
   15PET     H9  449   3.357   1.328   1.788 -0.1977  2.7511  1.2023
   15PET    C11  450   3.201   1.272   1.936  0.4338 -0.3134 -0.5608
   15PET    H10  451   3.174   1.378   1.942  1.8870  0.0193  2.4268
   15PET    H11  452   3.207   1.236   2.039 -1.4639 -1.6408 -0.8782
   15PET    C12  453   3.088   1.202   1.858  0.4308  0.6498 -0.1816
   15PET    H13  454   2.991   1.193   1.909 -0.2035 -0.3626 -1.4984
   15PET    H14  455   3.112   1.095   1.855 -0.6694  0.3199  1.3804
   16PET     C9  456   3.060   1.260   1.722 -0.0783  0.5479 -0.1440
   16PET     H6  457   3.009   1.187   1.657  1.0574  0.4266 -0.9324
   16PET     H7  458   3.155   1.284   1.674 -0.8543  1.8593 -1.0810
   16PET     O2  459   2.965   1.372   1.732 -0.4444 -0.1536 -0.2958
   16PET     C8  460   2.898   1.408   1.621 -0.2341  0.2060 -0.5999
   16PET     O1  461   2.927   1.382   1.506 -0.0891  0.6281 -0.0909
   16PET     C4  462   2.788   1.502   1.657  0.4707 -0.2089 -0.0927
   16PET     C5  463   2.709   1.559   1.552 -0.8591 -0.2238  0.2043
   16PET     C6  464   2.600   1.639   1.582  0.7455 -0.3650 -0.3588
   16PET     H4  465   2.536   1.670   1.501 -1.1167  0.5143  1.3485
   16PET     H3  466   2.740   1.533   1.451  0.7858  0.1232  0.5868
   16PET     C3  467   2.754   1.534   1.785  0.3456  0.3448  0.4417
   16PET     H2  468   2.805   1.489   1.869 -1.1705  0.4498  1.4674
   16PET     C2  469   2.636   1.616   1.818  0.2644 -0.3863  0.3104
   16PET     H1  470   2.599   1.619   1.920 -0.4688 -1.1836  0.0745
   16PET     C1  471   2.559   1.668   1.713  0.5452  0.0919 -0.0385
   16PET     C7  472   2.432   1.740   1.743 -0.0257 -0.0329 -1.3316
   16PET     O3  473   2.413   1.790   1.855  0.2373 -0.0207 -0.5774
   16PET     O4  474   2.352   1.744   1.635 -0.5028 -0.2790 -0.2920
   16PET    C10  475   2.236   1.829   1.650 -0.4588  0.0016  0.4453
   16PET     H8  476   2.274   1.921   1.697  0.3192 -0.8329  1.5044
   16PET     H9  477   2.162   1.784   1.717 -0.3103 -0.2740  0.4242
   16PET    C11  478   2.179   1.852   1.508 -0.0011  0.3684  0.1718
   16PET    H10  479   2.250   1.914   1.451  0.1185 -0.2691 -0.3937
   16PET    H11  480   2.092   1.916   1.521 -1.0037 -1.0700  0.7731
   16PET    C12  481   2.144   1.726   1.437 -1.0771  0.6266 -0.1276
   16PET    H13  482   2.083   1.665   1.504 -1.8502  0.0685 -1.3225
   16PET    H14  483   2.228   1.660   1.414 -1.9968 -1.1281  1.3359
   17PET     C9  484   2.055   1.744   1.306 -0.2591 -0.3913 -0.4571
   17PET     H6  485   2.107   1.789   1.221 -1.0979  1.6052  0.0418
   17PET     H7  486   1.972   1.814   1.319 -1.4029 -1.0606 -3.3730
   17PET     O2  487   2.003   1.615   1.278  0.3798 -0.1309 -0.7699
   17PET     C8  488   1.929   1.591   1.164  0.2011 -0.1871 -0.1613
   17PET     O1  489   1.919   1.672   1.072  0.2935 -0.5212 -0.0528
   17PET     C4  490   1.849   1.459   1.166  0.3954 -0.6914 -0.1401
   17PET     C5  491   1.829   1.378   1.278  0.1496 -0.4110 -0.5497
   17PET     C6  492   1.744   1.261   1.271 -0.5552  0.4522 -0.4142
   17PET     H4  493   1.736   1.206   1.364  2.8896  0.5006  0.0645
   17PET     H3  494   1.888   1.402   1.366 -0.8021  0.6308 -0.1825
   17PET     C3  495   1.781   1.419   1.048  0.3109 -0.0073 -0.4357
   17PET     H2  496   1.792   1.490   0.966  1.9443 -0.0308 -0.2774
   17PET     C2  497   1.699   1.309   1.044  0.3620 -0.2256  0.5878
   17PET     H1  498   1.658   1.280   0.947  1.2707 -0.4214  0.2504
   17PET     C1  499   1.675   1.232   1.157 -0.1234 -0.0764  1.0683
   17PET     C7  500   1.579   1.118   1.144 -1.1198  0.2614  0.2673
   17PET     O3  501   1.498   1.105   1.056  0.0831 -0.1491 -0.2664
   17PET     O4  502   1.579   1.033   1.247  0.0379 -0.1438  0.5737
   17PET    C10  503   1.482   0.927   1.252 -0.1294 -0.4580  0.9181
   17PET     H8  504   1.382   0.969   1.236  0.7816  1.3472 -0.3355
   17PET     H9  505   1.488   0.882   1.352  0.2250 -2.2118  0.1397
   17PET    C11  506   1.512   0.813   1.144 -0.5742 -0.8126  0.1048
   17PET    H10  507   1.587   0.745   1.185 -0.7502 -0.6479  0.7227
   17PET    H11  508   1.556   0.851   1.051  1.3506  1.1813  1.7307
   17PET    C12  509   1.395   0.722   1.099  0.0419 -0.6215 -0.1821
   17PET    H13  510   1.427   0.670   1.008 -0.7556 -1.4284 -0.0083
   17PET    H14  511   1.309   0.783   1.067  0.4421 -0.4800 -1.0008
   18PET     C9  512   1.348   0.625   1.205  0.3072 -0.3857  0.2127
   18PET     H6  513   1.440   0.566   1.218  0.7330  0.2623  0.1704
   18PET     H7  514   1.270   0.566   1.155  0.7092 -0.1194 -0.7473
   18PET     O2  515   1.304   0.688   1.320 -0.1594 -0.1865  0.2124
   18PET     C8  516   1.258   0.599   1.415  0.9728  0.8487 -0.2716
   18PET     O1  517   1.275   0.475   1.415  0.5451 -0.5824 -0.0723
   18PET     C4  518   1.198   0.658   1.537 -0.3076  0.7203 -0.1872
   18PET     C5  519   1.146   0.571   1.642 -0.0676  0.1063 -0.0189
   18PET     C6  520   1.101   0.619   1.765 -0.4594 -0.1130 -0.0788
   18PET     H4  521   1.061   0.545   1.834 -0.2903  0.2433  0.4076
   18PET     H3  522   1.134   0.464   1.629 -1.5249  0.2157  0.2771
   18PET     C3  523   1.198   0.795   1.558 -0.4219  0.9456  0.3851
   18PET     H2  524   1.245   0.859   1.484  1.9697 -0.6247  0.4221
   18PET     C2  525   1.151   0.847   1.680 -0.1341 -0.0047 -0.2774
   18PET     H1  526   1.158   0.952   1.709 -1.0969 -0.0974  0.3282
   18PET     C1  527   1.109   0.759   1.783 -0.3097 -0.5403 -0.3157
   18PET     C7  528   1.056   0.802   1.914 -0.1955 -0.3129  0.2067
   18PET     O3  529   1.007   0.725   1.994  0.3153  0.1279 -0.3410
   18PET     O4  530   1.069   0.937   1.930 -0.1057 -0.0476  0.4376
   18PET    C10  531   0.995   1.019   2.024  0.1122  0.8093  0.0809
   18PET     H8  532   1.044   1.015   2.122  1.1344  2.2474 -0.3249
   18PET     H9  533   0.893   0.981   2.035  0.2080  0.0681 -1.4365
   18PET    C11  534   0.990   1.161   1.987 -0.3085  0.0569  0.2657
   18PET    H10  535   0.913   1.207   2.050 -0.4736 -2.3416  1.9098
   18PET    H11  536   0.964   1.175   1.881  0.4382  2.1776  0.3130
   18PET    C12  537   1.120   1.250   2.002  0.0964  0.3758  0.0008
   18PET    H13  538   1.150   1.243   2.107 -0.2390 -1.1341  0.0179
   18PET    H14  539   1.087   1.352   1.977  1.5383  0.4548 -1.7431
   19PET     C9  540   1.228   1.200   1.907 -0.0459 -0.1927 -0.1186
   19PET     H6  541   1.188   1.191   1.805 -0.3316 -6.6478  0.1515
   19PET     H7  542   1.256   1.096   1.928  1.6311 -0.3182 -2.5322
   19PET     O2  543   1.347   1.278   1.914 -0.1075  0.0776  0.3101
   19PET     C8  544   1.434   1.270   2.022  0.4741 -0.3786  0.1450
   19PET     O1  545   1.418   1.200   2.121  0.5899  0.0399 -0.3108
   19PET     C4  546   1.557   1.355   2.002  0.2096  0.5683  0.2579
   19PET     C5  547   1.568   1.440   1.887  0.0623 -0.3818  1.6535
   19PET     C6  548   1.675   1.528   1.872  0.8952 -0.0433 -0.4694
   19PET     H4  549   1.691   1.585   1.781  0.7357 -0.5320 -0.8033
   19PET     H3  550   1.493   1.442   1.809 -2.5042 -0.2934  3.9588
   19PET     C3  551   1.664   1.356   2.100  0.4897 -0.5267  0.0515
   19PET     H2  552   1.649   1.302   2.193  0.8413  1.3492  1.2518
   19PET     C2  553   1.774   1.445   2.085  0.0706  0.5725 -0.2250
   19PET     H1  554   1.849   1.459   2.162  1.7543  0.8385 -1.8324
   19PET     C1  555   1.779   1.530   1.971 -0.2949  0.4024  0.3185
   19PET     C7  556   1.903   1.613   1.958 -0.0688  0.2963  0.5156
   19PET     O3  557   1.897   1.722   1.908  0.3920 -0.3238  0.3415
   19PET     O4  558   2.012   1.560   2.014  0.3531 -0.4835 -0.1120
   19PET    C10  559   2.136   1.625   1.990 -0.4795  0.5272 -0.6256
   19PET     H8  560   2.127   1.728   2.026  1.0793  0.2646  0.6482
   19PET     H9  561   2.169   1.610   1.887 -3.4965 -0.6780 -1.5282
   19PET    C11  562   2.252   1.571   2.071 -0.0789  0.4028  0.4496
   19PET    H10  563   2.217   1.576   2.175 -0.3024  1.2186  0.3396
   19PET    H11  564   2.340   1.634   2.055 -0.3933  1.2464  1.8583
   19PET    C12  565   2.295   1.427   2.042  0.2076  0.2689  0.4327
   19PET    H13  566   2.309   1.400   1.937  2.0346 -0.3206  0.7822
   19PET    H14  567   2.219   1.359   2.084  0.7150  1.4356  3.4608
   20PET     C9  568   2.430   1.392   2.105 -0.9940  0.0595  0.0833
   20PET     H6  569   2.429   1.425   2.210 -1.6885 -0.8312  0.3747
   20PET     H7  570   2.503   1.458   2.058  1.2468 -0.0564  3.0866
   20PET     O2  571   2.457   1.248   2.103 -0.4078  0.2231 -0.2821
   20PET     C8  572   2.578   1.204   2.051  0.7578 -0.0767  0.4204
   20PET     O1  573   2.665   1.279   2.011  0.2920 -0.3541  0.4689
   20PET     C4  574   2.597   1.059   2.053 -0.0203 -0.0788 -0.5167
   20PET     C5  575   2.727   1.011   2.056  0.2996  0.2770  0.4217
   20PET     C6  576   2.759   0.875   2.057 -0.2418 -0.2373  0.0706
   20PET     H4  577   2.864   0.850   2.053 -0.1997 -0.0018 -0.3537
   20PET     H3  578   2.807   1.085   2.062  0.3965  0.2583 -0.5045
   20PET     C3  579   2.495   0.966   2.075 -0.6374  0.0469 -0.6883
   20PET     H2  580   2.391   0.997   2.080  0.0912  2.8768  4.9816
   20PET     C2  581   2.525   0.828   2.085 -0.2018  0.2471  0.6279
   20PET     H1  582   2.437   0.766   2.097 -0.8443  1.3280  1.6845
   20PET     C1  583   2.663   0.782   2.079  0.4115  0.4570  0.3528
   20PET     C7  584   2.689   0.626   2.099  0.3314 -0.6579  0.4250
   20PET     O3  585   2.606   0.540   2.092  0.7947 -0.3279  0.2809
   20PET     O4  586   2.821   0.605   2.119 -0.2225 -0.2403  0.5843
   20PET    C10  587   2.868   0.468   2.146 -0.2188  0.4202  0.2725
   20PET     H8  588   2.853   0.404   2.059  0.0637  1.1112 -0.3007
   20PET     H9  589   2.819   0.422   2.232 -0.2874 -0.5904 -0.2998
   20PET    C11  590   3.017   0.470   2.162 -1.4017  0.0072 -0.2719
   20PET    H10  591   3.065   0.502   2.068  0.3050  0.7081  0.7868
   20PET    H11  592   3.043   0.364   2.168 -1.6385 -0.1604 -1.7861
   20PET    C12  593   3.062   0.548   2.280 -0.7380 -0.8185 -0.1469
   20PET    H13  594   3.007   0.522   2.370 -0.1153  0.2844  0.5821
   20PET    H14  595   3.042   0.655   2.262 -0.6974 -0.8431 -0.3442
   21PET     C9  596   3.214   0.521   2.310 -0.2026  0.0341  1.3249
   21PET     H6  597   3.240   0.417   2.332  1.8841 -0.1416 -1.3627
   21PET     H7  598   3.241   0.574   2.402 -0.9662 -0.6695  1.9560
   21PET     O2  599   3.297   0.552   2.196  0.3325  0.5820  0.5158
   21PET     C8  600   3.437   0.549   2.208  0.7810 -0.1900 -0.9777
   21PET     O1  601   3.492   0.539   2.314 -0.2145  0.0720  0.1214
   21PET     C4  602   3.515   0.552   2.072  0.9455 -0.3750 -1.1842
   21PET     C5  603   3.436   0.549   1.954  1.0379  0.3776 -0.1205
   21PET     C6  604   3.502   0.564   1.830  0.0621  0.1869 -0.0848
   21PET     H4  605   3.438   0.553   1.743  0.5113 -0.3487 -0.3565
   21PET     H3  606   3.330   0.528   1.956  0.6632  1.8625 -1.6104
   21PET     C3  607   3.650   0.582   2.069 -0.0686 -0.4784 -0.3831
   21PET     H2  608   3.699   0.593   2.165 -0.0741  2.0015 -0.5779
   21PET     C2  609   3.715   0.591   1.947  0.2756 -0.4365 -0.3942
   21PET     H1  610   3.822   0.609   1.953  0.7001 -2.9936  3.2821
   21PET     C1  611   3.642   0.572   1.825 -0.0255 -0.1951  0.0287
   21PET     C7  612   3.714   0.572   1.690 -0.2443  0.7470  0.7140
   21PET     O3  613   3.835   0.567   1.679 -0.4021 -0.0454 -0.0912
   21PET     O4  614   3.636   0.553   1.577  0.7026  1.1897 -0.7429
   21PET    C10  615   3.690   0.523   1.444  0.2989 -0.2053 -0.4850
   21PET     H8  616   3.766   0.444   1.456 -0.1440 -0.3497  1.6385
   21PET     H9  617   3.729   0.614   1.397  0.0423 -0.3617 -1.0119
   21PET    C11  618   3.578   0.473   1.361  1.0495  0.0469  0.1867
   21PET    H10  619   3.531   0.384   1.405 -1.3577  0.4356 -1.3854
   21PET    H11  620   3.625   0.432   1.271  1.9594  0.8108  0.3052
   21PET    C12  621   3.452   0.565   1.337 -0.1333  0.3597  0.1452
   21PET    H13  622   3.386   0.557   1.424 -2.1147 -2.8485 -1.4668
   21PET    H14  623   3.411   0.511   1.251 -0.0986 -1.0189  0.9621
   22PET     C9  624   3.494   0.710   1.305 -0.0575 -0.0594 -0.1951
   22PET     H6  625   3.576   0.705   1.232  2.1185 -2.4798  2.1925
   22PET     H7  626   3.519   0.761   1.398 -2.4677 -0.6938  0.8771
   22PET     O2  627   3.375   0.763   1.251  0.6560 -0.6263 -0.0319
   22PET     C8  628   3.363   0.896   1.216 -0.3241  0.2348 -0.6609
   22PET     O1  629   3.459   0.977   1.234  0.0662 -0.2547 -0.2514
   22PET     C4  630   3.229   0.936   1.157  0.4272  0.0644  0.0456
   22PET     C5  631   3.130   0.837   1.136  0.5760 -0.1612  0.5357
   22PET     C6  632   2.993   0.874   1.105 -0.0483  0.4437  0.5476
   22PET     H4  633   2.916   0.798   1.104  0.9512 -0.6070 -1.2140
   22PET     H3  634   3.147   0.733   1.162  2.4593  0.0253  0.1252
   22PET     C3  635   3.192   1.069   1.143 -0.7622  0.0252  0.5994
   22PET     H2  636   3.267   1.144   1.167 -1.7609  1.0627  0.5554
   22PET     C2  637   3.063   1.110   1.110  0.3902  0.4331 -0.7345
   22PET     H1  638   3.052   1.218   1.103 -0.2633  0.3894 -0.5212
   22PET     C1  639   2.962   1.013   1.098  0.3193  0.2377 -0.3169
   22PET     C7  640   2.828   1.067   1.064  0.1786  0.0999 -0.0949
   22PET     O3  641   2.821   1.185   1.025  0.4828 -0.1678  0.5295
   22PET     O4  642   2.725   0.973   1.073 -0.6660  0.0595  0.2875
   22PET    C10  643   2.595   1.021   1.054 -0.4205  0.1721 -0.3421
   22PET     H8  644   2.525   0.942   1.026  1.2008 -1.1045 -0.9445
   22PET     H9  645   2.592   1.096   0.974 -0.3353  2.1311  1.3978
   22PET    C11  646   2.539   1.104   1.176  0.2292  0.3331  0.5912
   22PET    H10  647   2.457   1.169   1.144  0.3475 -0.1346 -0.7041
   22PET    H11  648   2.612   1.177   1.212  0.5768  0.8077 -1.0231
   22PET    C12  649   2.489   1.014   1.298 -0.2227 -0.3038 -0.2154
   22PET    H13  650   2.391   0.977   1.263  1.5236 -3.0103 -2.7440
   22PET    H14  651   2.471   1.077   1.386 -0.9621 -1.5667  0.5578
   23PET     C9  652   2.589   0.898   1.336 -0.1914 -0.5996 -0.2351
   23PET     H6  653   2.586   0.823   1.256 -1.8265 -0.8785  0.0448
   23PET     H7  654   2.550   0.849   1.426  1.1177 -0.6979  0.2879
   23PET     O2  655   2.721   0.946   1.363 -0.1564 -0.5440  0.4477
   23PET     C8  656   2.813   0.850   1.407 -0.5352 -0.9033 -0.2739
   23PET     O1  657   2.779   0.737   1.422  0.2578  0.7653 -0.6062
   23PET     C4  658   2.950   0.898   1.444  0.2907  0.2713 -0.0875
   23PET     C5  659   2.980   1.035   1.428  0.6539  0.1502  0.3968
   23PET     C6  660   3.113   1.080   1.449 -0.4729 -0.1912 -0.2625
   23PET     H4  661   3.150   1.180   1.429  4.1885 -1.2928  1.5263
   23PET     H3  662   2.907   1.109   1.398  1.2440  1.6263  2.3419
   23PET     C3  663   3.058   0.813   1.476  0.3518  0.4548  0.0381
   23PET     H2  664   3.026   0.711   1.495 -2.6410  0.8471 -2.1910
   23PET     C2  665   3.185   0.860   1.514 -0.1264  0.7534  0.0688
   23PET     H1  666   3.269   0.794   1.529 -1.1597 -0.2877  1.4557
   23PET     C1  667   3.212   0.998   1.500  0.0515 -0.0066 -0.6525
   23PET     C7  668   3.347   1.061   1.535 -0.0195 -0.6893  0.1918
   23PET     O3  669   3.362   1.180   1.561  0.3653 -0.0547  0.3500
   23PET     O4  670   3.439   0.964   1.565  0.0811  0.0072 -0.1504
   23PET    C10  671   3.575   1.014   1.600  0.3634  0.4490  0.7602
   23PET     H8  672   3.566   1.101   1.666 -2.1773  0.4094  0.5586
   23PET     H9  673   3.628   1.048   1.510 -0.7383  0.4287  0.0962
   23PET    C11  674   3.659   0.895   1.666 -0.4820  0.1028  0.1180
   23PET    H10  675   3.654   0.806   1.603 -0.6733 -0.1604  0.5000
   23PET    H11  676   3.618   0.856   1.760 -2.5778  0.2027 -0.7019
   23PET    C12  677   3.800   0.921   1.694 -0.6270 -0.7756  0.6053
   23PET    H13  678   3.856   0.958   1.607 -0.3400 -0.9977  0.6917
   23PET    H14  679   3.853   0.827   1.712 -0.7221 -0.8645  0.4170
   24PET     C9  680   3.834   1.041   1.784  0.1494  0.1880  0.1446
   24PET     H6  681   3.782   1.127   1.741  0.9437  0.9938  0.7644
   24PET     H7  682   3.942   1.055   1.784  0.2566 -0.2887  2.1875
   24PET     O2  683   3.785   1.012   1.915 -0.2012  0.2357 -0.2105
   24PET     C8  684   3.821   1.098   2.010  0.1897 -0.1432 -0.0955
   24PET     O1  685   3.900   1.194   1.995 -0.1873  0.7566 -0.4482
   24PET     C4  686   3.771   1.057   2.146  0.0354  0.7386 -0.4882
   24PET     C5  687   3.796   1.134   2.265  0.5189  0.1975  0.2658
   24PET     C6  688   3.747   1.088   2.388  0.4762 -0.1553 -0.3556
   24PET     H4  689   3.779   1.144   2.475  3.5712 -0.2372 -1.3005
   24PET     H3  690   3.852   1.225   2.250  0.1326  0.2877 -0.7197
   24PET     C3  691   3.693   0.935   2.157  0.0090 -0.0991 -0.0887
   24PET     H2  692   3.681   0.880   2.063 -0.2282 -1.5303  0.7474
   24PET     C2  693   3.642   0.896   2.280 -0.0626  0.5085  0.2025
   24PET     H1  694   3.585   0.803   2.282 -1.9275  1.5403 -1.3297
   24PET     C1  695   3.664   0.973   2.394  0.1708 -0.3350  0.1138
   24PET     C7  696   3.609   0.933   2.531 -0.4903  0.5928 -0.3538
   24PET     O3  697   3.528   0.845   2.546 -0.0396  0.0309 -0.0364
   24PET     O4  698   3.659   1.004   2.641 -0.1891 -0.3541 -0.0341
   24PET    C10  699   3.632   0.957   2.772  0.2824 -0.2624  0.2948
   24PET     H8  700   3.671   0.855   2.786 -1.0214 -0.8954 -0.4646
   24PET     H9  701   3.525   0.966   2.795  0.1557  2.0055 -0.9189
   24PET    C11  702   3.695   1.054   2.879  0.7500  0.2386 -0.0126
   24PET    H10  703   3.803   1.047   2.861  0.6670  0.6433 -0.7117
   24PET    H11  704   3.674   1.014   2.979 -1.6235  0.5860 -0.3131
   24PET    C12  705   3.651   1.201   2.894 -0.5805  0.5031 -0.0171
   24PET    H13  706   3.682   1.252   2.802  1.5291 -0.2836  0.2012
   24PET    H14  707   3.710   1.252   2.970 -2.6263 -0.4499  2.3757
   25PET     C9  708   3.500   1.224   2.921  0.1596  0.2010  0.5095
   25PET     H6  709   3.493   1.333   2.931 -1.3922 -0.0338  2.8371
   25PET     H7  710   3.461   1.174   3.011  0.2187  2.3663  1.8173
   25PET     O2  711   3.435   1.178   2.803  1.0609  0.0245  0.0278
   25PET     C8  712   3.303   1.155   2.802  0.5812 -0.0177 -0.7393
   25PET     O1  713   3.236   1.158   2.906 -0.2532 -0.2283  0.3112
   25PET     C4  714   3.252   1.107   2.671  0.5910 -0.6144 -0.1089
   25PET     C5  715   3.120   1.068   2.646 -0.2895 -1.0381  0.0641
   25PET     C6  716   3.078   1.044   2.515  0.5414 -0.3587 -0.0528
   25PET     H4  717   2.973   1.020   2.500  0.7055 -0.8394 -0.4950
   25PET     H3  718   3.048   1.062   2.727 -0.4544  0.7219  0.0859
   25PET     C3  719   3.343   1.097   2.563 -0.3237 -0.4003  0.4211
   25PET     H2  720   3.442   1.140   2.570 -1.2604  2.2221 -1.1096
   25PET     C2  721   3.306   1.052   2.434  1.0350 -0.9502  0.0282
   25PET     H1  722   3.384   1.061   2.359  1.6689 -1.9423  0.5571
   25PET     C1  723   3.170   1.022   2.411 -0.4034  0.0130  0.2207
   25PET     C7  724   3.125   0.995   2.274  0.9226  0.0773  0.6309
   25PET     O3  725   3.008   0.994   2.238  0.2583 -0.5449  0.2087
   25PET     O4  726   3.221   0.951   2.186  0.0279 -0.6184 -0.0984
   25PET    C10  727   3.177   0.896   2.062 -0.3296  0.2195  0.5220
   25PET     H8  728   3.103   0.969   2.025  0.3541  1.3393  1.2897
   25PET     H9  729   3.135   0.797   2.082  2.0596 -0.5508  2.2006
   25PET    C11  730   3.302   0.873   1.981 -0.4050 -0.4353  0.6954
   25PET    H10  731   3.352   0.787   2.028 -1.6191 -1.2741  0.4874
   25PET    H11  732   3.361   0.964   1.970  0.0281 -0.5763  1.7061
   25PET    C12  733   3.271   0.819   1.836 -0.1810  0.0051  0.3550
   25PET    H13  734   3.367   0.788   1.795 -0.5471 -0.1716 -0.3760
   25PET    H14  735   3.229   0.899   1.774  0.5918  1.2543  1.3860
   26PET     C9  736   3.155   0.714   1.840  0.0580  0.3022 -0.0981
   26PET     H6  737   3.152   0.663   1.937 -0.7233 -0.5525 -0.5647
   26PET     H7  738   3.176   0.643   1.759  0.6064  0.2058  0.1214
   26PET     O2  739   3.036   0.782   1.810 -0.0037  0.2326 -0.0731
   26PET     C8  740   2.927   0.709   1.764  0.7129 -0.1125  0.1818
   26PET     O1  741   2.941   0.596   1.727 -0.5657  0.3551 -0.5699
   26PET     C4  742   2.801   0.791   1.756  0.0635  0.6281  0.4325
   26PET     C5  743   2.812   0.928   1.734  0.0976  0.1251  0.6569
   26PET     C6  744   2.694   0.996   1.704 -0.5465  0.0658 -0.1674
   26PET     H4  745   2.714   1.095   1.664  0.8273  0.6964  1.8873
   26PET     H3  746   2.910   0.973   1.730 -0.2487  1.2039  2.8417
   26PET     C3  747   2.679   0.728   1.770 -0.0338 -0.3428  0.4319
   26PET     H2  748   2.678   0.620   1.782  0.5802 -0.5294 -0.9601
   26PET     C2  749   2.562   0.801   1.763 -0.0601 -0.1665  0.6047
   26PET     H1  750   2.465   0.754   1.779 -0.8144  0.0522 -2.6224
   26PET     C1  751   2.569   0.940   1.734  0.1894  0.8037  1.1070
   26PET     C7  752   2.442   1.018   1.710  0.0688  0.3095 -0.1368
   26PET     O3  753   2.329   0.984   1.739  0.5851  0.6749  0.1379
   26PET     O4  754   2.459   1.141   1.657 -0.2579 -0.2119  0.1382
   26PET    C10  755   2.350   1.236   1.669 -0.4111  0.5633 -0.6995
   26PET     H8  756   2.331   1.260   1.774  0.1043 -0.6341 -0.3151
   26PET     H9  757   2.256   1.196   1.630 -0.0190  0.1059 -1.1868
   26PET    C11  758   2.385   1.356   1.578 -0.2703 -0.1190 -0.8906
   26PET    H10  759   2.491   1.383   1.570 -0.6835  2.2564  0.8346
   26PET    H11  760   2.349   1.440   1.638 -0.5912 -0.6945 -0.2574
   26PET    C12  761   2.329   1.355   1.433 -0.2651  0.2097 -0.3389
   26PET    H13  762   2.353   1.269   1.370 -0.5597  0.4447 -0.7789
   26PET    H14  763   2.370   1.439   1.376 -0.0401  0.7641  0.6311
   27PET     C9  764   2.178   1.376   1.422  0.0395 -0.4185 -0.1163
   27PET     H6  765   2.143   1.415   1.326 -1.6378 -1.0140  0.2257
   27PET     H7  766   2.154   1.442   1.507  0.8517 -0.8388  0.4582
   27PET     O2  767   2.111   1.249   1.452  0.1174  0.0306 -0.2134
   27PET     C8  768   2.094   1.151   1.354  0.2122 -0.4538 -0.1653
   27PET     O1  769   2.146   1.156   1.244 -0.0415  0.1637  0.0231
   27PET     C4  770   2.003   1.043   1.400 -0.1208 -0.2859  0.1399
   27PET     C5  771   1.929   0.974   1.307 -0.0762 -0.2913 -0.3124
   27PET     C6  772   1.847   0.865   1.337 -0.5004  0.0907 -0.1764
   27PET     H4  773   1.784   0.826   1.257  0.4070 -0.1443 -0.7928
   27PET     H3  774   1.936   0.999   1.201  1.5584  2.6419  0.3842
   27PET     C3  775   1.995   0.997   1.537 -0.1609 -0.3017  0.1472
   27PET     H2  776   2.046   1.053   1.615 -0.2269 -0.7096  0.4839
   27PET     C2  777   1.903   0.890   1.569 -0.3291 -0.7518 -0.2031
   27PET     H1  778   1.887   0.870   1.674  0.2612  2.8220  0.6860
   27PET     C1  779   1.830   0.828   1.471  0.0937 -0.2741 -0.0984
   27PET     C7  780   1.731   0.714   1.498 -0.4174 -0.4073 -0.2406
   27PET     O3  781   1.701   0.633   1.415  0.3500  0.2928  0.5040
   27PET     O4  782   1.676   0.712   1.624 -0.5584 -0.3687  0.0316
   27PET    C10  783   1.598   0.598   1.657 -0.4030 -0.1678 -0.4529
   27PET     H8  784   1.659   0.507   1.652 -0.3375 -0.1214 -0.5112
   27PET     H9  785   1.522   0.587   1.579  0.8372  1.2259 -1.9390
   27PET    C11  786   1.542   0.615   1.798 -0.2420  0.2983 -0.6614
   27PET    H10  787   1.623   0.583   1.864  0.1154 -0.4445 -1.4394
   27PET    H11  788   1.457   0.546   1.813 -0.3227  0.4093 -0.6046
   27PET    C12  789   1.489   0.752   1.839 -0.4840  0.0187 -1.0020
   27PET    H13  790   1.413   0.781   1.766  0.0717  0.0814 -1.5630
   27PET    H14  791   1.567   0.829   1.845  0.6167 -1.0615 -1.1602
   28PET     C9  792   1.420   0.751   1.976 -0.3886 -0.5090 -0.3742
   28PET     H6  793   1.314   0.722   1.978 -1.3974  2.7136 -0.7253
   28PET     H7  794   1.418   0.856   2.008 -0.2262 -0.0744 -1.7380
   28PET     O2  795   1.494   0.674   2.071  0.2080  0.2849  0.0430
   28PET     C8  796   1.616   0.717   2.125  0.1004  0.4781  0.0793
   28PET     O1  797   1.665   0.831   2.114 -0.5834  0.1744  0.5156
   28PET     C4  798   1.683   0.618   2.209 -0.1556  0.0687  0.3633
   28PET     C5  799   1.773   0.656   2.304  0.2512  0.5472 -0.1943
   28PET     C6  800   1.846   0.553   2.370 -0.3846 -0.1298 -0.5719
   28PET     H4  801   1.922   0.583   2.442 -1.4091  0.0196  0.4679
   28PET     H3  802   1.802   0.760   2.314  2.3235 -0.1046  1.0484
   28PET     C3  803   1.664   0.483   2.176  0.1571 -0.8435 -0.1317
   28PET     H2  804   1.595   0.460   2.095 -0.1208  1.3300 -0.5828
   28PET     C2  805   1.743   0.385   2.237  0.6867  0.6788  0.0039
   28PET     H1  806   1.732   0.286   2.193 -2.0327  1.5219 -1.4403
   28PET     C1  807   1.829   0.420   2.339 -0.8789  0.4160 -0.3174
   28PET     C7  808   1.910   0.310   2.410 -0.4918  0.3372  0.6476
   28PET     O3  809   2.016   0.323   2.466  0.0547  0.1821 -0.3219
   28PET     O4  810   1.842   0.193   2.413  0.1508 -0.2386  0.2504
   28PET    C10  811   1.897   0.077   2.473 -0.1837  0.2495 -0.3168
   28PET     H8  812   1.814   0.019   2.516 -0.3673  0.7796  0.0619
   28PET     H9  813   1.961   0.105   2.558 -0.3077 -0.4924  0.0274
   28PET    C11  814   1.980  -0.001   2.374  0.2234 -0.3107  0.4203
   28PET    H10  815   2.035  -0.068   2.441  0.5479  2.0006  2.5849
   28PET    H11  816   2.065   0.062   2.345  0.9102 -1.0777  0.7368
   28PET    C12  817   1.902  -0.074   2.265 -0.1590  0.4720  0.1542
   28PET    H13  818   1.818  -0.019   2.224 -0.5366 -2.1568 -2.9823
   28PET    H14  819   1.858  -0.161   2.315 -0.3345  1.4977  1.8938
   29PET     C9  820   1.986  -0.110   2.136  0.0905 -0.2668 -0.4483
   29PET     H6  821   1.911  -0.150   2.067 -2.1376 -2.1056  2.7377
   29PET     H7  822   2.065  -0.179   2.168  2.2848  2.7669  1.1983
   29PET     O2  823   2.045   0.016   2.100  0.4165 -0.0127 -0.2253
   29PET     C8  824   1.968   0.099   2.028  0.1222  0.0301  0.6338
   29PET     O1  825   1.870   0.061   1.963 -0.6661 -0.5278 -0.2856
   29PET     C4  826   1.998   0.243   2.037  0.3049  0.3575  0.1624
   29PET     C5  827   2.111   0.280   2.111  0.3779 -0.4651  0.1046
   29PET     C6  828   2.138   0.419   2.126  0.3451  0.4003  0.1084
   29PET     H4  829   2.216   0.439   2.198  0.2891  0.9866  0.0094
   29PET     H3  830   2.172   0.203   2.156  0.0764 -0.8703 -0.1796
   29PET     C3  831   1.918   0.339   1.970  0.5904 -0.3043 -0.5347
   29PET     H2  832   1.843   0.310   1.896  0.8366  1.4353 -1.5248
   29PET     C2  833   1.962   0.474   1.966 -0.2432  0.4339 -0.2340
   29PET     H1  834   1.907   0.543   1.903 -1.7203 -0.9541 -0.5130
   29PET     C1  835   2.063   0.520   2.056 -0.2919 -0.4199  0.2030
   29PET     C7  836   2.102   0.666   2.070  0.2391 -0.1382 -0.6078
   29PET     O3  837   2.176   0.717   2.157 -0.1052 -0.3879  0.0833
   29PET     O4  838   2.045   0.735   1.969  0.0122  0.0011 -0.0961
   29PET    C10  839   2.070   0.875   1.945 -0.1953 -0.1772 -0.2155
   29PET     H8  840   2.037   0.901   1.843  0.0369  0.5215 -0.1197
   29PET     H9  841   2.178   0.895   1.950 -0.4389  2.1381 -2.3170
   29PET    C11  842   1.981   0.953   2.037  0.2751 -0.4503 -0.5722
   29PET    H10  843   1.989   0.913   2.139 -2.4326  0.3064  0.0136
   29PET    H11  844   1.878   0.941   2.003 -0.1496 -2.9874  1.3323
   29PET    C12  845   2.015   1.107   2.056 -0.1669  0.4351 -0.2297
   29PET    H13  846   2.120   1.107   2.085 -0.0859  0.2343 -0.5199
   29PET    H14  847   1.937   1.157   2.116 -2.9455 -1.0714 -2.3240
   30PET     C9  848   2.023   1.174   1.922 -0.7885  0.8204  0.6932
   30PET     H6  849   2.109   1.137   1.865 -0.4746  0.6603  1.2645
   30PET     H7  850   2.030   1.279   1.952 -1.8054  0.9784  0.4021
   30PET     O2  851   1.904   1.155   1.849  0.3719  0.2280  0.0433
   30PET     C8  852   1.871   1.252   1.760  0.7810 -0.3749 -0.1923
   30PET     O1  853   1.948   1.340   1.725  0.1061  0.0998 -0.5084
   30PET     C4  854   1.735   1.252   1.688  0.0710  0.6823 -0.3526
   30PET     C5  855   1.700   1.336   1.583 -0.0105  0.0993 -0.0849
   30PET     C6  856   1.580   1.324   1.516  0.5140 -0.5928  0.8138
   30PET     H4  857   1.565   1.392   1.433 -1.4944 -0.2163  1.4374
   30PET     H3  858   1.778   1.404   1.552  1.3926 -1.1728  0.5136
   30PET     C3  859   1.643   1.151   1.731 -0.3472  0.0328  0.4357
   30PET     H2  860   1.673   1.080   1.807 -1.5385 -0.2408  0.6750
   30PET     C2  861   1.522   1.130   1.665 -0.1445  0.2195  0.2050
   30PET     H1  862   1.452   1.050   1.690 -0.6982 -0.4130 -2.9366
   30PET     C1  863   1.490   1.218   1.555 -0.2216  0.0711 -0.0011
   30PET     C7  864   1.360   1.198   1.487 -0.6538 -0.2244 -0.0683
   30PET     O3  865   1.279   1.115   1.518  0.1961 -0.1947  0.2549
   30PET     O4  866   1.361   1.276   1.378 -0.1181 -0.3184 -0.0052
   30PET    C10  867   1.247   1.271   1.292 -0.8250 -0.8675  0.1574
   30PET     H8  868   1.165   1.305   1.356 -0.8687 -0.4707 -0.1093
   30PET     H9  869   1.224   1.172   1.251  2.5831 -1.5295 -0.4859
   30PET    C11  870   1.280   1.371   1.179 -0.3762 -0.7451 -0.0082
   30PET    H10  871   1.387   1.373   1.154 -0.1809 -0.0016  0.8392
   30PET    H11  872   1.263   1.473   1.214 -0.1206 -0.3359 -1.0621
   30PET    C12  873   1.209   1.336   1.047  0.7113 -0.2355 -0.1488
   30PET    H13  874   1.105   1.304   1.056  0.4601  0.2511 -1.1785
   30PET    H14  875   1.264   1.256   0.995  0.6288 -0.2117 -0.2712
   31SOL     OW  876   1.636   0.653   0.571  0.2090  0.2234 -0.2289
   31SOL    HW1  877   1.720   0.678   0.609  0.0832  0.8287 -0.3271
   31SOL    HW2  878   1.623   0.715   0.498 -0.6393  0.5969  0.2167
   32SOL     OW  879   2.571   0.320   2.253 -0.1089  0.1080 -0.4837
   32SOL    HW1  880   2.590   0.413   2.242  1.0835 -0.0804 -0.1535
   32SOL    HW2  881   2.620   0.276   2.184  0.7528 -0.3951  0.4139
   33SOL     OW  882   0.919   0.041   1.678  0.0296  0.1401 -0.0309
   33SOL    HW1  883   0.975   0.059   1.603 -0.4162  0.0425 -0.3909
   33SOL    HW2  884   0.957   0.093   1.750  1.0361 -0.5195 -0.0606
   34SOL     OW  885   1.672   1.482   0.407 -0.5225 -0.3705 -0.2864
   34SOL    HW1  886   1.759   1.489   0.447 -0.5476 -0.7534 -0.1628
   34SOL    HW2  887   1.687   1.498   0.314 -0.4359  0.3510 -0.1564
   35SOL     OW  888   2.504   1.793   0.490  0.0334  0.7794  0.2914
   35SOL    HW1  889   2.541   1.719   0.537  2.1882  2.1161  0.8581
   35SOL    HW2  890   2.487   1.859   0.558 -2.4245  0.6620 -0.1128
   36SOL     OW  891   1.765   1.007   3.225 -0.6006 -0.5340 -0.0900
   36SOL    HW1  892   1.827   1.078   3.205 -1.1475  0.4198  1.4761
   36SOL    HW2  893   1.757   0.959   3.142  0.3185  0.8048 -1.0041
   37SOL     OW  894   1.190   2.876   3.072  0.1243 -0.4995  0.1936
   37SOL    HW1  895   1.149   2.906   3.153  1.1633 -0.1600  0.6149
   37SOL    HW2  896   1.281   2.859   3.096  1.1584  2.0991 -1.4039
   38SOL     OW  897   1.498   2.662   2.678 -0.3009  0.1606 -0.0008
   38SOL    HW1  898   1.579   2.649   2.728  0.3594  1.3976 -0.6912
   38SOL    HW2  899   1.469   2.750   2.701 -0.9053  0.1073 -0.5203
   39SOL     OW  900   0.907   0.682   2.228 -0.1707  0.2797 -0.4513
   39SOL    HW1  901   0.937   0.667   2.139 -0.1804  0.1225 -0.4285
   39SOL    HW2  902   0.919   0.598   2.272  0.1710  0.4562 -0.2047
   40SOL     OW  903   2.471   1.931   0.756 -0.1652  0.4088 -0.5859
   40SOL    HW1  904   2.563   1.905   0.770 -0.1218 -0.5653 -2.3441
   40SOL    HW2  905   2.472   2.026   0.760  0.0906  0.4037  3.8577
   41SOL     OW  906   1.982   3.304   2.866 -0.1087  0.7393 -0.0833
   41SOL    HW1  907   1.894   3.312   2.827  0.6385  0.3553 -1.9671
   41SOL    HW2  908   2.008   3.395   2.885 -1.9501  0.7395  3.1480
   42SOL     OW  909   2.999   0.224   1.931 -0.2772  0.5498 -0.5360
   42SOL    HW1  910   3.043   0.271   1.859  0.3390 -0.5129 -0.8732
   42SOL    HW2  911   2.954   0.151   1.887 -0.2472  0.1401  0.1109
   43SOL     OW  912   2.817   1.946   0.691  0.5137  0.2676  0.1419
   43SOL    HW1  913   2.888   1.899   0.647  0.9204  0.8062  0.2040
   43SOL    HW2  914   2.793   1.891   0.765  0.5573 -0.1351 -0.1431
   44SOL     OW  915   1.647   1.595   2.939 -0.5439 -0.1982 -0.1494
   44SOL    HW1  916   1.727   1.569   2.985 -0.8448 -1.5124 -0.3356
   44SOL    HW2  917   1.579   1.596   3.006 -0.4919  0.3594 -0.0999
   45SOL     OW  918   1.563   2.829   2.100 -0.4299 -0.3359  0.0420
   45SOL    HW1  919   1.495   2.893   2.080 -0.7445 -0.9740 -1.0081
   45SOL    HW2  920   1.639   2.858   2.049 -0.4728 -0.6144 -0.1824
   46SOL     OW  921   2.748   2.596   2.013 -0.0789  0.2217 -0.2987
   46SOL    HW1  922   2.681   2.641   2.065  1.0160  1.5082  0.0285
   46SOL    HW2  923   2.775   2.523   2.069 -1.1489 -0.2785 -0.4061
   47SOL     OW  924   1.611   3.133   2.163  0.4507  0.1739 -0.5357
   47SOL    HW1  925   1.618   3.181   2.080  2.0517 -0.2323 -0.6493
   47SOL    HW2  926   1.555   3.058   2.143 -0.6448  1.0169 -0.7784
   48SOL     OW  927   2.886   1.102   3.328  0.7986  0.0006 -0.6439
   48SOL    HW1  928   2.949   1.094   3.400  1.0307  0.3962 -0.7989
   48SOL    HW2  929   2.931   1.157   3.263 -0.5461  2.1718  0.1885
   49SOL     OW  930   1.777   2.957   0.117 -0.1715 -0.0665  0.4757
   49SOL    HW1  931   1.855   2.991   0.072 -0.0178 -1.7716 -0.6383
   49SOL    HW2  932   1.755   3.025   0.180  0.8497  1.5167 -0.7706
   50SOL     OW  933   1.863   2.524   2.298  0.0768 -0.0882 -1.0011
   50SOL    HW1  934   1.819   2.562   2.374  0.0452 -0.9658 -0.5705
   50SOL    HW2  935   1.953   2.555   2.305 -0.5727  2.2898 -2.2684
   51SOL     OW  936   0.138   1.981   1.395 -0.3177 -0.0721 -0.1655
   51SOL    HW1  937   0.069   2.044   1.373  0.0717 -0.2650 -2.1299
   51SOL    HW2  938   0.213   2.036   1.422 -0.5696  0.2128 -0.0392
   52SOL     OW  939   1.078   0.536   0.136  0.1121  0.6015 -0.4971
   52SOL    HW1  940   1.040   0.578   0.214 -0.4559  0.2992 -0.6065
   52SOL    HW2  941   1.035   0.450   0.132 -0.0187  0.6989 -1.2646
   53SOL     OW  942   1.634   3.066   2.702  0.0028 -0.0897  0.4161
   53SOL    HW1  943   1.616   3.063   2.608 -0.7576 -1.0717  0.5804
   53SOL    HW2  944   1.557   3.027   2.743 -0.6453  2.2655  1.6070
   54SOL     OW  945   3.201   0.110   2.387  0.1950 -0.0423  0.0521
   54SOL    HW1  946   3.191   0.108   2.292  1.1135 -0.5058 -0.0425
   54SOL    HW2  947   3.111   0.111   2.421 -0.1549 -1.4617 -0.7889
   55SOL     OW  948   0.254   2.959   1.377  0.2138  0.1779 -0.2446
   55SOL    HW1  949   0.227   2.882   1.328  0.5778  0.0647 -0.2633
   55SOL    HW2  950   0.324   2.928   1.435 -0.8279  0.0862  1.0294
   56SOL     OW  951   3.070   1.198   3.120  0.2252  0.1798 -0.2687
   56SOL    HW1  952   2.997   1.145   3.087  0.4477 -0.8003  0.7660
   56SOL    HW2  953   3.126   1.212   3.043 -0.2359 -0.4373 -0.7213
   57SOL     OW  954   2.226   2.326   2.463  0.0058 -0.1398  0.3197
   57SOL    HW1  955   2.144   2.282   2.445  1.2280 -2.9028  0.9486
   57SOL    HW2  956   2.293   2.269   2.426  1.6994  1.8273  0.1349
   58SOL     OW  957   1.989   1.454   3.325 -0.2722  0.1154 -0.1415
   58SOL    HW1  958   2.060   1.478   3.384  0.1605 -0.4661 -0.4093
   58SOL    HW2  959   1.911   1.453   3.381 -0.3015  1.9551 -0.0946
   59SOL     OW  960   1.005   2.408   2.927 -0.3722 -0.0679  0.1881
   59SOL    HW1  961   0.935   2.408   2.862 -0.2982  1.4208  0.0665
   59SOL    HW2  962   0.968   2.454   3.002  0.1329 -0.1762  0.5074
   60SOL     OW  963   0.887   0.010   0.822 -0.1558 -0.7157  0.3469
   60SOL    HW1  964   0.828  -0.009   0.894  0.6669 -0.3955  1.1292
   60SOL    HW2  965   0.913   0.102   0.835  0.4982 -0.8444  0.0270
   61SOL     OW  966   1.443   0.177   1.863 -0.5390 -0.9147  0.2347
   61SOL    HW1  967   1.380   0.245   1.887 -1.0046 -1.0193 -0.6301
   61SOL    HW2  968   1.485   0.210   1.784 -0.0341 -1.1746  0.3946
   62SOL     OW  969   2.117   0.551   3.272 -0.2090  0.8205  0.0835
   62SOL    HW1  970   2.131   0.494   3.348 -0.5743  0.8539  0.1780
   62SOL    HW2  971   2.196   0.604   3.266 -0.4717  1.3086  0.8676
   63SOL     OW  972   1.578   0.787   0.322 -0.1730  0.3851 -0.1323
   63SOL    HW1  973   1.486   0.781   0.297 -0.0953 -0.6426 -0.2358
   63SOL    HW2  974   1.622   0.815   0.242 -0.0623 -1.8670 -0.9414
   64SOL     OW  975   2.168   2.533   2.608 -0.4608  1.0817  0.2736
   64SOL    HW1  976   2.201   2.455   2.563 -0.0744 -0.2750  2.7284
   64SOL    HW2  977   2.235   2.553   2.673 -1.2084  2.6541  0.6032
   65SOL     OW  978   1.663   2.584   1.300 -0.1457 -0.1177 -0.2733
   65SOL    HW1  979   1.715   2.504   1.312  1.7128  0.9349 -0.8465
   65SOL    HW2  980   1.624   2.601   1.386  0.6838 -0.8133  0.2541
   66SOL     OW  981   1.596   1.002   2.395  0.6124 -0.0814 -0.0207
   66SOL    HW1  982   1.579   1.092   2.424  1.1168 -0.0679  0.2428
   66SOL    HW2  983   1.614   1.011   2.301 -1.4866 -0.1834 -0.4913
   67SOL     OW  984   0.054   3.170   2.000 -0.1398 -0.2934 -0.2673
   67SOL    HW1  985  -0.002   3.121   1.940  1.3419 -0.5827 -1.4989
   67SOL    HW2  986   0.036   3.133   2.086 -0.1567 -1.9697 -0.9581
   68SOL     OW  987   0.308   2.731   3.367 -0.9971  0.6734  0.2302
   68SOL    HW1  988   0.297   2.718   3.273 -0.7632 -1.1051  0.4091
   68SOL    HW2  989   0.392   2.690   3.388 -1.3339  0.4918  1.3106
   69SOL     OW  990   0.605   2.804   0.415 -0.1654 -0.0314 -0.0757
   69SOL    HW1  991   0.621   2.892   0.384 -2.3906  1.0349  1.4637
   69SOL    HW2  992   0.618   2.748   0.339  1.6701  1.5473 -0.9879
   70SOL     OW  993   1.351   0.147   0.689 -0.0053  0.6766  0.3799
   70SOL    HW1  994   1.364   0.054   0.706  0.4013  0.5040 -0.7922
   70SOL    HW2  995   1.286   0.150   0.620  1.2050  1.1799 -0.7810
   71SOL     OW  996   2.441   1.073   0.195 -0.0632  0.3764  0.7452
   71SOL    HW1  997   2.446   1.075   0.291 -0.1530  0.6006  0.7462
   71SOL    HW2  998   2.381   1.144   0.173 -0.3094  0.1035  0.5410
   72SOL     OW  999   1.739   2.516   2.775 -0.3970 -0.1118  0.2412
   72SOL    HW1 1000   1.760   2.444   2.716  0.2651  1.5828 -1.7045
   72SOL    HW2 1001   1.824   2.554   2.798 -0.5500 -1.1968  3.0607
   73SOL     OW 1002   1.548   1.961   3.059 -0.5150  0.2052  0.7298
   73SOL    HW1 1003   1.523   1.877   3.099  0.0095  0.2555  1.1774
   73SOL    HW2 1004   1.643   1.966   3.071 -0.6148  1.1213  1.2198
   74SOL     OW 1005   3.203   2.697   1.438  0.0748  0.1492 -0.1128
   74SOL    HW1 1006   3.227   2.643   1.362  0.2091  1.6762 -1.2101
   74SOL    HW2 1007   3.107   2.695   1.440  0.0541 -3.3267  2.3144
   75SOL     OW 1008   0.145   1.788   1.182  0.0241  0.0380 -0.3535
   75SOL    HW1 1009   0.199   1.710   1.183 -1.5209 -1.1395 -1.9252
   75SOL    HW2 1010   0.142   1.817   1.273 -1.2989 -3.1498  0.7464
   76SOL     OW 1011   1.003   0.621   1.104 -0.3638  0.4782 -0.0865
   76SOL    HW1 1012   0.960   0.604   1.188 -1.1516  3.4652  0.2346
   76SOL    HW2 1013   0.943   0.585   1.039 -0.4337 -0.6138  0.5546
   77SOL     OW 1014   0.206   1.478   0.217  0.3786  0.0639  0.3818
   77SOL    HW1 1015   0.133   1.502   0.274  0.9827  1.9215  0.4516
   77SOL    HW2 1016   0.284   1.502   0.266  0.9641  0.1825 -0.5757
   78SOL     OW 1017   0.597   2.256   3.069  0.0442  0.1370  0.3997
   78SOL    HW1 1018   0.617   2.332   3.015 -2.4973  1.0545  0.6228
   78SOL    HW2 1019   0.633   2.276   3.155  2.0466 -0.3063 -0.2877
   79SOL     OW 1020   0.630   0.383   1.219 -0.4179  0.0695  0.2491
   79SOL    HW1 1021   0.575   0.304   1.221  1.6248 -1.4420  0.6057
   79SOL    HW2 1022   0.633   0.412   1.310 -0.6609  0.1993  0.2178
   80SOL     OW 1023   0.775   2.956   3.016  0.4480  0.0116  0.3281
   80SOL    HW1 1024   0.851   2.901   2.998  1.3252  0.7898  1.5208
   80SOL    HW2 1025   0.798   3.041   2.980  0.3458  0.3680  1.0761
   81SOL     OW 1026   2.327   2.890   2.604  0.4717 -0.1146 -0.2484
   81SOL    HW1 1027   2.316   2.802   2.641 -0.6521 -1.0258 -2.5978
   81SOL    HW2 1028   2.421   2.906   2.611  0.9191 -2.1048 -1.0043
   82SOL     OW 1029   2.891   1.852   0.224 -0.6619 -0.6759 -0.6809
   82SOL    HW1 1030   2.938   1.933   0.206 -1.0601 -0.3976 -0.4704
   82SOL    HW2 1031   2.803   1.867   0.189 -0.4501 -1.3927 -1.5691
   83SOL     OW 1032   3.323   0.596   3.228 -0.0676 -0.2672 -0.3342
   83SOL    HW1 1033   3.239   0.594   3.274 -1.0922 -0.8328 -2.1458
   83SOL    HW2 1034   3.301   0.576   3.137  2.0587 -0.5921 -0.8229
   84SOL     OW 1035   0.088   2.520   0.105 -0.2339  0.4824 -0.2036
   84SOL    HW1 1036   0.157   2.516   0.038 -0.0671 -1.2233  0.0156
   84SOL    HW2 1037   0.013   2.477   0.064  0.1681 -1.4547  0.9963
   85SOL     OW 1038   3.066   0.937   0.773 -0.0321  0.2630 -0.0021
   85SOL    HW1 1039   3.029   1.014   0.729 -1.3393  0.0395  0.6423
   85SOL    HW2 1040   2.994   0.874   0.773  1.8680 -2.1895 -3.2621
   86SOL     OW 1041   2.642   3.174   1.968  0.9452 -0.2264 -0.3962
   86SOL    HW1 1042   2.604   3.132   1.890  0.9850 -0.4646 -0.2867
   86SOL    HW2 1043   2.692   3.248   1.933 -0.0013  0.3712 -0.5053
   87SOL     OW 1044   2.950   0.207   2.470  0.4281  0.9269  0.3475
   87SOL    HW1 1045   2.999   0.188   2.550  0.8001 -1.0297 -0.2919
   87SOL    HW2 1046   2.869   0.157   2.480  1.9200 -2.2681 -1.8977
   88SOL     OW 1047   0.375   1.044   0.432 -0.6553 -0.1694  0.2758
   88SOL    HW1 1048   0.321   1.111   0.390  0.6448 -0.3302 -1.7856
   88SOL    HW2 1049   0.371   0.969   0.372 -0.3672 -1.1850  1.4833
   89SOL     OW 1050   0.765   1.665   1.261  0.0391  0.0872  0.0175
   89SOL    HW1 1051   0.837   1.633   1.206  0.9198  1.5000  0.2943
   89SOL    HW2 1052   0.741   1.590   1.315  1.4575 -0.3635  0.0631
   90SOL     OW 1053   0.523   3.155   1.400 -0.5407  0.4649  0.0135
   90SOL    HW1 1054   0.616   3.136   1.415 -0.9083 -0.6358  0.9939
   90SOL    HW2 1055   0.504   3.116   1.315 -0.4791 -0.6893  0.5217
   91SOL     OW 1056   0.574   2.642   3.351 -0.0863 -0.1180  0.0100
   91SOL    HW1 1057   0.601   2.726   3.314 -1.0134 -0.5034 -1.6595
   91SOL    HW2 1058   0.635   2.578   3.313 -1.7881 -0.6824 -1.9957
   92SOL     OW 1059   0.975   2.781   2.704 -0.4753  0.0966 -0.1128
   92SOL    HW1 1060   0.965   2.779   2.799  0.1166 -1.7418 -0.0481
   92SOL    HW2 1061   1.048   2.842   2.689 -1.0695  0.9906  0.5325
   93SOL     OW 1062   2.074   1.879   1.001  0.2370 -0.1857 -0.2582
   93SOL    HW1 1063   2.021   1.802   1.020 -0.4911  1.0152  3.4496
   93SOL    HW2 1064   2.015   1.953   1.014  1.9769  1.0959  0.7766
   94SOL     OW 1065   0.469   1.932   3.239  0.4661 -0.6685  0.2998
   94SOL    HW1 1066   0.531   1.993   3.279  0.0849 -0.2670  0.2824
   94SOL    HW2 1067   0.520   1.887   3.172  0.5430  0.2380 -0.2735
   95SOL     OW 1068   0.268   2.072   1.069  0.2299 -0.3421 -0.1481
   95SOL    HW1 1069   0.213   2.053   1.145 -0.4466 -0.1395 -0.5784
   95SOL    HW2 1070   0.240   2.008   1.003 -1.2481  1.3272 -1.2157
   96SOL     OW 1071   3.055   0.430   1.220 -0.0013  0.0772  0.0838
   96SOL    HW1 1072   2.966   0.465   1.229 -0.5839 -1.4756  0.7567
   96SOL    HW2 1073   3.093   0.480   1.148 -0.9915  1.5957  0.5467
   97SOL     OW 1074   1.224   1.543   2.993 -0.8159  0.1505  0.0017
   97SOL    HW1 1075   1.196   1.592   2.916 -0.7196  0.4202  0.1372
   97SOL    HW2 1076   1.289   1.599   3.035  0.4829 -0.7890 -0.7106
   98SOL     OW 1077   0.622   1.164   1.384  0.4846 -0.5082 -0.3371
   98SOL    HW1 1078   0.662   1.148   1.470 -0.3276 -0.5240  0.0463
   98SOL    HW2 1079   0.561   1.091   1.372 -0.1079  0.0120 -0.5002
   99SOL     OW 1080   1.009   0.279   0.807  0.6912  0.0309 -0.0361
   99SOL    HW1 1081   0.958   0.357   0.783  0.3877 -0.3775 -0.7595
   99SOL    HW2 1082   1.079   0.312   0.864  0.1589  0.7304  0.2240
  100SOL     OW 1083   0.969   0.189   3.063 -0.1357 -0.1621 -0.1670
  100SOL    HW1 1084   1.041   0.158   3.008  0.7926  0.0994  0.8592
  100SOL    HW2 1085   0.892   0.187   3.006  0.6185 -0.7606 -1.1948
  101SOL     OW 1086   0.946   0.665   0.401 -0.3625  0.8263  0.2086
  101SOL    HW1 1087   1.029   0.682   0.446  0.5042  0.0418 -0.9999
  101SOL    HW2 1088   0.880   0.669   0.469  0.5020  2.6900  1.0175
  102SOL     OW 1089   0.434   1.675   1.214  0.1888  0.1293  0.2816
  102SOL    HW1 1090   0.524   1.642   1.222 -0.7018 -2.3802  0.7195
  102SOL    HW2 1091   0.412   1.706   1.302  0.6690  0.9853  0.1175
  103SOL     OW 1092   1.148   1.928   0.984 -0.6381  0.3000 -0.6003
  103SOL    HW1 1093   1.180   1.981   1.057  1.2090 -0.9481 -0.4094
  103SOL    HW2 1094   1.057   1.908   1.007 -1.0599  2.4763 -0.1997
  104SOL     OW 1095   1.927   2.865   1.366 -0.0320 -0.1874 -0.1057
  104SOL    HW1 1096   1.947   2.958   1.377  2.0787 -0.7419  1.1934
  104SOL    HW2 1097   1.856   2.849   1.427 -1.5187  0.8527 -1.4676
  105SOL     OW 1098   1.621   3.310   3.051  0.6126  0.5723  0.3562
  105SOL    HW1 1099   1.598   3.400   3.072 -1.3124  0.4484 -0.9589
  105SOL    HW2 1100   1.680   3.317   2.975  1.8240  0.7502  1.2870
  106SOL     OW 1101   2.093   1.052   0.114 -0.3438  0.6777 -0.1835
  106SOL    HW1 1102   2.147   1.129   0.097 -1.3867  1.3328 -0.5754
  106SOL    HW2 1103   2.086   1.009   0.028 -0.8161  0.8357 -0.2226
  107SOL     OW 1104   1.898   2.920   2.661  0.3663 -0.4868 -0.1072
  107SOL    HW1 1105   1.805   2.937   2.673  0.5920  0.5900  0.1885
  107SOL    HW2 1106   1.940   2.960   2.737  1.0899 -0.7833 -0.3424
  108SOL     OW 1107   3.307   1.324   1.320  0.0340  0.0148  0.1186
  108SOL    HW1 1108   3.367   1.327   1.246  0.6468  2.1600  0.6323
  108SOL    HW2 1109   3.352   1.270   1.385  1.2072  1.1575  0.2958
  109SOL     OW 1110   1.622   2.812   0.898 -0.5858  0.1380  0.2046
  109SOL    HW1 1111   1.660   2.728   0.925 -1.1243 -0.4049 -0.6754
  109SOL    HW2 1112   1.698   2.867   0.881 -0.1157 -0.9656 -1.6099
  110SOL     OW 1113   0.158   1.528   3.317  0.5201 -0.2179  0.5504
  110SOL    HW1 1114   0.085   1.590   3.311  0.2289 -0.6421 -0.6064
  110SOL    HW2 1115   0.171   1.516   3.411  0.4628  1.4397  0.7983
  111SOL     OW 1116   0.907   0.190   2.116 -0.2456 -0.1203 -0.6062
  111SOL    HW1 1117   0.972   0.137   2.161 -0.8483 -1.4053 -1.2080
  111SOL    HW2 1118   0.879   0.254   2.182  0.6800 -0.3638  0.0479
  112SOL     OW 1119   0.643   0.003   1.054 -0.4742 -0.4384  0.0821
  112SOL    HW1 1120   0.696  -0.002   1.134 -1.2602 -0.1782  0.6233
  112SOL    HW2 1121   0.595  -0.080   1.052  0.7459 -1.1630 -0.9918
  113SOL     OW 1122   0.802   1.194   1.025  0.5403 -0.0276 -0.2491
  113SOL    HW1 1123   0.873   1.130   1.014  0.1054 -1.1512  2.5757
  113SOL    HW2 1124   0.728   1.142   1.057 -0.4069  1.6429  0.3780
  114SOL     OW 1125   0.530   0.831   0.598  0.1338 -0.3781  0.2628
  114SOL    HW1 1126   0.446   0.874   0.616  0.5746  0.6997 -0.1352
  114SOL    HW2 1127   0.512   0.774   0.523 -0.3907 -0.6463  0.5905
  115SOL     OW 1128   2.266   1.170   3.179 -0.2302  0.0129 -0.3683
  115SOL    HW1 1129   2.312   1.101   3.226  0.0088  1.0082  0.9215
  115SOL    HW2 1130   2.305   1.252   3.211 -0.1327  0.7479 -2.2401
  116SOL     OW 1131   0.707   0.686   0.253  0.0964 -0.5962 -0.9244
  116SOL    HW1 1132   0.707   0.703   0.159 -0.2856  1.1587 -0.6549
  116SOL    HW2 1133   0.799   0.682   0.277  0.2018 -1.8026 -1.4697
  117SOL     OW 1134   0.490   2.367   1.188 -0.6651  0.4558  0.2412
  117SOL    HW1 1135   0.430   2.306   1.232 -1.0034  0.7731  0.2214
  117SOL    HW2 1136   0.433   2.425   1.138 -0.3496  0.8813  0.3697
  118SOL     OW 1137   1.054   1.371   0.178 -0.4229  0.5030  0.3330
  118SOL    HW1 1138   1.046   1.299   0.116 -2.6502 -1.5196  2.6755
  118SOL    HW2 1139   0.964   1.402   0.190 -0.3917 -0.2836  3.5731
  119SOL     OW 1140   2.874   1.766   0.940 -0.7926 -0.3269  0.9795
  119SOL    HW1 1141   2.939   1.719   0.992  0.6466  0.1813 -0.2642
  119SOL    HW2 1142   2.925   1.833   0.893 -2.1428 -0.1651 -0.3428
  120SOL     OW 1143   0.430   2.539   1.479 -0.0427  0.0009 -0.4034
  120SOL    HW1 1144   0.353   2.506   1.526  1.4680  1.0180  3.0872
  120SOL    HW2 1145   0.485   2.462   1.464 -0.7123 -0.3868 -0.9359
  121SOL     OW 1146   0.735   3.353   2.041  0.3434  0.0975 -0.7288
  121SOL    HW1 1147   0.797   3.421   2.066 -1.0236  1.0791  0.0606
  121SOL    HW2 1148   0.740   3.351   1.945  1.4029  0.3150 -0.6949
  122SOL     OW 1149   1.050   3.231   3.105  0.3800  0.4462  0.5631
  122SOL    HW1 1150   1.138   3.227   3.066  0.2287  0.0870  0.2485
  122SOL    HW2 1151   1.057   3.181   3.186  0.4290  0.2851  0.4606
  123SOL     OW 1152   2.214   0.714   1.148  0.5015  0.5906  0.1266
  123SOL    HW1 1153   2.261   0.708   1.232  0.4168  1.6370  0.2681
  123SOL    HW2 1154   2.129   0.675   1.166  1.2554 -1.2663 -0.1126
  124SOL     OW 1155   1.083   1.238   2.774  0.4984 -0.1557 -0.5007
  124SOL    HW1 1156   1.061   1.329   2.751 -0.7517  0.1586  1.6954
  124SOL    HW2 1157   1.016   1.186   2.730 -0.1273  0.1958  0.0044
  125SOL     OW 1158   0.268   1.190   1.258  0.2829 -0.6512  0.3664
  125SOL    HW1 1159   0.192   1.132   1.250  0.1757 -0.3322 -1.0996
  125SOL    HW2 1160   0.269   1.215   1.351 -1.7921 -0.1445  0.3002
  126SOL     OW 1161   3.076   1.375   0.309  0.6416 -0.0599 -0.3444
  126SOL    HW1 1162   3.121   1.403   0.389  0.1243 -0.6106  0.1451
  126SOL    HW2 1163   3.123   1.419   0.238  0.6669  1.0033  0.3121
  127SOL     OW 1164   2.482   0.486   1.601  0.6806 -0.1211  0.0087
  127SOL    HW1 1165   2.467   0.413   1.541  0.4920  0.8992 -1.2217
  127SOL    HW2 1166   2.505   0.444   1.684  2.1321 -1.5699 -1.0636
  128SOL     OW 1167   0.006   1.128   0.891  0.8533  0.0742  0.0801
  128SOL    HW1 1168  -0.010   1.034   0.895 -1.7747  0.4277 -0.2481
  128SOL    HW2 1169  -0.067   1.162   0.839  0.7979  2.4906  1.6083
  129SOL     OW 1170   3.337   0.867   0.835  0.0144  0.6537  0.2241
  129SOL    HW1 1171   3.370   0.783   0.800  1.3953  2.0964 -2.2543
  129SOL    HW2 1172   3.242   0.856   0.839  0.1193 -0.8494 -0.6331
  130SOL     OW 1173   1.107   2.137   0.337  0.7567 -0.0082  0.0844
  130SOL    HW1 1174   1.198   2.149   0.309  0.5470 -0.1001 -0.6593
  130SOL    HW2 1175   1.067   2.087   0.266  0.6197 -1.7257  1.3180
  131SOL     OW 1176   0.258   0.862   0.926  0.0879 -0.0134  0.1131
  131SOL    HW1 1177   0.290   0.895   0.842 -0.5522 -1.6400 -0.8243
  131SOL    HW2 1178   0.165   0.882   0.926 -0.0268 -0.5308  0.1650
  132SOL     OW 1179   1.646   2.299   1.660 -0.3159 -0.5156 -0.0434
  132SOL    HW1 1180   1.708   2.260   1.722  0.3071 -0.0233 -0.3313
  132SOL    HW2 1181   1.700   2.318   1.583 -0.4564  1.3404  0.2560
  133SOL     OW 1182   1.396   0.822   0.688 -0.3259  0.5822 -0.1731
  133SOL    HW1 1183   1.491   0.827   0.685 -0.3021  0.5463  0.3607
  133SOL    HW2 1184   1.369   0.907   0.723 -0.5082  0.7023 -0.6001
  134SOL     OW 1185   1.033   3.301   2.385  0.4825 -0.0802  0.3995
  134SOL    HW1 1186   0.962   3.319   2.447  0.1216  0.7856 -0.2517
  134SOL    HW2 1187   1.112   3.302   2.439 -0.0877 -2.8868  1.4903
  135SOL     OW 1188   2.308   2.380   0.710 -0.8653  0.4576 -0.5973
  135SOL    HW1 1189   2.383   2.331   0.675 -0.9889  0.6239 -1.1034
  135SOL    HW2 1190   2.268   2.320   0.773  1.5605  1.4939  2.1520
  136SOL     OW 1191   0.640   0.201   0.714  0.4132 -0.0995  0.7881
  136SOL    HW1 1192   0.702   0.241   0.653  0.4604 -0.8076  0.3610
  136SOL    HW2 1193   0.620   0.271   0.776  1.0697  0.3622  0.5008
  137SOL     OW 1194   0.062   1.307   0.558 -0.7178 -0.1166 -0.1706
  137SOL    HW1 1195   0.095   1.245   0.493 -1.2796 -0.4503 -0.1430
  137SOL    HW2 1196   0.126   1.302   0.630 -1.2537 -1.3940  0.2562
  138SOL     OW 1197   0.392   0.064   3.091 -0.1708  0.6841 -0.1567
  138SOL    HW1 1198   0.340   0.024   3.161 -0.2114  2.7690  1.0842
  138SOL    HW2 1199   0.327   0.097   3.028 -0.1709 -0.2473 -0.6602
  139SOL     OW 1200   0.992   1.866   2.184 -0.8054  0.3272  0.0201
  139SOL    HW1 1201   1.025   1.938   2.237  1.0110 -0.3209 -0.1522
  139SOL    HW2 1202   0.978   1.794   2.245  0.7509 -0.2425 -0.2501
  140SOL     OW 1203   3.084   0.576   0.957 -0.0186  0.2324  0.6263
  140SOL    HW1 1204   3.054   0.492   0.922 -0.6042  0.7173 -0.0710
  140SOL    HW2 1205   3.180   0.568   0.959  0.0920  0.4085 -1.7316
  141SOL     OW 1206   1.575   0.348   3.324  0.5986 -0.0532 -0.6159
  141SOL    HW1 1207   1.651   0.401   3.299  1.0584 -0.6487 -0.5104
  141SOL    HW2 1208   1.574   0.277   3.259 -0.6669  0.6815 -1.4371
  142SOL     OW 1209   2.301   0.172   3.001 -0.2703 -0.4389  0.0385
  142SOL    HW1 1210   2.260   0.117   3.068  1.4963 -1.1806  0.5707
  142SOL    HW2 1211   2.361   0.114   2.955  1.2878  0.9020  0.2792
  143SOL     OW 1212   0.746   0.707   0.714  0.0676  0.2811  0.6389
  143SOL    HW1 1213   0.802   0.785   0.711 -0.5245  0.7179  0.5900
  143SOL    HW2 1214   0.660   0.739   0.685 -0.6311 -0.0003  2.2979
  144SOL     OW 1215   0.925   1.647   0.739  0.0776 -0.5182  0.1816
  144SOL    HW1 1216   0.887   1.560   0.751  0.0227 -0.8131 -1.7719
  144SOL    HW2 1217   0.872   1.687   0.669 -0.2741  1.3397  1.4338
  145SOL     OW 1218   2.987   2.363   3.093  0.1733 -0.2209 -0.5365
  145SOL    HW1 1219   3.043   2.440   3.102 -0.0966  0.1606 -1.8835
  145SOL    HW2 1220   2.911   2.383   3.147 -0.5724  1.1548 -1.9952
  146SOL     OW 1221   2.155   2.326   0.301  0.2180  0.4946 -0.1816
  146SOL    HW1 1222   2.218   2.274   0.351 -0.1891 -0.5106 -0.6807
  146SOL    HW2 1223   2.072   2.277   0.308 -0.8019  2.3012  1.3174
  147SOL     OW 1224   3.200   1.805   0.260 -0.1492 -0.1931 -0.0181
  147SOL    HW1 1225   3.226   1.895   0.282  0.4826 -0.3764  0.0085
  147SOL    HW2 1226   3.106   1.811   0.244 -0.0009  0.6193 -0.7041
  148SOL     OW 1227   1.315   0.432   0.515  0.6571 -0.0351  0.4795
  148SOL    HW1 1228   1.402   0.440   0.476 -0.1841  0.8518 -1.3813
  148SOL    HW2 1229   1.279   0.352   0.475  0.2687  0.1385  0.4831
  149SOL     OW 1230   1.125   3.012   0.835  0.0699 -0.5193 -0.0083
  149SOL    HW1 1231   1.115   2.926   0.877  1.1632 -0.7530 -0.1951
  149SOL    HW2 1232   1.043   3.058   0.855 -0.1567 -1.2719  0.8661
  150SOL     OW 1233   3.249   0.976   0.523  0.3709  0.1983 -0.3924
  150SOL    HW1 1234   3.183   1.036   0.487 -0.9855 -0.5943  0.6983
  150SOL    HW2 1235   3.240   0.985   0.618 -2.1789 -3.9977  0.0047
  151SOL     OW 1236   0.670   1.757   3.049  0.2370  0.1423  0.0031
  151SOL    HW1 1237   0.658   1.728   3.139  2.3603 -1.0742 -0.0605
  151SOL    HW2 1238   0.763   1.776   3.041  0.1754 -0.1630 -2.0573
  152SOL     OW 1239   2.181   2.243   1.748  0.4011 -1.1911  0.2368
  152SOL    HW1 1240   2.204   2.169   1.804  0.4249 -1.4105 -0.0661
  152SOL    HW2 1241   2.129   2.300   1.805  2.7676 -0.0117  1.3835
  153SOL     OW 1242   2.111   2.298   1.474 -0.2799 -0.4827  0.4835
  153SOL    HW1 1243   2.133   2.273   1.563 -0.4332 -0.2220  0.5958
  153SOL    HW2 1244   2.178   2.361   1.448  0.3326 -1.2851  0.0613
  154SOL     OW 1245   1.557   1.843   1.933  0.5479  0.1206 -0.3341
  154SOL    HW1 1246   1.621   1.791   1.884  0.4971 -0.3362  0.0821
  154SOL    HW2 1247   1.498   1.779   1.972 -0.5730  0.5609 -1.2464
  155SOL     OW 1248   0.694   2.121   0.522 -0.2361 -0.3675  0.6377
  155SOL    HW1 1249   0.602   2.110   0.501 -0.4917 -0.0772  1.5450
  155SOL    HW2 1250   0.731   2.032   0.520 -1.2893 -0.9763  3.5400
  156SOL     OW 1251   1.754   1.773   0.616 -0.4780  0.2485  0.0574
  156SOL    HW1 1252   1.715   1.718   0.683  0.7522  1.3220  1.7430
  156SOL    HW2 1253   1.711   1.858   0.627  0.8245  0.8778  0.6094
  157SOL     OW 1254   2.174   2.515   1.012 -0.1429 -0.2285 -0.5844
  157SOL    HW1 1255   2.176   2.606   0.981 -1.3723 -0.2956 -0.9554
  157SOL    HW2 1256   2.264   2.494   1.035  0.0658  1.2808  0.0717
  158SOL     OW 1257   0.437   0.979   1.327 -0.1685 -0.0641  0.1463
  158SOL    HW1 1258   0.446   0.923   1.250 -1.9696  1.0713 -0.9943
  158SOL    HW2 1259   0.350   1.019   1.317 -1.4915 -1.5066  3.9145
  159SOL     OW 1260   1.228   3.078   2.907  0.1845  0.2776 -0.1143
  159SOL    HW1 1261   1.147   3.100   2.860  0.4134  0.0360 -0.6387
  159SOL    HW2 1262   1.205   3.000   2.958 -0.4435  1.3250  1.2445
  160SOL     OW 1263   1.179   2.593   0.763 -0.0969  0.2321  0.0555
  160SOL    HW1 1264   1.256   2.621   0.812 -0.2027  0.0915  0.3054
  160SOL    HW2 1265   1.180   2.647   0.684  1.3783 -1.1503 -0.9298
  161SOL     OW 1266   1.668   0.049   1.214  0.3276 -0.3479 -0.3515
  161SOL    HW1 1267   1.617   0.126   1.191  0.2341 -0.1633  0.4606
  161SOL    HW2 1268   1.613  -0.000   1.275  0.2219 -1.2663 -1.1532
  162SOL     OW 1269   1.245   0.318   1.979  0.3420  0.1668  0.1542
  162SOL    HW1 1270   1.238   0.394   2.037  0.0732  1.5067 -1.5639
  162SOL    HW2 1271   1.162   0.316   1.932 -0.6626 -2.6702  1.8198
  163SOL     OW 1272   1.614   2.016   0.615 -0.4742 -0.4010 -0.0596
  163SOL    HW1 1273   1.556   2.058   0.678 -1.4169  0.7662 -1.6417
  163SOL    HW2 1274   1.676   2.085   0.590 -0.2069 -0.8083 -0.5338
  164SOL     OW 1275   0.068   1.147   0.039 -0.1216 -0.2339  0.1204
  164SOL    HW1 1276   0.002   1.214   0.021  1.0117  0.6369 -0.9156
  164SOL    HW2 1277   0.143   1.171  -0.015  1.3480 -0.7591  1.8288
  165SOL     OW 1278   0.727   0.810   1.996  0.5389  0.4846  0.1264
  165SOL    HW1 1279   0.788   0.751   2.039 -1.2832 -2.3185 -0.8941
  165SOL    HW2 1280   0.656   0.822   2.059  0.0205  0.0346 -0.3572
  166SOL     OW 1281   1.084   1.151   2.370  0.0585 -0.3208 -0.2421
  166SOL    HW1 1282   1.017   1.086   2.390 -0.0452 -0.0343  0.3911
  166SOL    HW2 1283   1.161   1.100   2.347 -0.4316 -0.6543 -1.2112
  167SOL     OW 1284   0.596   0.381   0.945  0.2649 -0.6097  0.6573
  167SOL    HW1 1285   0.531   0.446   0.968 -0.3943 -0.8702 -0.4139
  167SOL    HW2 1286   0.610   0.331   1.026 -1.1119 -0.7591  0.8193
  168SOL     OW 1287   1.478   1.141   0.586 -0.0030 -0.2794 -0.8679
  168SOL    HW1 1288   1.562   1.134   0.631  0.6447 -0.1274 -2.0117
  168SOL    HW2 1289   1.415   1.159   0.656  0.8234 -0.9009  0.0763
  169SOL     OW 1290   2.420   2.127   2.388  0.1643 -0.4914  0.0532
  169SOL    HW1 1291   2.422   2.049   2.332  0.6315  0.5439 -1.4030
  169SOL    HW2 1292   2.508   2.134   2.423  0.7046  0.5037 -1.4345
  170SOL     OW 1293   1.722   0.822   0.051 -0.5953  0.0251 -0.4685
  170SOL    HW1 1294   1.743   0.891  -0.012  0.0816  0.6515  0.4195
  170SOL    HW2 1295   1.781   0.837   0.124 -0.6868 -1.2904 -0.0921
  171SOL     OW 1296   1.713   1.493   0.125 -0.0656  0.2096  0.3692
  171SOL    HW1 1297   1.619   1.513   0.120 -0.0500 -0.0011 -1.2161
  171SOL    HW2 1298   1.717   1.398   0.114  0.3916  0.3671 -1.0891
  172SOL     OW 1299   1.328   1.644   2.625  0.3067  0.4993  0.4130
  172SOL    HW1 1300   1.282   1.661   2.543 -0.9412  0.6288  1.1143
  172SOL    HW2 1301   1.390   1.717   2.632 -0.1289  0.9299 -0.0339
  173SOL     OW 1302   0.125   0.896   0.121  0.3469 -0.1481 -0.2697
  173SOL    HW1 1303   0.096   0.867   0.034 -0.6603 -0.8530  0.2854
  173SOL    HW2 1304   0.124   0.991   0.116 -0.7972 -0.1737 -0.6907
  174SOL     OW 1305   0.307   3.286   2.741 -0.0531 -0.2092 -0.2715
  174SOL    HW1 1306   0.225   3.268   2.787 -0.2013  1.6204  0.2673
  174SOL    HW2 1307   0.375   3.258   2.802 -0.2686 -0.5666 -0.1932
  175SOL     OW 1308   1.924   1.592   0.266  0.4033 -0.3028  0.2569
  175SOL    HW1 1309   1.961   1.534   0.332  0.4156 -0.5782  0.0095
  175SOL    HW2 1310   1.855   1.541   0.224 -1.3811  0.7275  1.7788
  176SOL     OW 1311   2.701   2.564   1.563  0.7029 -0.8466  0.2367
  176SOL    HW1 1312   2.685   2.592   1.473  0.2926 -0.9829  0.2650
  176SOL    HW2 1313   2.615   2.541   1.597  0.8356 -0.6557  0.7150
  177SOL     OW 1314   2.307   3.271   2.189 -0.2896 -0.0274 -0.1557
  177SOL    HW1 1315   2.262   3.241   2.268  1.2294 -1.4913  0.2204
  177SOL    HW2 1316   2.283   3.208   2.122 -0.0011  0.0598 -0.3435
  178SOL     OW 1317   1.100   3.187   1.729  0.4328  0.1593 -0.5279
  178SOL    HW1 1318   1.133   3.127   1.662 -0.1874  1.4475 -2.0383
  178SOL    HW2 1319   1.010   3.205   1.703 -0.1586 -0.0563  1.2197
  179SOL     OW 1320   1.440   0.959   2.715 -0.3214 -0.1870  0.1644
  179SOL    HW1 1321   1.468   1.051   2.713  0.0566 -0.3044 -0.6828
  179SOL    HW2 1322   1.350   0.961   2.683 -0.3831 -0.0914  0.3427
  180SOL     OW 1323   0.997   1.960   0.617  0.4047  0.2939  0.1547
  180SOL    HW1 1324   0.957   2.012   0.686 -0.4560 -0.3234  0.1352
  180SOL    HW2 1325   0.951   1.876   0.620  0.8677 -0.0062 -0.6742
  181SOL     OW 1326   0.221   0.580   3.370 -0.2864  0.1279 -0.7356
  181SOL    HW1 1327   0.253   0.669   3.355 -1.1301  0.5560 -0.1223
  181SOL    HW2 1328   0.145   0.572   3.312 -2.2952  1.0648  1.5754
  182SOL     OW 1329   2.193   2.705   2.059 -0.2713  0.1555  0.0568
  182SOL    HW1 1330   2.220   2.621   2.021  0.7670 -0.2675  1.6057
  182SOL    HW2 1331   2.136   2.680   2.132 -1.3082  0.8910 -0.4776
  183SOL     OW 1332   1.543   1.110   2.968 -0.3428  0.5891  0.0285
  183SOL    HW1 1333   1.505   1.151   2.890 -0.5594 -0.6143 -0.5311
  183SOL    HW2 1334   1.518   1.167   3.040 -0.9866  1.2016 -0.6605
  184SOL     OW 1335   1.390   1.228   2.785  0.2748  0.5025  0.3606
  184SOL    HW1 1336   1.434   1.313   2.785  0.7446  0.2663  0.9390
  184SOL    HW2 1337   1.297   1.250   2.789  0.3280  1.0038 -0.7558
  185SOL     OW 1338   1.587   2.451   0.655 -0.8101  0.4444  0.3257
  185SOL    HW1 1339   1.582   2.495   0.570  1.2001  0.3367  0.1024
  185SOL    HW2 1340   1.537   2.370   0.643  1.8246 -1.0452 -1.7936
  186SOL     OW 1341   1.995   1.432   0.786  0.3347  0.4109 -0.5762
  186SOL    HW1 1342   2.063   1.497   0.798 -0.8403  1.2956  2.0037
  186SOL    HW2 1343   2.000   1.377   0.864 -2.3459  1.0009  0.1059
  187SOL     OW 1344   1.871   1.933   0.297 -0.3042 -0.1131  0.3295
  187SOL    HW1 1345   1.883   2.027   0.282  1.3916 -0.6120 -1.8929
  187SOL    HW2 1346   1.783   1.926   0.334 -0.1976  2.3863  1.2663
  188SOL     OW 1347   1.708   1.378   0.697 -0.3238  0.2841 -0.1709
  188SOL    HW1 1348   1.776   1.394   0.631 -0.3535  1.4101  0.0497
  188SOL    HW2 1349   1.723   1.288   0.726  0.2660  0.0871 -1.0508
  189SOL     OW 1350   0.391   0.865   3.176  0.1578 -0.2085 -0.6618
  189SOL    HW1 1351   0.297   0.873   3.190  0.0262 -0.8051 -1.1615
  189SOL    HW2 1352   0.401   0.785   3.125  1.0934 -1.2004  0.9987
  190SOL     OW 1353   2.275   0.858   0.235 -0.0641  0.8750 -0.0589
  190SOL    HW1 1354   2.203   0.920   0.230 -0.1615  0.9331  1.5115
  190SOL    HW2 1355   2.349   0.904   0.196 -0.6057  1.2363 -0.6758
  191SOL     OW 1356   3.076   1.519   1.320  0.2338  0.4592 -0.3750
  191SOL    HW1 1357   3.027   1.487   1.396  1.1900  0.0521  0.0849
  191SOL    HW2 1358   3.150   1.458   1.311 -0.7902 -0.5591 -2.7117
  192SOL     OW 1359   3.278   1.871   1.109  0.4569 -0.2191 -0.2056
  192SOL    HW1 1360   3.356   1.821   1.132  0.4822 -1.0550 -1.9689
  192SOL    HW2 1361   3.209   1.804   1.103  0.2650  0.0704 -1.5581
  193SOL     OW 1362   1.956   2.372   0.889  0.9702 -0.1898 -0.7004
  193SOL    HW1 1363   2.043   2.401   0.917  0.3213  0.1413  1.1269
  193SOL    HW2 1364   1.939   2.293   0.940  0.8620 -1.2590 -2.3151
  194SOL     OW 1365   0.920   0.010   3.326  0.3284 -0.0095 -0.1249
  194SOL    HW1 1366   1.010   0.028   3.351  0.8071 -1.2804 -0.8462
  194SOL    HW2 1367   0.921   0.009   3.230 -0.2678 -0.8388 -0.1333
  195SOL     OW 1368   2.460   2.426   1.664 -0.0924  0.1808 -0.6949
  195SOL    HW1 1369   2.385   2.423   1.722 -0.4577 -2.4375 -1.1732
  195SOL    HW2 1370   2.425   2.453   1.579 -0.0669  1.1181 -0.4202
  196SOL     OW 1371   0.753   2.940   2.705 -0.0514 -0.3434 -0.0579
  196SOL    HW1 1372   0.821   2.882   2.670  0.8370  0.9970 -0.6581
  196SOL    HW2 1373   0.688   2.881   2.742  0.1188 -1.7722 -1.8783
  197SOL     OW 1374   1.500   2.840   0.207  0.2310  0.4216 -0.2697
  197SOL    HW1 1375   1.587   2.879   0.202  0.4397 -0.0831 -0.6110
  197SOL    HW2 1376   1.516   2.746   0.213 -0.2681  0.3773  0.5635
  198SOL     OW 1377   0.471   1.833   0.683 -0.1603  0.3198 -0.6021
  198SOL    HW1 1378   0.437   1.751   0.647 -0.2682  0.6265 -1.2226
  198SOL    HW2 1379   0.393   1.885   0.703 -0.1683 -0.4306  1.5723
  199SOL     OW 1380   1.666   0.581   2.733  0.5824 -0.0744 -0.4025
  199SOL    HW1 1381   1.622   0.622   2.808  0.0528  0.0963 -0.8030
  199SOL    HW2 1382   1.633   0.628   2.657  0.4112 -0.8465 -0.8174
  200SOL     OW 1383   1.448   2.101   1.913 -0.2381 -1.1450  0.9596
  200SOL    HW1 1384   1.433   2.121   1.820  0.3446 -0.7665  0.9411
  200SOL    HW2 1385   1.470   2.008   1.914 -1.4048 -1.4346  0.8603
  201SOL     OW 1386   2.252   1.620   0.448 -0.3369 -0.3481 -0.6059
  201SOL    HW1 1387   2.334   1.668   0.459  0.9732 -2.1082 -1.9712
  201SOL    HW2 1388   2.191   1.663   0.507  1.9248  0.2030  1.5260
  202SOL     OW 1389   3.131   0.429   1.503 -0.5059 -0.2253 -0.2224
  202SOL    HW1 1390   3.103   0.337   1.509  0.7568 -0.5940  0.3913
  202SOL    HW2 1391   3.171   0.437   1.417  0.0477 -0.4624  0.0057
  203SOL     OW 1392   1.097   1.069   0.127 -0.0532 -0.1108  0.0742
  203SOL    HW1 1393   1.181   1.114   0.129 -0.6299  1.2152 -1.8500
  203SOL    HW2 1394   1.111   0.994   0.070  0.0196 -0.3308  0.3818
  204SOL     OW 1395   0.312   1.331   0.686 -0.1569 -0.2616 -0.2295
  204SOL    HW1 1396   0.263   1.342   0.768 -2.0612  1.8667 -1.5466
  204SOL    HW2 1397   0.390   1.283   0.712 -2.2333 -2.6639  2.2700
  205SOL     OW 1398   2.149   3.368   1.527 -0.9203  0.6678 -0.4271
  205SOL    HW1 1399   2.161   3.460   1.551 -0.8397  0.2586  1.2235
  205SOL    HW2 1400   2.125   3.325   1.609  1.9430 -1.3139 -0.4727
  206SOL     OW 1401   3.338   3.021   2.949 -0.2685  0.5090  0.2731
  206SOL    HW1 1402   3.359   2.973   3.029 -1.1522 -0.8293 -0.2582
  206SOL    HW2 1403   3.243   3.036   2.955 -0.5348 -0.5350 -0.9802
  207SOL     OW 1404   0.948   0.253   1.841  0.2689 -0.8024 -0.2720
  207SOL    HW1 1405   0.905   0.337   1.823 -0.3339 -0.8906  0.7099
  207SOL    HW2 1406   0.966   0.255   1.935  1.8160 -1.0608 -0.5272
  208SOL     OW 1407   0.538   2.493   1.818  0.1437  0.3192  0.6615
  208SOL    HW1 1408   0.476   2.433   1.777 -0.1038  0.2813  1.0862
  208SOL    HW2 1409   0.604   2.435   1.858  1.0570  0.3771 -0.7035
  209SOL     OW 1410   0.371   3.151   1.895 -0.4079  0.2937 -0.0206
  209SOL    HW1 1411   0.418   3.069   1.886  1.0484  1.0806  0.1380
  209SOL    HW2 1412   0.304   3.133   1.962 -0.4748 -0.8946 -0.3920
  210SOL     OW 1413   1.103   2.252   1.756  0.4894 -0.4428 -0.7124
  210SOL    HW1 1414   1.049   2.264   1.834 -0.9382 -0.2363 -1.6884
  210SOL    HW2 1415   1.070   2.170   1.717  1.6669 -0.9205 -0.7287
  211SOL     OW 1416   0.537   1.231   0.834  0.6407  0.7259 -0.7729
  211SOL    HW1 1417   0.469   1.261   0.895  1.2049 -0.4492  0.4763
  211SOL    HW2 1418   0.587   1.167   0.884  1.5572  0.2374 -2.2713
  212SOL     OW 1419   1.358   2.498   1.119 -0.0521  0.3951 -0.2561
  212SOL    HW1 1420   1.283   2.452   1.159 -1.2291  0.5105 -2.2179
  212SOL    HW2 1421   1.385   2.561   1.186 -0.4613 -0.9462  1.2404
  213SOL     OW 1422   1.895   0.412   2.870  0.0198  0.8369  0.9309
  213SOL    HW1 1423   1.862   0.422   2.959 -1.8130  0.0338  0.4028
  213SOL    HW2 1424   1.836   0.466   2.817  0.7579  0.8886  0.1340
  214SOL     OW 1425   2.564   3.295   2.297  0.0332  0.3787  0.3220
  214SOL    HW1 1426   2.483   3.306   2.248  0.7014  0.7854 -0.7392
  214SOL    HW2 1427   2.609   3.223   2.253  0.1163 -0.0425  1.0881
  215SOL     OW 1428   1.890   2.991   3.128 -0.3131  0.3548  0.7093
  215SOL    HW1 1429   1.921   3.076   3.160  2.9133  0.4299 -2.0493
  215SOL    HW2 1430   1.944   2.928   3.176  0.5632  0.1794 -0.4739
  216SOL     OW 1431   1.345   0.415   0.165  0.2086 -0.2155 -0.2877
  216SOL    HW1 1432   1.374   0.419   0.074  0.2904  0.2104 -0.2436
  216SOL    HW2 1433   1.261   0.459   0.166  1.6432  2.7570  0.4023
  217SOL     OW 1434   0.414   3.041   3.268 -0.2296  0.5872  0.6366
  217SOL    HW1 1435   0.475   2.970   3.288 -0.3007  0.5242  0.6286
  217SOL    HW2 1436   0.466   3.121   3.278  0.3229  0.4706 -1.0645
  218SOL     OW 1437   1.399   0.550   3.132  0.3664 -0.2144  0.5050
  218SOL    HW1 1438   1.382   0.605   3.208  0.3468 -0.9646  1.0500
  218SOL    HW2 1439   1.357   0.467   3.152 -0.9885  0.0597 -1.0072
  219SOL     OW 1440   1.690   2.983   1.563 -0.5490 -0.0437  0.0242
  219SOL    HW1 1441   1.626   3.050   1.587 -0.5067 -0.0772  0.2299
  219SOL    HW2 1442   1.775   3.021   1.586 -0.5350 -0.2255  0.2810
  220SOL     OW 1443   2.193   2.521   0.499 -0.0836  0.2877  0.4261
  220SOL    HW1 1444   2.179   2.454   0.566 -2.6644  0.9520  0.6405
  220SOL    HW2 1445   2.194   2.472   0.417  0.7392 -0.2723  0.7569
  221SOL     OW 1446   0.644   0.710   2.694  0.7936 -0.4698 -0.1888
  221SOL    HW1 1447   0.600   0.664   2.765 -0.6889 -0.7274 -1.2247
  221SOL    HW2 1448   0.733   0.723   2.725  0.2596 -0.8267  1.5855
  222SOL     OW 1449   0.571   2.022   1.079  0.2863 -0.2437 -0.1231
  222SOL    HW1 1450   0.496   2.046   1.133  1.9331 -0.0413  2.2186
  222SOL    HW2 1451   0.576   1.927   1.086 -0.1986 -0.3356 -0.9355
  223SOL     OW 1452   1.715   3.302   0.985 -0.2799 -0.5273 -0.8456
  223SOL    HW1 1453   1.736   3.329   1.075  1.0003 -1.6973 -0.7421
  223SOL    HW2 1454   1.658   3.371   0.951  0.2806  0.6086  0.4275
  224SOL     OW 1455   0.713   1.806   0.565  0.2631  0.0749  0.4356
  224SOL    HW1 1456   0.705   1.808   0.469 -0.3271  1.8933  0.4833
  224SOL    HW2 1457   0.623   1.798   0.596  0.5601 -2.2122  0.8757
  225SOL     OW 1458   0.244   1.277   3.242 -0.0194  0.5273  0.2849
  225SOL    HW1 1459   0.201   1.363   3.244  0.4698  0.7669  0.5040
  225SOL    HW2 1460   0.320   1.289   3.186 -0.1238  0.1537  0.0633
  226SOL     OW 1461   0.301   0.147   1.608 -0.1995 -0.0422 -0.1136
  226SOL    HW1 1462   0.378   0.203   1.618 -0.5776  0.3567  0.5951
  226SOL    HW2 1463   0.244   0.170   1.681 -0.8114 -0.6336 -0.3906
  227SOL     OW 1464   2.842   0.796   0.511  0.0971  0.3915 -0.1145
  227SOL    HW1 1465   2.845   0.735   0.438  0.9572 -1.2197  1.2078
  227SOL    HW2 1466   2.846   0.883   0.470  0.3190 -0.4539 -1.9677
  228SOL     OW 1467   2.620   2.872   2.546 -0.2067 -0.7153 -0.5010
  228SOL    HW1 1468   2.688   2.819   2.585  0.6423 -0.1801 -1.2047
  228SOL    HW2 1469   2.651   2.962   2.556  0.0713 -0.5576 -2.3729
  229SOL     OW 1470   1.920   1.981   1.845  0.2638  0.1188  0.0608
  229SOL    HW1 1471   1.987   2.010   1.908 -0.5058 -0.7348  1.3319
  229SOL    HW2 1472   1.898   1.892   1.874 -0.8056  0.0674 -0.8534
  230SOL     OW 1473   1.196   1.745   0.784  0.2062 -0.5361  0.0706
  230SOL    HW1 1474   1.201   1.805   0.858 -0.6091 -0.7952  0.3495
  230SOL    HW2 1475   1.104   1.721   0.780  0.2323 -0.4752 -1.0745
  231SOL     OW 1476   3.224   3.207   0.078  0.1822  0.3172 -0.2127
  231SOL    HW1 1477   3.284   3.202   0.003  0.0864  0.0317 -0.2701
  231SOL    HW2 1478   3.246   3.290   0.120 -0.8749  1.2899 -1.4999
  232SOL     OW 1479   1.571   2.502   2.075 -0.1949  0.2876 -0.2318
  232SOL    HW1 1480   1.604   2.487   2.164  1.3184  1.2297 -0.5981
  232SOL    HW2 1481   1.520   2.583   2.081 -2.6545 -1.1802  0.3397
  233SOL     OW 1482   0.451   0.740   2.483 -0.9644 -0.5428  0.1239
  233SOL    HW1 1483   0.502   0.717   2.561  0.8337 -1.9390 -1.3677
  233SOL    HW2 1484   0.367   0.696   2.497  0.1409 -2.7520  0.2981
  234SOL     OW 1485   2.537   0.140   1.504  0.4553  0.5820 -0.8763
  234SOL    HW1 1486   2.516   0.047   1.497 -0.3949  0.7377 -0.5122
  234SOL    HW2 1487   2.503   0.165   1.590  1.6080  1.0014 -0.5121
  235SOL     OW 1488   0.486   3.332   0.232 -0.2645  0.0773 -0.3781
  235SOL    HW1 1489   0.525   3.388   0.299  0.5399  0.1797 -0.9208
  235SOL    HW2 1490   0.557   3.316   0.170 -0.4323 -1.6972 -0.1586
  236SOL     OW 1491   0.092   0.209   1.793  0.2580  0.0350  0.0146
  236SOL    HW1 1492   0.045   0.160   1.725 -2.6799  0.4654  1.5527
  236SOL    HW2 1493   0.094   0.149   1.868  0.0410  0.8814  0.7075
  237SOL     OW 1494   1.532   2.041   0.130 -0.1733 -0.2829 -0.2007
  237SOL    HW1 1495   1.567   1.967   0.181  1.8976  1.3986  1.0259
  237SOL    HW2 1496   1.607   2.071   0.078 -0.5385  1.7177  0.3399
  238SOL     OW 1497   1.461   0.052   2.116  0.1969 -0.3583 -0.0946
  238SOL    HW1 1498   1.439   0.105   2.039 -2.0309  1.4558  1.6285
  238SOL    HW2 1499   1.404  -0.024   2.110 -0.8995  0.3951  0.3122
  239SOL     OW 1500   1.451   2.390   2.759  0.2028  0.1117 -0.0763
  239SOL    HW1 1501   1.522   2.380   2.822 -1.6626  0.3170  2.1846
  239SOL    HW2 1502   1.456   2.482   2.732  2.1035 -0.3926 -1.7389
  240SOL     OW 1503   1.847   2.716   0.661 -0.4848  0.4914  0.0482
  240SOL    HW1 1504   1.773   2.772   0.639  1.2611  2.4471 -1.2916
  240SOL    HW2 1505   1.904   2.772   0.714  0.0302 -0.9741  1.0903
  241SOL     OW 1506   0.203   0.316   2.779  0.2164  0.5768  0.5645
  241SOL    HW1 1507   0.208   0.231   2.822  2.0844  1.0726  1.4422
  241SOL    HW2 1508   0.116   0.349   2.802 -1.0814 -1.5814 -0.8813
  242SOL     OW 1509   0.496   0.101   2.673  0.1129  0.3972 -0.3944
  242SOL    HW1 1510   0.561   0.042   2.634 -0.2381  1.1008 -2.0873
  242SOL    HW2 1511   0.434   0.042   2.716  1.7196 -0.3026  1.0997
  243SOL     OW 1512   0.702   1.244   2.575 -0.1302 -0.0894  0.1779
  243SOL    HW1 1513   0.671   1.270   2.661 -3.0944 -0.3242 -0.7030
  243SOL    HW2 1514   0.665   1.157   2.561 -0.9170  0.5097 -1.8378
  244SOL     OW 1515   0.826   2.344   2.018 -0.5265  1.1032 -0.2279
  244SOL    HW1 1516   0.843   2.250   2.014  4.1555  1.7505 -1.5657
  244SOL    HW2 1517   0.862   2.371   2.102 -0.1500  1.9051 -0.6396
  245SOL     OW 1518   1.752   2.541   0.902 -0.3321  0.0117 -0.1989
  245SOL    HW1 1519   1.747   2.559   0.808  0.0110  1.1555 -0.0090
  245SOL    HW2 1520   1.816   2.470   0.909  0.9840  1.0994 -0.7065
  246SOL     OW 1521   2.815   1.262   0.214  0.2140  0.1715 -1.1254
  246SOL    HW1 1522   2.801   1.206   0.138  2.9503 -2.7195  0.2420
  246SOL    HW2 1523   2.909   1.283   0.211  0.4587 -0.2306  1.5145
  247SOL     OW 1524   1.311   0.216   1.540  0.3728 -0.3910  0.6577
  247SOL    HW1 1525   1.383   0.196   1.480  0.7307 -1.9330  1.5452
  247SOL    HW2 1526   1.281   0.302   1.512  2.5891  0.3463  0.2780
  248SOL     OW 1527   1.152   3.318   0.951  0.6862  0.2311  0.4176
  248SOL    HW1 1528   1.086   3.311   0.882  0.3176  1.8227  0.5574
  248SOL    HW2 1529   1.234   3.290   0.909 -0.0775 -2.0911  0.3379
  249SOL     OW 1530   2.775   0.400   1.569  0.0675  0.1693 -0.2335
  249SOL    HW1 1531   2.843   0.449   1.615 -1.1781  0.2010  1.6792
  249SOL    HW2 1532   2.693   0.443   1.595 -0.8132 -0.8790 -1.1669
  250SOL     OW 1533   2.601   2.365   1.367  0.3826  0.1627  0.2149
  250SOL    HW1 1534   2.595   2.459   1.383  2.4788  0.8104 -2.1807
  250SOL    HW2 1535   2.651   2.358   1.286  0.2402 -3.0410  0.2966
  251SOL     OW 1536   0.679   0.664   1.149 -0.6690 -0.5893 -0.2390
  251SOL    HW1 1537   0.587   0.667   1.123 -0.8852 -1.2298  0.4224
  251SOL    HW2 1538   0.694   0.573   1.173  0.5746 -0.8647 -1.8617
  252SOL     OW 1539   0.781   2.676   1.937 -0.1358 -0.4129  0.6084
  252SOL    HW1 1540   0.718   2.687   2.008 -1.5895 -0.2760 -0.6502
  252SOL    HW2 1541   0.728   2.657   1.860  1.3740 -0.4010 -0.4921
  253SOL     OW 1542   2.807   0.818   0.847 -0.1970 -0.3412  0.6605
  253SOL    HW1 1543   2.789   0.724   0.840  0.6268 -0.4685  0.1577
  253SOL    HW2 1544   2.759   0.845   0.925 -1.5533 -0.8983  0.0557
  254SOL     OW 1545   3.090   3.282   2.016  0.3173  0.2150  0.1191
  254SOL    HW1 1546   3.099   3.198   2.061 -1.2484  1.2657  2.6466
  254SOL    HW2 1547   2.999   3.284   1.988 -0.1551  1.6534  1.5628
  255SOL     OW 1548   0.138   1.826   0.197  0.3706 -0.5310 -0.0165
  255SOL    HW1 1549   0.042   1.827   0.190  0.3061 -2.6786 -0.0970
  255SOL    HW2 1550   0.169   1.849   0.110 -0.1028 -1.2625 -0.3858
  256SOL     OW 1551   0.370   2.893   3.039  0.4835 -0.1206 -0.0465
  256SOL    HW1 1552   0.326   2.811   3.060  1.0326 -0.6461 -0.9242
  256SOL    HW2 1553   0.370   2.942   3.122 -1.4211 -0.2489  0.0761
  257SOL     OW 1554   0.027   3.015   2.696  0.1525 -0.4292 -0.1010
  257SOL    HW1 1555   0.013   2.978   2.783 -0.2470 -0.8952 -0.3568
  257SOL    HW2 1556   0.118   2.996   2.677 -0.2039 -1.8519 -0.4790
  258SOL     OW 1557   3.311   2.128   1.291  0.4786 -0.0806 -0.2463
  258SOL    HW1 1558   3.255   2.068   1.242 -0.5993 -0.0603  0.8997
  258SOL    HW2 1559   3.330   2.200   1.230 -0.3994 -0.3060 -0.7966
  259SOL     OW 1560   0.786   3.103   1.095  0.2481  0.0570 -0.2409
  259SOL    HW1 1561   0.816   3.127   1.007 -1.0674  1.8325 -0.2668
  259SOL    HW2 1562   0.696   3.074   1.082  0.2998 -0.4276  0.4332
  260SOL     OW 1563   0.459   2.267   0.815 -0.1293 -0.1694  0.5184
  260SOL    HW1 1564   0.523   2.259   0.886  1.7048 -1.2595 -1.1564
  260SOL    HW2 1565   0.469   2.357   0.784  1.1510 -0.5125 -0.1591
  261SOL     OW 1566   1.244   0.096   3.296 -0.0434 -0.3636  0.1201
  261SOL    HW1 1567   1.313   0.106   3.361 -0.2592  1.6915  0.0812
  261SOL    HW2 1568   1.260   0.009   3.258  0.8253 -1.0899  2.0196
  262SOL     OW 1569   1.208   2.176   2.566 -0.0809  0.5503 -0.4178
  262SOL    HW1 1570   1.268   2.222   2.507  0.1586  0.7325 -0.0402
  262SOL    HW2 1571   1.230   2.209   2.653 -1.8156  1.8481 -0.4087
  263SOL     OW 1572   2.596   1.350   0.869  0.1169  0.0654  0.0138
  263SOL    HW1 1573   2.650   1.417   0.826  0.9178  0.5032  1.6479
  263SOL    HW2 1574   2.648   1.270   0.862  1.1156  0.5141  1.7089
  264SOL     OW 1575   1.029   1.006   0.929 -0.2089 -0.4650 -0.3292
  264SOL    HW1 1576   1.023   0.998   1.025  1.4592 -0.4594 -0.1924
  264SOL    HW2 1577   1.082   0.931   0.903  1.5094  0.8916 -0.9324
  265SOL     OW 1578   0.299   0.175   0.362 -0.2493  0.1917 -0.0960
  265SOL    HW1 1579   0.319   0.218   0.278  0.6005  0.1681  0.0908
  265SOL    HW2 1580   0.384   0.154   0.399 -0.5774  1.1406  1.2787
  266SOL     OW 1581   2.746   1.557   0.796  0.0415  0.3524 -0.6480
  266SOL    HW1 1582   2.773   1.623   0.860 -1.6470  1.4628 -1.0199
  266SOL    HW2 1583   2.828   1.530   0.754  1.1342  0.0172  1.5176
  267SOL     OW 1584   0.768   2.429   2.804 -0.3687  0.7968  0.1768
  267SOL    HW1 1585   0.679   2.417   2.771 -0.0559  1.4083 -0.9551
  267SOL    HW2 1586   0.768   2.518   2.841 -0.4989  0.4084  1.1492
  268SOL     OW 1587   0.285   2.647   3.114 -0.0824  0.5012  0.0604
  268SOL    HW1 1588   0.319   2.597   3.039 -3.0218  2.3670 -2.8009
  268SOL    HW2 1589   0.201   2.606   3.134  1.1762 -0.7857  3.4438
  269SOL     OW 1590   0.087   2.711   2.850  0.1274  0.1156  0.0104
  269SOL    HW1 1591   0.144   2.637   2.833 -0.6742 -0.0875 -1.9971
  269SOL    HW2 1592   0.091   2.723   2.945  1.9556 -1.1033  0.1262
  270SOL     OW 1593   1.840   2.944   2.193  0.0508 -0.0109  0.2501
  270SOL    HW1 1594   1.792   3.027   2.193 -1.1170 -0.6669  0.6735
  270SOL    HW2 1595   1.842   2.918   2.101  0.8849  0.7273  0.0431
  271SOL     OW 1596   2.153   2.082   0.613 -0.0258 -0.1540  0.1362
  271SOL    HW1 1597   2.226   2.095   0.552 -0.0655  2.2561  0.5047
  271SOL    HW2 1598   2.160   1.990   0.640  2.1650 -0.2880 -0.7133
  272SOL     OW 1599   1.873   2.694   1.130  0.3227 -0.5578  0.3321
  272SOL    HW1 1600   1.834   2.648   1.055  0.6539 -1.7621  0.8634
  272SOL    HW2 1601   1.812   2.679   1.202 -0.8060  1.9332 -0.0142
  273SOL     OW 1602   1.198   0.779   2.846  0.9557  0.1246 -0.2157
  273SOL    HW1 1603   1.196   0.829   2.765 -1.8861 -0.7535 -0.8169
  273SOL    HW2 1604   1.193   0.844   2.915 -2.0841  0.8575 -0.9605
  274SOL     OW 1605   1.670   3.191   3.306  0.1919 -0.0170  0.5520
  274SOL    HW1 1606   1.761   3.161   3.314  0.5491  0.8391 -0.1276
  274SOL    HW2 1607   1.665   3.229   3.219 -0.7685  0.1407  0.6678
  275SOL     OW 1608   1.402   2.836   1.783  0.0315 -0.5354  0.0762
  275SOL    HW1 1609   1.337   2.788   1.732 -0.7312  0.0781  0.4429
  275SOL    HW2 1610   1.373   2.825   1.874 -0.7677  1.4334  0.1127
  276SOL     OW 1611   3.187   2.406   3.362  0.3221  0.0706  0.3922
  276SOL    HW1 1612   3.194   2.475   3.296  1.3172  1.6966  2.0633
  276SOL    HW2 1613   3.098   2.373   3.354  1.1041 -1.6702 -3.4106
  277SOL     OW 1614   0.422   0.279   2.001  0.3416  0.0696 -0.1524
  277SOL    HW1 1615   0.379   0.281   2.086  0.8104 -0.2159  0.0922
  277SOL    HW2 1616   0.351   0.294   1.938 -0.1103 -0.3763  0.2474
  278SOL     OW 1617   1.824   0.511   0.020 -0.2233 -0.3518 -0.2362
  278SOL    HW1 1618   1.808   0.605   0.030  0.2346 -0.2244 -0.6136
  278SOL    HW2 1619   1.881   0.505  -0.057 -1.3376 -1.0496 -1.0279
  279SOL     OW 1620   1.425   0.573   2.474 -0.1281 -0.3956  0.2248
  279SOL    HW1 1621   1.390   0.597   2.387  2.1184 -0.2788 -0.7125
  279SOL    HW2 1622   1.479   0.648   2.499  0.0623 -0.8726  1.2854
  280SOL     OW 1623   1.547   0.078   2.388  0.1395 -0.1362 -0.6844
  280SOL    HW1 1624   1.632   0.121   2.381 -0.1344  0.7136  0.7159
  280SOL    HW2 1625   1.507   0.088   2.302  0.7186  1.0548 -0.8271
  281SOL     OW 1626   3.157   0.563   2.979  0.0463  0.0376 -0.5496
  281SOL    HW1 1627   3.103   0.629   3.022 -1.6346 -1.8063  0.2857
  281SOL    HW2 1628   3.123   0.559   2.889 -0.7704 -0.6315 -0.2190
  282SOL     OW 1629   3.231   2.869   1.649 -0.1156 -0.1056  0.0116
  282SOL    HW1 1630   3.278   2.936   1.600 -0.4235  0.1176  0.0172
  282SOL    HW2 1631   3.247   2.788   1.601  1.1034 -0.2168  0.5713
  283SOL     OW 1632   1.339   2.975   0.694 -0.1176 -0.2583  0.0343
  283SOL    HW1 1633   1.365   2.888   0.725  0.2397 -0.7453 -1.5370
  283SOL    HW2 1634   1.255   2.991   0.736 -0.0991 -1.2743  0.5003
  284SOL     OW 1635   2.327   0.720   3.310  0.5199 -0.5969  0.4657
  284SOL    HW1 1636   2.391   0.669   3.360  0.9912  0.5787  1.0905
  284SOL    HW2 1637   2.352   0.811   3.323 -0.2468 -0.1836 -0.7145
  285SOL     OW 1638   1.343   2.307   3.326 -0.4010  0.1566 -0.1390
  285SOL    HW1 1639   1.378   2.388   3.288 -0.3666  1.3156  2.1980
  285SOL    HW2 1640   1.359   2.241   3.259  2.1519  1.5173 -1.0231
  286SOL     OW 1641   2.860   2.962   1.832 -0.0068 -0.3291  0.2420
  286SOL    HW1 1642   2.909   2.977   1.913  0.4175 -2.4245  0.4464
  286SOL    HW2 1643   2.877   2.870   1.811  0.7616  0.4042 -2.8218
  287SOL     OW 1644   2.410   3.239   1.500 -0.1114 -0.0319 -0.1485
  287SOL    HW1 1645   2.327   3.287   1.500  1.2921  2.6030 -0.7903
  287SOL    HW2 1646   2.442   3.245   1.410  1.3724  0.1437  0.3593
  288SOL     OW 1647   1.320   2.334   2.323 -0.0404 -0.3302 -0.2628
  288SOL    HW1 1648   1.381   2.323   2.250  1.9276 -0.6069  1.3197
  288SOL    HW2 1649   1.286   2.423   2.313  0.7483 -0.1082 -1.0984
  289SOL     OW 1650   0.904   1.853   1.037 -0.0379  0.1514  0.0875
  289SOL    HW1 1651   0.876   1.927   1.090  0.9217 -0.7993  2.0411
  289SOL    HW2 1652   0.824   1.822   0.996 -0.6877  1.4297  0.3330
  290SOL     OW 1653   0.382   2.107   1.438  0.0077  0.4884 -0.0006
  290SOL    HW1 1654   0.427   2.185   1.468  1.2051  0.3981 -1.4466
  290SOL    HW2 1655   0.452   2.046   1.413 -0.8542  0.2702 -2.1365
  291SOL     OW 1656   0.589   0.089   1.435  0.1160 -0.0086  0.1552
  291SOL    HW1 1657   0.646   0.138   1.494 -1.1476  0.5597  0.9395
  291SOL    HW2 1658   0.647   0.024   1.395  1.5088  1.1515  0.1970
  292SOL     OW 1659   0.901   1.710   1.975 -0.0559  0.6108 -0.6863
  292SOL    HW1 1660   0.864   1.628   2.008  2.6309 -0.4865 -0.0974
  292SOL    HW2 1661   0.903   1.767   2.052 -1.1282  0.9438 -0.8922
  293SOL     OW 1662   3.275   1.315   3.278 -0.1922  0.1437  0.2389
  293SOL    HW1 1663   3.206   1.261   3.239 -0.9363 -0.6153  2.4682
  293SOL    HW2 1664   3.266   1.400   3.234 -1.9952 -0.2019 -0.1312
  294SOL     OW 1665   0.062   2.319   3.237 -0.3619  0.3484  0.3048
  294SOL    HW1 1666   0.141   2.269   3.219 -1.2600 -0.8017 -0.5500
  294SOL    HW2 1667   0.063   2.389   3.172  0.3606  0.8579  0.8392
  295SOL     OW 1668   1.360   0.340   2.854  0.5196 -0.2995 -0.4487
  295SOL    HW1 1669   1.390   0.428   2.875  2.4622 -0.8285 -0.8790
  295SOL    HW2 1670   1.405   0.317   2.773 -0.5782 -1.3924 -0.7867
  296SOL     OW 1671   2.523   0.128   1.771  1.0348 -0.6048 -0.8552
  296SOL    HW1 1672   2.583   0.055   1.754  0.3608 -1.6953  1.1613
  296SOL    HW2 1673   2.464   0.096   1.839 -0.7952  1.0245 -1.5540
  297SOL     OW 1674   2.111   2.551   1.275 -0.0453 -0.4009  0.2012
  297SOL    HW1 1675   2.016   2.543   1.284 -0.1052  1.1912  1.2737
  297SOL    HW2 1676   2.127   2.538   1.181 -1.3206 -0.6100 -0.0075
  298SOL     OW 1677   1.564   0.099   2.653  0.3569 -0.3005 -0.4579
  298SOL    HW1 1678   1.567   0.061   2.566  1.1558 -0.6827 -0.2785
  298SOL    HW2 1679   1.543   0.191   2.639  2.5393  0.1344 -1.2317
  299SOL     OW 1680   1.191   0.528   2.144 -0.1577 -0.0788 -0.3161
  299SOL    HW1 1681   1.217   0.619   2.158  1.3129 -0.7598  2.0157
  299SOL    HW2 1682   1.166   0.496   2.230  1.1828 -2.3920 -0.6947
  300SOL     OW 1683   1.202   1.630   0.173  0.0226  0.3377  0.8566
  300SOL    HW1 1684   1.202   1.534   0.171 -0.6798  0.2979 -2.0988
  300SOL    HW2 1685   1.292   1.654   0.150 -0.2947  0.3027 -0.5312
  301SOL     OW 1686   2.766   0.558   0.982  0.0563  1.0593  0.0079
  301SOL    HW1 1687   2.755   0.546   1.077 -0.8660 -1.2121 -0.3050
  301SOL    HW2 1688   2.859   0.543   0.967 -0.1239 -0.6985  0.3770
  302SOL     OW 1689   0.056   0.228   2.506 -0.0933  0.1535  0.1695
  302SOL    HW1 1690  -0.006   0.184   2.448 -0.0259  0.3679 -0.0652
  302SOL    HW2 1691   0.006   0.243   2.587 -0.4616  0.6396 -0.1382
  303SOL     OW 1692   0.653   0.937   0.911 -0.5070 -0.2455 -0.3145
  303SOL    HW1 1693   0.733   0.885   0.907  0.0800  0.6772 -0.9796
  303SOL    HW2 1694   0.624   0.944   0.820 -0.6972  0.3883 -0.2123
  304SOL     OW 1695   1.826   2.024   3.073  0.2106  0.3101  0.2128
  304SOL    HW1 1696   1.840   2.078   2.996 -0.6372  1.2796  0.7168
  304SOL    HW2 1697   1.913   2.018   3.113  0.9295 -1.3170 -1.4918
  305SOL     OW 1698   1.962   3.083   1.523  0.4854 -0.1587 -0.1076
  305SOL    HW1 1699   1.977   3.159   1.467 -0.2629 -0.1272 -0.2681
  305SOL    HW2 1700   2.049   3.059   1.554  1.3490 -1.7189 -3.2804
  306SOL     OW 1701   2.941   1.184   0.715 -0.3150 -0.4251 -0.0054
  306SOL    HW1 1702   2.936   1.276   0.692  0.5460 -0.0621  1.1972
  306SOL    HW2 1703   2.852   1.159   0.738 -0.6456 -0.0509 -0.8271
  307SOL     OW 1704   0.870   1.318   2.357  0.5339 -0.2131  0.1453
  307SOL    HW1 1705   0.815   1.290   2.430 -0.8519  1.1199 -0.3317
  307SOL    HW2 1706   0.943   1.257   2.357 -0.5916 -1.6307  1.2438
  308SOL     OW 1707   2.829   1.622   0.364 -0.4652  0.7761  0.0151
  308SOL    HW1 1708   2.802   1.710   0.339 -0.8272  1.2583  1.9216
  308SOL    HW2 1709   2.917   1.612   0.328 -1.8214  0.3634 -3.6144
  309SOL     OW 1710   2.192   2.203   0.911  0.2382 -0.0592 -0.6368
  309SOL    HW1 1711   2.208   2.120   0.865  0.4629 -0.3276 -0.0869
  309SOL    HW2 1712   2.236   2.192   0.995 -0.3026  0.3665 -0.2955
  310SOL     OW 1713   1.030   2.753   0.906 -0.0856  0.3834  0.2000
  310SOL    HW1 1714   0.963   2.726   0.844 -0.6134 -0.5240  1.1334
  310SOL    HW2 1715   1.103   2.693   0.891 -0.0054  0.5085  0.0910
  311SOL     OW 1716   0.346   1.412   1.011  0.5837 -0.0736 -0.2800
  311SOL    HW1 1717   0.407   1.392   1.082  1.0679 -0.8569 -0.9027
  311SOL    HW2 1718   0.355   1.506   0.997  0.9165 -0.0151  0.2931
  312SOL     OW 1719   0.442   2.588   2.870  0.2993 -0.3142  0.2754
  312SOL    HW1 1720   0.442   2.671   2.821  1.0575  0.5665  1.7083
  312SOL    HW2 1721   0.476   2.524   2.807  3.1630  1.1638  0.1668
  313SOL     OW 1722   0.139   1.628   0.690  0.3874  0.5648 -0.3392
  313SOL    HW1 1723   0.163   1.719   0.702 -0.3621  0.7640 -0.3005
  313SOL    HW2 1724   0.133   1.616   0.595  0.3002  0.6048 -0.3386
  314SOL     OW 1725   1.983   3.053   2.860 -0.1642 -0.3927  0.2813
  314SOL    HW1 1726   1.977   3.148   2.855 -0.1846 -0.4236 -0.4198
  314SOL    HW2 1727   1.946   3.031   2.946 -2.9290  0.0188 -0.6911
  315SOL     OW 1728   0.038   3.052   1.537  0.2610 -0.0938 -0.4317
  315SOL    HW1 1729   0.110   3.019   1.483  0.3642 -0.1714 -0.2483
  315SOL    HW2 1730  -0.020   3.097   1.475  0.7806  0.5072 -0.4908
  316SOL     OW 1731   0.980   1.530   3.141 -0.1437  0.6086 -0.1078
  316SOL    HW1 1732   0.940   1.609   3.104 -0.5071  0.4121 -0.1364
  316SOL    HW2 1733   1.074   1.540   3.122 -0.2681  0.7239 -0.6919
  317SOL     OW 1734   0.388   1.986   1.704 -0.1134 -0.8716  0.1128
  317SOL    HW1 1735   0.328   2.023   1.769  1.1140  0.4877  0.5382
  317SOL    HW2 1736   0.348   2.007   1.620 -1.8847 -2.9204  0.3397
  318SOL     OW 1737   2.441   2.921   2.925  0.4468  0.5159  0.8754
  318SOL    HW1 1738   2.521   2.872   2.903 -0.0622  0.3377 -0.7071
  318SOL    HW2 1739   2.452   3.005   2.880 -0.0464  0.6654  1.0373
  319SOL     OW 1740   0.999   2.909   0.485  0.2384  0.0925 -0.8632
  319SOL    HW1 1741   0.922   2.965   0.496 -0.6952 -1.2507 -0.1838
  319SOL    HW2 1742   0.988   2.868   0.399  0.0180 -0.3144 -0.6487
  320SOL     OW 1743   1.760   0.341   0.816 -0.9588  0.0650  0.6003
  320SOL    HW1 1744   1.755   0.372   0.726 -0.8511  1.2391  0.9870
  320SOL    HW2 1745   1.771   0.420   0.869  2.0828 -0.7582  1.4310
  321SOL     OW 1746   0.909   1.053   2.646 -0.0853 -0.0660  0.3379
  321SOL    HW1 1747   0.894   1.007   2.563 -0.1323  1.0070 -0.2689
  321SOL    HW2 1748   0.839   1.022   2.704  0.3565 -1.3475  0.2141
  322SOL     OW 1749   1.728   1.093   0.697  0.2287 -0.4975 -0.1296
  322SOL    HW1 1750   1.771   1.051   0.772  0.0137 -0.1116  0.2140
  322SOL    HW2 1751   1.775   1.060   0.621  0.7887 -0.4916  0.2068
  323SOL     OW 1752   1.856   2.183   2.848  0.3422  0.1659  0.2311
  323SOL    HW1 1753   1.830   2.218   2.763 -0.9842  1.3417  1.0738
  323SOL    HW2 1754   1.899   2.257   2.892  0.5604 -0.2779  0.7746
  324SOL     OW 1755   0.499   1.818   0.347  0.4970  0.0559 -0.1314
  324SOL    HW1 1756   0.576   1.818   0.291  0.8865 -0.9053  0.3760
  324SOL    HW2 1757   0.472   1.726   0.352  0.2940  0.1558  1.0005
  325SOL     OW 1758   1.983   2.045   2.110 -0.1362 -0.6862  0.4782
  325SOL    HW1 1759   1.964   1.996   2.190 -1.4300 -1.7845 -0.4425
  325SOL    HW2 1760   1.940   2.130   2.123  2.6183  0.5648  2.3307
  326SOL     OW 1761   0.976   1.570   1.120  0.2252 -0.6994  0.4470
  326SOL    HW1 1762   0.923   1.516   1.062 -1.2493  1.1123 -0.0112
  326SOL    HW2 1763   0.998   1.647   1.067  1.5091 -0.4402  1.3235
  327SOL     OW 1764   0.632   1.580   3.270 -0.4615  0.5482 -0.8445
  327SOL    HW1 1765   0.725   1.556   3.267  0.1066  2.5086 -0.5247
  327SOL    HW2 1766   0.615   1.598   3.363 -1.2787 -0.1072 -0.8489
  328SOL     OW 1767   0.833   1.352   0.388 -0.3299  0.1658  0.2588
  328SOL    HW1 1768   0.810   1.266   0.353 -0.2705  0.0417  0.5249
  328SOL    HW2 1769   0.924   1.344   0.415 -0.9380 -0.3837  2.3709
  329SOL     OW 1770   0.851   0.406   2.288 -0.0271 -0.4493  0.2654
  329SOL    HW1 1771   0.935   0.404   2.334  0.5313  2.4768 -0.4314
  329SOL    HW2 1772   0.788   0.437   2.353 -0.1790 -0.7503  0.2636
  330SOL     OW 1773   3.093   1.666   1.091  0.2477  0.0347 -0.4605
  330SOL    HW1 1774   3.086   1.616   1.173  0.6814  0.1776 -0.3341
  330SOL    HW2 1775   3.164   1.623   1.043 -0.7191 -0.7368 -1.2573
  331SOL     OW 1776   1.213   2.562   1.389 -0.3997 -0.4838  0.1840
  331SOL    HW1 1777   1.187   2.637   1.335  0.1439 -1.6340 -1.7568
  331SOL    HW2 1778   1.236   2.601   1.474 -0.1152  1.5547 -0.7707
  332SOL     OW 1779   0.750   0.500   1.763 -0.1382  0.2472 -0.3012
  332SOL    HW1 1780   0.752   0.486   1.857 -0.7497  1.7105 -0.0508
  332SOL    HW2 1781   0.692   0.574   1.750  1.4516  1.3481 -1.6519
  333SOL     OW 1782   1.121   1.931   3.154  0.1905 -0.1843  0.0738
  333SOL    HW1 1783   1.183   1.951   3.084 -1.3693 -2.5966 -2.1750
  333SOL    HW2 1784   1.176   1.903   3.227  1.8269  0.0862 -1.0070
  334SOL     OW 1785   3.214   1.507   0.577  0.2112 -0.1772  0.1826
  334SOL    HW1 1786   3.292   1.453   0.586 -0.1853 -0.8396 -0.2370
  334SOL    HW2 1787   3.245   1.588   0.536  0.5741 -0.7170 -0.6294
  335SOL     OW 1788   1.992   0.890   2.975  0.0995 -0.1828 -0.6323
  335SOL    HW1 1789   2.041   0.959   2.930  0.9645  0.4057  1.1262
  335SOL    HW2 1790   1.903   0.900   2.943  0.3095  1.4139 -0.8232
  336SOL     OW 1791   1.470   2.524   3.206  0.1060 -0.3035 -0.6786
  336SOL    HW1 1792   1.565   2.519   3.194  0.3972  1.3424  0.5304
  336SOL    HW2 1793   1.447   2.612   3.178 -0.8941 -0.3263  0.0098
  337SOL     OW 1794   0.975   1.075   1.469 -0.1525 -0.8072  0.1341
  337SOL    HW1 1795   1.068   1.085   1.488  0.4609 -1.0271 -2.3902
  337SOL    HW2 1796   0.971   1.001   1.408 -1.8039 -0.0047 -0.8092
  338SOL     OW 1797   0.411   2.143   2.832 -0.5204  0.1022  0.1262
  338SOL    HW1 1798   0.346   2.165   2.899 -2.1224 -0.9463 -1.0041
  338SOL    HW2 1799   0.471   2.083   2.875 -0.0975  1.2934  1.2737
  339SOL     OW 1800   0.851   3.108   0.808 -0.3803  0.5884 -0.4506
  339SOL    HW1 1801   0.809   3.180   0.761 -2.0140 -1.4635 -2.3400
  339SOL    HW2 1802   0.849   3.035   0.746  1.1821 -1.1051  1.3868
  340SOL     OW 1803   0.125   0.462   0.380  0.2634  0.4679  0.2849
  340SOL    HW1 1804   0.183   0.485   0.308 -0.4309 -0.4408 -0.5944
  340SOL    HW2 1805   0.115   0.543   0.430  1.1270  0.9933 -0.3570
  341SOL     OW 1806   2.590   1.044   0.415 -0.1753  0.3402 -0.1332
  341SOL    HW1 1807   2.612   1.008   0.329 -0.7721 -1.4161  0.4037
  341SOL    HW2 1808   2.589   0.968   0.474  1.0787  1.5900  1.6336
  342SOL     OW 1809   1.195   0.109   2.917  0.2408  0.3929 -0.6547
  342SOL    HW1 1810   1.249   0.186   2.901 -0.1316  1.3943  2.3997
  342SOL    HW2 1811   1.252   0.048   2.964 -0.4109  0.1974 -0.1030
  343SOL     OW 1812   2.066   2.827   0.234  0.3378  0.3779 -0.5985
  343SOL    HW1 1813   2.026   2.741   0.219 -0.3731  0.6734 -0.4504
  343SOL    HW2 1814   2.030   2.855   0.319  1.7931  0.1371  0.1309
  344SOL     OW 1815   3.216   0.131   2.085  0.3662  0.7136  0.0869
  344SOL    HW1 1816   3.190   0.041   2.065  2.4518  0.3492 -1.3064
  344SOL    HW2 1817   3.148   0.185   2.044 -1.2531 -0.1664  1.4671
  345SOL     OW 1818   3.271   0.605   0.207 -0.4521 -0.3089 -0.3027
  345SOL    HW1 1819   3.338   0.640   0.266 -0.7044 -0.5890  0.1515
  345SOL    HW2 1820   3.309   0.526   0.171  0.1038  0.3936 -1.3003
  346SOL     OW 1821   0.427   0.825   0.200 -0.2644  0.2348  0.5848
  346SOL    HW1 1822   0.358   0.861   0.145 -0.2663  0.2814  0.6181
  346SOL    HW2 1823   0.506   0.874   0.176  0.1577 -1.0483 -0.7731
  347SOL     OW 1824   0.774   2.427   3.269  0.2925  0.0493 -0.0398
  347SOL    HW1 1825   0.846   2.446   3.210  1.1683 -1.7751  0.3621
  347SOL    HW2 1826   0.814   2.377   3.340 -1.4547 -1.6535 -0.1717
  348SOL     OW 1827   1.253   2.650   1.631  0.3323  0.3491 -0.0111
  348SOL    HW1 1828   1.174   2.685   1.671 -0.4615 -1.1694 -0.2022
  348SOL    HW2 1829   1.268   2.566   1.674  1.9007  0.6379  0.0792
  349SOL     OW 1830   1.059   2.236   1.091 -0.3860 -0.3536 -0.1331
  349SOL    HW1 1831   0.968   2.249   1.067 -0.4068  0.9536  0.5926
  349SOL    HW2 1832   1.055   2.191   1.175 -0.3458 -0.9071 -0.4222
  350SOL     OW 1833   0.538   0.588   0.437 -0.2965 -0.4280 -0.5495
  350SOL    HW1 1834   0.595   0.630   0.372  0.1851  0.2838  0.3045
  350SOL    HW2 1835   0.481   0.531   0.386 -0.5678  0.8190 -1.6858
  351SOL     OW 1836   0.749   0.449   0.578 -1.0818 -0.4057  0.4441
  351SOL    HW1 1837   0.751   0.528   0.632  0.2631 -1.4790  2.0647
  351SOL    HW2 1838   0.672   0.461   0.522 -1.4886  1.5896  1.3222
  352SOL     OW 1839   1.478   2.708   0.465 -0.2298 -0.2359 -0.0799
  352SOL    HW1 1840   1.460   2.629   0.414 -1.3197  0.0478 -0.1517
  352SOL    HW2 1841   1.395   2.730   0.506  0.3326  0.2607  0.8230
  353SOL     OW 1842   2.413   2.443   1.124 -0.5209  0.0532  0.4898
  353SOL    HW1 1843   2.476   2.513   1.138  0.5430 -1.0187  1.2027
  353SOL    HW2 1844   2.378   2.423   1.210 -1.1439 -0.0041  0.2315
  354SOL     OW 1845   0.434   2.218   0.459 -0.5045  0.1397 -0.0463
  354SOL    HW1 1846   0.386   2.260   0.531 -0.8239  1.3292 -0.9109
  354SOL    HW2 1847   0.414   2.273   0.383  0.4709 -0.6300 -0.8760
  355SOL     OW 1848   1.909   2.121   1.625  0.0561  0.2985  0.3784
  355SOL    HW1 1849   1.920   2.075   1.709  0.4502 -1.1673 -0.4437
  355SOL    HW2 1850   1.998   2.132   1.592 -0.1847 -1.8499 -1.2157
  356SOL     OW 1851   1.284   3.278   1.910 -0.0254 -0.4031  0.1531
  356SOL    HW1 1852   1.321   3.366   1.903  1.3251 -0.9909 -0.3539
  356SOL    HW2 1853   1.225   3.270   1.835  0.1531 -0.0793 -0.0223
  357SOL     OW 1854   0.023   0.785   0.367  0.3139  0.1153  0.1826
  357SOL    HW1 1855   0.073   0.836   0.304 -0.5081 -1.6427 -2.0267
  357SOL    HW2 1856  -0.030   0.850   0.413  1.0385  1.4809 -0.8235
  358SOL     OW 1857   1.375   3.259   0.442 -0.2886 -0.2915  0.5502
  358SOL    HW1 1858   1.391   3.168   0.420  1.0037 -0.3592  1.6579
  358SOL    HW2 1859   1.403   3.308   0.365 -0.6460 -0.7922  0.0909
  359SOL     OW 1860   0.939   1.779   3.038 -0.0036  0.0363 -0.2603
  359SOL    HW1 1861   0.996   1.792   2.961  0.1139 -2.1153 -0.5889
  359SOL    HW2 1862   0.978   1.834   3.106  1.1700  0.3223 -1.1248
  360SOL     OW 1863   1.473   2.164   0.821  0.0686 -0.0297  0.2224
  360SOL    HW1 1864   1.385   2.134   0.799 -0.0092  0.4695 -0.1548
  360SOL    HW2 1865   1.464   2.258   0.834  0.6218  0.0888 -0.2112
  361SOL     OW 1866   0.819   2.388   1.754  0.2254 -0.2631 -0.1455
  361SOL    HW1 1867   0.829   2.382   1.849  1.6423 -2.3978 -0.3564
  361SOL    HW2 1868   0.899   2.430   1.724  1.3395 -2.5383 -0.5813
  362SOL     OW 1869   1.704   2.826   2.994  0.5622 -0.1202 -0.9530
  362SOL    HW1 1870   1.743   2.913   3.010  0.0673 -0.2472  1.2411
  362SOL    HW2 1871   1.778   2.766   3.001  0.3638 -0.1821  1.3251
  363SOL     OW 1872   0.297   2.958   2.152  0.0827  0.4241 -0.5198
  363SOL    HW1 1873   0.347   3.002   2.220  0.4953 -0.6395 -0.1132
  363SOL    HW2 1874   0.214   2.934   2.195  1.1553 -2.1411  0.3293
  364SOL     OW 1875   1.738   0.927   2.871  0.0987  0.1015 -0.3156
  364SOL    HW1 1876   1.682   0.995   2.908  1.8039  1.0547  0.6460
  364SOL    HW2 1877   1.692   0.899   2.792 -1.0912  1.7382 -0.2643
  365SOL     OW 1878   0.169   3.254   1.679 -0.3423 -0.0292  0.2851
  365SOL    HW1 1879   0.127   3.172   1.652  0.5691 -0.5912  0.5124
  365SOL    HW2 1880   0.196   3.237   1.770  1.2370 -0.0645 -0.1583
  366SOL     OW 1881   0.969   1.623   2.319  0.1436 -0.2129 -0.0647
  366SOL    HW1 1882   0.914   1.604   2.396  0.0521 -0.5227 -0.2057
  366SOL    HW2 1883   0.919   1.589   2.245  0.3960 -0.2338 -0.2258
  367SOL     OW 1884   0.686   2.646   2.991  0.2728  0.4101 -0.6377
  367SOL    HW1 1885   0.598   2.623   2.959  0.4061  0.3996 -1.0022
  367SOL    HW2 1886   0.675   2.733   3.029 -0.1220 -0.0319  0.2774
  368SOL     OW 1887   0.828   2.669   0.713  0.4964 -0.2196 -0.4640
  368SOL    HW1 1888   0.816   2.603   0.645 -1.8949 -1.0776  0.6792
  368SOL    HW2 1889   0.774   2.743   0.685  0.6616  0.0004 -0.2080
  369SOL     OW 1890   0.944   1.788   1.519  0.3283 -0.0302 -0.0031
  369SOL    HW1 1891   1.007   1.741   1.463  0.3622 -1.3539  1.0895
  369SOL    HW2 1892   0.884   1.829   1.458  1.6183  0.3622 -1.0581
  370SOL     OW 1893   1.466   2.736   1.170 -0.1847 -0.7257 -0.4998
  370SOL    HW1 1894   1.478   2.827   1.195 -0.5902 -0.5461 -0.9393
  370SOL    HW2 1895   1.525   2.687   1.227  0.7765 -0.1099 -0.9357
  371SOL     OW 1896   0.217   2.442   1.986 -0.2458  0.3557  0.5091
  371SOL    HW1 1897   0.245   2.530   2.013 -1.4553  0.6507  0.8554
  371SOL    HW2 1898   0.121   2.447   1.982 -0.2813 -0.6607 -0.4896
  372SOL     OW 1899   2.717   0.223   2.029  0.4450  0.0966  0.4410
  372SOL    HW1 1900   2.808   0.239   2.005  1.2183 -2.9802  0.8358
  372SOL    HW2 1901   2.685   0.160   1.964 -0.9219 -0.0267  1.1791
  373SOL     OW 1902   1.069   0.013   2.699 -1.0574 -0.7333 -0.3497
  373SOL    HW1 1903   1.156  -0.010   2.666 -1.3106  0.1785 -1.7606
  373SOL    HW2 1904   1.085   0.057   2.782 -0.1462 -0.4996 -0.6370
  374SOL     OW 1905   2.333   2.542   1.437 -0.1806  0.0950 -0.5334
  374SOL    HW1 1906   2.392   2.617   1.423 -1.0441  1.0547  0.7678
  374SOL    HW2 1907   2.255   2.565   1.387 -0.4207  0.0221 -0.1867
  375SOL     OW 1908   0.534   0.292   1.744  0.6973 -0.3594  0.4511
  375SOL    HW1 1909   0.582   0.368   1.710  0.9843 -1.3609 -1.5263
  375SOL    HW2 1910   0.539   0.301   1.839  1.3702  1.6805  0.2651
  376SOL     OW 1911   2.485   2.549   0.879 -0.7093  0.3419 -0.4536
  376SOL    HW1 1912   2.424   2.574   0.809 -1.5479 -1.4118 -0.3927
  376SOL    HW2 1913   2.444   2.474   0.921  1.4012 -0.7548 -0.2579
  377SOL     OW 1914   0.589   0.781   2.236  0.0858 -0.5527 -0.0503
  377SOL    HW1 1915   0.512   0.785   2.292 -0.3822 -2.0623 -0.5645
  377SOL    HW2 1916   0.617   0.690   2.239  0.3189 -0.5772 -1.8897
  378SOL     OW 1917   0.743   3.026   1.523 -0.3711 -0.6381 -0.1644
  378SOL    HW1 1918   0.778   3.018   1.612 -1.8454 -1.3880  0.3832
  378SOL    HW2 1919   0.753   2.939   1.484 -0.5320 -0.5457 -0.4187
  379SOL     OW 1920   2.906   1.063   0.463  0.0660  0.1587  0.1632
  379SOL    HW1 1921   2.935   1.098   0.548  1.7691  0.8531 -0.6642
  379SOL    HW2 1922   2.819   1.099   0.451  0.3169  1.1131  1.0370
  380SOL     OW 1923   2.846   0.294   2.837 -0.5871 -0.0807 -0.6993
  380SOL    HW1 1924   2.798   0.215   2.815 -0.9007  0.2889 -1.3772
  380SOL    HW2 1925   2.836   0.351   2.761  0.5767  0.1737 -0.6916
  381SOL     OW 1926   1.716   2.089   3.330  0.2901  0.2656  0.0911
  381SOL    HW1 1927   1.735   2.043   3.248  1.6942 -0.7881  0.9584
  381SOL    HW2 1928   1.801   2.120   3.361 -0.0928 -0.0563  1.5505
  382SOL     OW 1929   2.208   2.569   0.169 -0.1367  0.0481 -0.4446
  382SOL    HW1 1930   2.113   2.574   0.182 -0.1508 -0.2317 -0.4306
  382SOL    HW2 1931   2.227   2.475   0.168  0.4114  0.1127  1.4602
  383SOL     OW 1932   1.630   2.884   0.593 -0.7603 -0.4468  0.3628
  383SOL    HW1 1933   1.574   2.961   0.582 -0.1230 -0.0075  0.0970
  383SOL    HW2 1934   1.583   2.814   0.547 -0.3056  0.3113 -1.3593
  384SOL     OW 1935   0.805   3.015   1.890 -0.0489 -0.4104  0.4611
  384SOL    HW1 1936   0.819   2.990   1.981  0.0642 -2.3561 -0.0629
  384SOL    HW2 1937   0.711   3.004   1.877 -0.2859  1.1149  0.6596
  385SOL     OW 1938   0.712   1.295   2.851  0.6071  0.0710  0.1923
  385SOL    HW1 1939   0.678   1.382   2.874  2.0702  0.3169  1.5991
  385SOL    HW2 1940   0.793   1.287   2.902  0.2803 -2.3024  0.4459
  386SOL     OW 1941   0.634   2.224   0.213 -0.0488 -0.0076  0.4282
  386SOL    HW1 1942   0.551   2.272   0.226 -0.2793  0.2590 -1.6607
  386SOL    HW2 1943   0.634   2.157   0.281 -0.1412  2.3407  2.9335
  387SOL     OW 1944   1.469   2.434   0.347 -0.2859 -0.4152  0.0432
  387SOL    HW1 1945   1.520   2.491   0.290  0.9181 -0.0520  1.4153
  387SOL    HW2 1946   1.434   2.366   0.289  0.1293  0.4447 -1.2514
  388SOL     OW 1947   2.201   1.849   0.756  0.6461 -0.4734 -0.0512
  388SOL    HW1 1948   2.163   1.846   0.843  2.6909 -0.7934  0.8924
  388SOL    HW2 1949   2.293   1.869   0.771  0.6575  1.7161 -2.2841
  389SOL     OW 1950   0.832   2.715   2.415  0.5112 -0.0682 -0.2119
  389SOL    HW1 1951   0.859   2.678   2.499  0.7227  2.3282  0.8453
  389SOL    HW2 1952   0.736   2.705   2.414  0.4742  0.1708  0.4778
  390SOL     OW 1953   1.112   0.561   3.041  0.5058  0.4475 -0.0118
  390SOL    HW1 1954   1.142   0.606   2.963  0.6290 -1.8265 -1.3730
  390SOL    HW2 1955   1.187   0.509   3.070  0.5652  1.5002  1.8544
  391SOL     OW 1956   0.677   0.448   2.017  0.0255  0.0737 -0.1148
  391SOL    HW1 1957   0.596   0.403   2.037 -0.3811  0.9889  0.3682
  391SOL    HW2 1958   0.728   0.445   2.098  1.4902 -2.4733 -1.0317
  392SOL     OW 1959   1.860   0.743   0.976 -0.4727  0.5811  0.4641
  392SOL    HW1 1960   1.795   0.674   0.959 -0.2652  1.2361 -4.1956
  392SOL    HW2 1961   1.944   0.698   0.970 -0.3926  0.7913 -0.0245
  393SOL     OW 1962   2.816   1.428   1.194  0.6394  0.1155 -0.3921
  393SOL    HW1 1963   2.836   1.338   1.168  2.0073 -0.0624  1.0850
  393SOL    HW2 1964   2.897   1.459   1.236 -0.0467  1.7919 -0.2359
  394SOL     OW 1965   0.468   0.015   2.389  0.6438 -0.0879  0.1425
  394SOL    HW1 1966   0.407   0.076   2.430  0.8170  0.3360 -0.2282
  394SOL    HW2 1967   0.436   0.006   2.299  0.9086 -0.1542  0.0531
  395SOL     OW 1968   0.953   2.729   0.272 -0.1974  0.1654  0.5503
  395SOL    HW1 1969   1.014   2.664   0.306  0.9162  0.7073 -0.3282
  395SOL    HW2 1970   0.879   2.678   0.240  0.1130 -0.5704  0.9803
  396SOL     OW 1971   2.485   3.184   2.839 -0.1978 -0.0197 -0.0427
  396SOL    HW1 1972   2.560   3.243   2.846  2.4036 -2.9404 -1.0824
  396SOL    HW2 1973   2.450   3.201   2.751  1.7208 -1.1998 -1.1088
  397SOL     OW 1974   1.864   1.272   0.181 -0.0895  0.8434 -0.0517
  397SOL    HW1 1975   1.894   1.200   0.125 -0.7161  0.7048 -0.2224
  397SOL    HW2 1976   1.906   1.256   0.266  0.1237  0.5263 -0.2144
  398SOL     OW 1977   1.388   3.033   2.008 -0.5344 -0.2674  0.0211
  398SOL    HW1 1978   1.374   3.118   1.965  0.3851 -0.1226 -0.0090
  398SOL    HW2 1979   1.300   3.007   2.037 -0.8908  0.5089 -0.3106
  399SOL     OW 1980   3.056   0.021   2.641 -0.4829 -0.4575  0.0962
  399SOL    HW1 1981   2.999   0.013   2.718  0.1454  1.3175  0.8065
  399SOL    HW2 1982   3.144   0.006   2.675 -0.0230  1.9292  0.1225
  400SOL     OW 1983   1.122   1.373   0.446 -0.0742  0.2123  0.1080
  400SOL    HW1 1984   1.217   1.384   0.449 -0.3018  2.7390  0.7763
  400SOL    HW2 1985   1.102   1.371   0.352  0.6525 -1.0760 -0.0527
  401SOL     OW 1986   0.486   3.266   1.677  0.3057  0.4355 -0.2183
  401SOL    HW1 1987   0.550   3.334   1.696 -0.2349  1.5268 -2.0060
  401SOL    HW2 1988   0.468   3.225   1.761  3.3879  0.0046  0.3643
  402SOL     OW 1989   2.395   1.794   1.117 -0.5269  0.1362 -0.3905
  402SOL    HW1 1990   2.390   1.713   1.067  1.0163 -0.3927  0.2530
  402SOL    HW2 1991   2.416   1.766   1.206 -0.6465  1.2090 -0.0083
  403SOL     OW 1992   1.355   2.999   0.386 -0.3096 -0.3286  0.1464
  403SOL    HW1 1993   1.417   2.949   0.333 -1.1968 -1.5221  0.1929
  403SOL    HW2 1994   1.330   2.940   0.456 -0.7159  0.5069  0.7227
  404SOL     OW 1995   1.932   2.591   0.229 -0.1030  0.0862 -0.5500
  404SOL    HW1 1996   1.888   2.578   0.313 -1.8044  0.4494 -1.3464
  404SOL    HW2 1997   1.880   2.542   0.166  0.6216  0.5539 -1.5532
  405SOL     OW 1998   0.469   2.586   0.535  0.0598 -0.0145  0.1090
  405SOL    HW1 1999   0.503   2.675   0.521 -0.1188  0.7841  3.6809
  405SOL    HW2 2000   0.545   2.529   0.524  1.2325  1.0969  1.8963
  406SOL     OW 2001   3.051   3.158   2.457  0.4204 -0.0906  0.3963
  406SOL    HW1 2002   2.994   3.195   2.389  0.2174 -1.1128 -0.0102
  406SOL    HW2 2003   3.075   3.233   2.511 -1.9971  0.2659  1.0776
  407SOL     OW 2004   1.155   1.801   2.456  0.5527 -0.1364 -0.3487
  407SOL    HW1 2005   1.109   1.742   2.397 -0.2733  0.4798 -0.3385
  407SOL    HW2 2006   1.140   1.888   2.420 -1.6508  0.4886  1.7620
  408SOL     OW 2007   1.575   2.545   2.443  0.3618 -0.2750  1.0337
  408SOL    HW1 2008   1.528   2.568   2.523  2.3548 -1.4883  2.6262
  408SOL    HW2 2009   1.590   2.451   2.449  1.8584 -0.1517 -0.0295
  409SOL     OW 2010   0.488   1.475   1.723  0.3965 -0.5112  0.5249
  409SOL    HW1 2011   0.497   1.569   1.743 -0.5947  0.1243 -1.6569
  409SOL    HW2 2012   0.402   1.452   1.756 -0.0902 -0.1801 -0.4882
  410SOL     OW 2013   0.470   3.366   2.114  0.1886  0.1746 -0.1164
  410SOL    HW1 2014   0.564   3.371   2.102  0.3886  0.8670  1.5198
  410SOL    HW2 2015   0.438   3.453   2.091  0.1853  0.4919  1.0322
  411SOL     OW 2016   2.103   2.628   3.049  0.3702 -0.1903  0.0191
  411SOL    HW1 2017   2.082   2.639   2.956  0.6292  0.2111  0.0045
  411SOL    HW2 2018   2.134   2.714   3.076  1.0844 -0.5234  0.2729
  412SOL     OW 2019   2.908   3.345   2.886 -0.2720  0.5686 -0.3248
  412SOL    HW1 2020   2.933   3.253   2.892 -0.8767  0.3175 -1.4878
  412SOL    HW2 2021   2.937   3.383   2.969 -0.0173 -0.6612  0.1659
  413SOL     OW 2022   0.405   2.439   0.299 -0.4203 -0.1962  0.0861
  413SOL    HW1 2023   0.418   2.512   0.359  3.5246  0.5061 -1.2894
  413SOL    HW2 2024   0.388   2.481   0.214 -1.4502 -1.0297 -0.1428
  414SOL     OW 2025   3.229   0.285   2.738 -0.4419  0.7204 -0.6533
  414SOL    HW1 2026   3.241   0.309   2.830  0.2201 -0.7037 -0.3513
  414SOL    HW2 2027   3.219   0.190   2.739  0.2300  0.6115 -2.1202
  415SOL     OW 2028   2.204   3.221   3.011 -0.0253  0.5823  0.2304
  415SOL    HW1 2029   2.127   3.226   2.955 -0.3649 -0.4506  0.5959
  415SOL    HW2 2030   2.246   3.138   2.989  1.0793  1.1957 -0.0712
  416SOL     OW 2031   0.188   2.472   1.569 -0.3172  0.0691 -0.0161
  416SOL    HW1 2032   0.138   2.539   1.616  0.0911 -0.3577  1.0544
  416SOL    HW2 2033   0.191   2.398   1.630  0.3689 -0.4374 -0.6577
  417SOL     OW 2034   0.991   1.997   1.702  0.1924  0.2570  0.1106
  417SOL    HW1 2035   0.986   1.908   1.668 -0.4845 -0.5524  2.1987
  417SOL    HW2 2036   0.904   2.033   1.689 -0.1538 -0.1580  1.1980
  418SOL     OW 2037   1.910   0.802   0.642 -0.2545  0.2723 -0.6150
  418SOL    HW1 2038   1.983   0.848   0.682  1.2875 -1.6814 -1.0267
  418SOL    HW2 2039   1.875   0.864   0.578  1.1406  1.2101 -0.5155
  419SOL     OW 2040   0.202   1.804   3.273 -0.7980 -0.1540 -0.0773
  419SOL    HW1 2041   0.205   1.714   3.239 -1.3158 -0.4329  0.5945
  419SOL    HW2 2042   0.294   1.831   3.278 -0.6924 -0.0739 -1.7291
  420SOL     OW 2043   0.893   0.307   0.136 -0.5596 -0.2297  0.2009
  420SOL    HW1 2044   0.888   0.211   0.142 -2.0555 -0.1803  0.0788
  420SOL    HW2 2045   0.803   0.335   0.124 -0.2330  1.2629  0.9726
  421SOL     OW 2046   0.602   3.049   0.219  0.1120 -0.6370 -0.1506
  421SOL    HW1 2047   0.511   3.045   0.190  0.2207 -0.6297 -0.4984
  421SOL    HW2 2048   0.627   3.141   0.210  0.5866 -0.8724 -1.4235
  422SOL     OW 2049   0.687   3.221   2.697 -0.2266 -0.0187 -0.6220
  422SOL    HW1 2050   0.642   3.241   2.778 -0.9716 -0.6219 -0.8712
  422SOL    HW2 2051   0.699   3.126   2.699  1.6549  0.1843 -0.2607
  423SOL     OW 2052   2.715   2.871   1.593 -0.8031  0.4274  0.1961
  423SOL    HW1 2053   2.805   2.840   1.601 -0.4119  1.0185 -1.4751
  423SOL    HW2 2054   2.673   2.846   1.675  1.0659  0.7462  1.3004
  424SOL     OW 2055   0.840   0.895   3.249 -0.0119 -0.2343  0.3051
  424SOL    HW1 2056   0.903   0.966   3.234 -0.4308  0.6677  2.3951
  424SOL    HW2 2057   0.894   0.820   3.273  0.3689  0.6059  2.3619
  425SOL     OW 2058   1.983   0.556   1.226 -0.2481 -0.2976  0.0078
  425SOL    HW1 2059   1.906   0.597   1.187 -0.6034 -0.2334  0.7587
  425SOL    HW2 2060   1.966   0.558   1.320  1.3886  1.1619  0.3199
  426SOL     OW 2061   0.537   3.230   2.932 -0.0964  0.6417  0.1183
  426SOL    HW1 2062   0.490   3.284   2.996  1.8764  1.1678  1.1987
  426SOL    HW2 2063   0.625   3.221   2.968  0.6100 -0.4474 -1.7421
  427SOL     OW 2064   1.690   2.727   3.348 -0.2241  0.8920  0.3191
  427SOL    HW1 2065   1.770   2.696   3.307 -0.4957  0.3390  0.2041
  427SOL    HW2 2066   1.719   2.795   3.409  0.4404  0.0512  0.9632
  428SOL     OW 2067   2.341   0.039   1.956 -0.8435  0.0928 -0.1879
  428SOL    HW1 2068   2.317  -0.042   1.911 -0.4901 -0.7938  1.1524
  428SOL    HW2 2069   2.340   0.016   2.049 -0.1335  1.4757  0.1934
  429SOL     OW 2070   1.242   2.212   2.860  0.0272 -0.0915  0.1495
  429SOL    HW1 2071   1.303   2.284   2.849 -0.2398  0.3292  1.2776
  429SOL    HW2 2072   1.156   2.254   2.869 -0.3104 -0.6239 -0.5185
  430SOL     OW 2073   1.745   2.470   3.132 -0.4821 -0.0971 -0.3892
  430SOL    HW1 2074   1.709   2.397   3.080 -0.9349 -0.5480  0.5399
  430SOL    HW2 2075   1.839   2.467   3.116 -0.4120 -1.3168  0.1591
  431SOL     OW 2076   1.077   3.032   1.514  0.2502  0.1174 -0.2387
  431SOL    HW1 2077   0.983   3.033   1.497  0.0476 -1.0406  0.7017
  431SOL    HW2 2078   1.112   2.965   1.455  0.1547 -0.9313  0.8556
  432SOL     OW 2079   2.427   0.685   0.854  0.2335  0.0739 -0.0733
  432SOL    HW1 2080   2.401   0.768   0.894 -0.6338 -0.6503  0.8942
  432SOL    HW2 2081   2.481   0.642   0.920  1.2162  0.1294 -0.8210
  433SOL     OW 2082   1.493   2.815   2.375  0.4103  0.4735 -0.1143
  433SOL    HW1 2083   1.523   2.791   2.288 -0.8689  1.8097 -0.9625
  433SOL    HW2 2084   1.506   2.736   2.428  2.8372  0.1655 -1.0417
  434SOL     OW 2085   1.432   1.870   0.890 -0.2592 -0.2048  0.2364
  434SOL    HW1 2086   1.497   1.800   0.898 -1.7597 -1.8427 -1.1685
  434SOL    HW2 2087   1.363   1.833   0.834 -2.4283  1.4365  1.6535
  435SOL     OW 2088   0.142   0.074   2.946  0.5999  0.4662 -0.4242
  435SOL    HW1 2089   0.051   0.098   2.928  0.7886  0.8082 -0.9401
  435SOL    HW2 2090   0.138   0.025   3.029 -0.1033  0.1174 -0.6542
  436SOL     OW 2091   1.500   0.693   2.921  0.3532  0.2378  0.4081
  436SOL    HW1 2092   1.465   0.660   3.004  0.8967  0.6539  0.8074
  436SOL    HW2 2093   1.440   0.763   2.896  0.5848  0.5792  0.8052
  437SOL     OW 2094   1.233   2.977   2.491  0.0164  0.1513  0.8358
  437SOL    HW1 2095   1.303   2.934   2.442 -1.2277 -0.3346 -0.6048
  437SOL    HW2 2096   1.155   2.965   2.437 -1.2813  0.3145  2.5820
  438SOL     OW 2097   0.077   0.626   2.702 -0.1618 -0.0214  0.1187
  438SOL    HW1 2098   0.081   0.714   2.664  1.2246  0.4473  1.2451
  438SOL    HW2 2099   0.145   0.577   2.656 -1.6598 -0.8697 -1.2768
  439SOL     OW 2100   1.220   0.189   2.334 -0.2450 -0.4690 -0.8407
  439SOL    HW1 2101   1.283   0.207   2.264  1.6306  2.7443  1.4379
  439SOL    HW2 2102   1.252   0.109   2.376  2.5495  1.1079  0.2983
  440SOL     OW 2103   1.573   1.810   2.751 -0.0218 -0.4490 -0.3078
  440SOL    HW1 2104   1.649   1.864   2.731 -0.7588  1.2943  1.3422
  440SOL    HW2 2105   1.600   1.759   2.828  0.3485 -1.8519 -1.3113
  441SOL     OW 2106   2.564   2.771   1.836 -0.2169 -0.1358 -0.1167
  441SOL    HW1 2107   2.572   2.676   1.845  0.3661 -0.0361  0.5904
  441SOL    HW2 2108   2.552   2.802   1.926  0.5109  0.5276 -0.2343
  442SOL     OW 2109   1.196   2.730   0.529 -0.2440  0.4325  0.1469
  442SOL    HW1 2110   1.165   2.663   0.467 -0.5127 -0.2852  1.0394
  442SOL    HW2 2111   1.142   2.807   0.510 -0.5042  0.1375 -0.3392
  443SOL     OW 2112   0.331   1.793   1.465  0.2046  0.3452  0.3058
  443SOL    HW1 2113   0.255   1.849   1.452 -0.7713 -1.3811 -2.1282
  443SOL    HW2 2114   0.297   1.718   1.513  0.4802 -0.1452 -0.2533
  444SOL     OW 2115   2.646   1.915   0.998 -0.2222  0.3890 -0.0964
  444SOL    HW1 2116   2.568   1.862   1.014  0.3964 -0.8549 -1.0081
  444SOL    HW2 2117   2.717   1.851   0.988  0.5006  1.3522 -1.5530
  445SOL     OW 2118   2.331   0.901   0.548 -0.4233 -0.1130 -0.0417
  445SOL    HW1 2119   2.305   0.834   0.485  2.1732  0.5726 -2.0004
  445SOL    HW2 2120   2.417   0.874   0.578  1.2850  2.8200 -1.8487
  446SOL     OW 2121   1.955   1.450   0.515  0.2041  0.2266 -0.5802
  446SOL    HW1 2122   1.981   1.459   0.607 -0.8198 -0.0765 -0.2424
  446SOL    HW2 2123   1.998   1.370   0.485  3.2016  1.9969 -1.3667
  447SOL     OW 2124   0.744   0.534   2.476 -0.5989  0.7155  0.1257
  447SOL    HW1 2125   0.808   0.509   2.543  0.1390  1.8118 -0.1467
  447SOL    HW2 2126   0.681   0.588   2.523 -2.7026 -2.2063  0.9172
  448SOL     OW 2127   0.532   0.500   2.313  0.0972  1.0903 -0.1967
  448SOL    HW1 2128   0.601   0.475   2.374 -0.1392  1.2527  0.1428
  448SOL    HW2 2129   0.498   0.417   2.279 -1.2768  0.8545  1.5835
  449SOL     OW 2130   0.790   3.254   3.032 -0.4022  0.1804 -0.0018
  449SOL    HW1 2131   0.778   3.347   3.012 -1.2247  0.3556  1.2105
  449SOL    HW2 2132   0.884   3.241   3.035 -0.2843  0.9680 -0.2002
  450SOL     OW 2133   2.199   0.963   1.050  0.5778 -1.0364  0.2355
  450SOL    HW1 2134   2.164   1.038   1.098 -0.1980  0.0003 -1.8328
  450SOL    HW2 2135   2.192   0.890   1.111 -0.9899  0.0669  1.4458
  451SOL     OW 2136   0.409   1.575   0.588 -0.2746  0.0492 -0.4118
  451SOL    HW1 2137   0.340   1.510   0.601  1.6799 -1.8131  1.3698
  451SOL    HW2 2138   0.490   1.527   0.602  1.4621  2.1091 -2.5935
  452SOL     OW 2139   0.698   1.164   3.211  0.2181 -0.3551 -0.1470
  452SOL    HW1 2140   0.791   1.151   3.228  0.3638  1.1558  0.3670
  452SOL    HW2 2141   0.681   1.118   3.129  1.6691  0.2694 -0.8316
  453SOL     OW 2142   1.294   0.319   0.900  0.0646 -0.0388  0.0796
  453SOL    HW1 2143   1.329   0.403   0.871 -2.9875  0.6265 -2.2715
  453SOL    HW2 2144   1.308   0.261   0.825  2.4905 -1.9158  1.8016
  454SOL     OW 2145   1.565   2.361   1.038  0.1031  0.3460 -0.2943
  454SOL    HW1 2146   1.600   2.433   0.986  0.4713  0.7397  0.4790
  454SOL    HW2 2147   1.489   2.398   1.082 -0.9993 -0.3486 -1.5314
  455SOL     OW 2148   1.306   2.192   1.417  0.0608  0.5231  0.4020
  455SOL    HW1 2149   1.244   2.121   1.403  0.6599  0.0627  0.0266
  455SOL    HW2 2150   1.256   2.271   1.398 -0.7690  0.2449  1.3697
  456SOL     OW 2151   1.344   2.325   0.571 -0.3150 -0.0438 -0.1726
  456SOL    HW1 2152   1.331   2.237   0.536  2.3362 -0.7256  0.3215
  456SOL    HW2 2153   1.384   2.374   0.499 -0.5029  0.3499 -0.0121
  457SOL     OW 2154   1.525   1.135   3.333 -0.3753 -0.0685  0.0736
  457SOL    HW1 2155   1.603   1.084   3.309  0.5501  1.0563  0.5414
  457SOL    HW2 2156   1.518   1.201   3.264 -1.0919 -0.3402 -0.1138
  458SOL     OW 2157   2.661   2.307   3.045 -0.1298 -0.0206 -0.2000
  458SOL    HW1 2158   2.722   2.234   3.036  0.4299  0.4301 -0.1349
  458SOL    HW2 2159   2.591   2.274   3.100  0.8810 -0.0511  1.1203
  459SOL     OW 2160   1.261   1.361   2.407  0.4133 -0.3364  0.0713
  459SOL    HW1 2161   1.181   1.308   2.405  0.8325 -0.9931  0.2744
  459SOL    HW2 2162   1.231   1.451   2.396 -0.4892 -0.4368  1.4966
  460SOL     OW 2163   1.647   0.538   0.990  0.8695  0.0097  0.4569
  460SOL    HW1 2164   1.573   0.507   0.938  1.4756  0.4990 -0.7379
  460SOL    HW2 2165   1.630   0.504   1.078 -0.8651  0.2789  0.2639
  461SOL     OW 2166   2.490   0.291   2.509 -0.0344 -0.0688 -0.6936
  461SOL    HW1 2167   2.396   0.287   2.526 -0.2233 -0.7209 -1.8007
  461SOL    HW2 2168   2.498   0.288   2.414  1.1320 -1.0244 -0.5985
  462SOL     OW 2169   1.259   0.286   1.157  0.0137  0.0410  0.3915
  462SOL    HW1 2170   1.269   0.296   1.062 -0.9522  1.3259  0.3995
  462SOL    HW2 2171   1.202   0.358   1.183  1.2383  0.4437  2.1410
  463SOL     OW 2172   1.500   2.973   1.317 -0.0007  0.1179 -0.1977
  463SOL    HW1 2173   1.450   3.052   1.296  0.0992  0.1028 -0.4883
  463SOL    HW2 2174   1.568   3.002   1.377  0.5352  0.3961 -0.9352
  464SOL     OW 2175   1.578   0.213   3.052  0.7359 -0.4030 -0.2756
  464SOL    HW1 2176   1.639   0.286   3.056  0.9477 -0.6211  2.2067
  464SOL    HW2 2177   1.510   0.241   2.992  2.7100  0.2614 -2.3254
  465SOL     OW 2178   1.960   2.213   3.359 -0.5687 -0.1879 -0.0434
  465SOL    HW1 2179   2.016   2.252   3.292  0.3405  0.1898  0.9155
  465SOL    HW2 2180   2.001   2.129   3.378 -0.2646  0.1254  0.7212
  466SOL     OW 2181   1.070   1.664   0.395 -0.5074  0.4187 -0.0993
  466SOL    HW1 2182   1.122   1.644   0.317 -1.7971 -0.3211 -0.7886
  466SOL    HW2 2183   1.044   1.579   0.429  0.4541  0.7014  1.4607
  467SOL     OW 2184   0.219   0.019   1.996 -0.0429  0.1033  0.3627
  467SOL    HW1 2185   0.166  -0.059   2.012  0.1801  0.3005  2.2072
  467SOL    HW2 2186   0.309  -0.013   1.989  0.0321  0.1794  0.9777
  468SOL     OW 2187   2.130   2.662   0.756  0.7325 -0.3762 -0.3017
  468SOL    HW1 2188   2.187   2.611   0.697  0.7928  0.7489 -1.2542
  468SOL    HW2 2189   2.046   2.617   0.751  0.6450 -0.1242 -1.5233
  469SOL     OW 2190   1.583   1.639   0.764  0.0807 -0.0019 -0.2010
  469SOL    HW1 2191   1.522   1.661   0.693 -1.3431  0.0419  0.9893
  469SOL    HW2 2192   1.608   1.549   0.747  0.2763  0.2057 -1.1019
  470SOL     OW 2193   2.184   0.461   1.676 -0.0449 -0.5327 -0.1293
  470SOL    HW1 2194   2.277   0.462   1.702 -0.2329 -1.5975  0.6208
  470SOL    HW2 2195   2.178   0.391   1.612 -0.4722 -0.9575  0.3739
  471SOL     OW 2196   0.650   3.061   2.133 -0.2350  0.6972  0.2834
  471SOL    HW1 2197   0.740   3.084   2.157 -0.5368 -0.3325  2.7080
  471SOL    HW2 2198   0.606   3.145   2.119  0.6141  1.2811  1.0167
  472SOL     OW 2199   0.929   0.437   2.655  0.4990 -0.2736 -0.8799
  472SOL    HW1 2200   0.900   0.351   2.625  0.2443 -0.9716  1.1721
  472SOL    HW2 2201   1.006   0.418   2.710  0.8090  0.8730 -0.8987
  473SOL     OW 2202   2.624   0.667   3.246  0.3084  0.0778 -0.2171
  473SOL    HW1 2203   2.645   0.759   3.228 -1.0024  0.4940  0.2176
  473SOL    HW2 2204   2.537   0.654   3.206 -1.2808  0.1553  2.8952
  474SOL     OW 2205   1.997   1.945   3.303  0.3009  0.1218  0.0257
  474SOL    HW1 2206   1.922   1.886   3.302 -0.0487  0.5438  0.4561
  474SOL    HW2 2207   2.072   1.890   3.323  0.2552 -0.4565 -1.2520
  475SOL     OW 2208   0.911   2.105   3.133  0.0525  0.3754 -0.0183
  475SOL    HW1 2209   0.901   2.125   3.040 -0.1606 -0.7324 -0.2512
  475SOL    HW2 2210   0.992   2.054   3.138 -1.2318 -1.8384 -0.0240
  476SOL     OW 2211   0.306   2.159   0.092 -0.4573  0.1515 -0.2755
  476SOL    HW1 2212   0.232   2.175   0.151  0.3836 -0.3377  0.9286
  476SOL    HW2 2213   0.304   2.065   0.076 -0.2893  0.1901 -0.5326
  477SOL     OW 2214   2.489   2.153   3.193 -0.1482 -0.5144 -0.2393
  477SOL    HW1 2215   2.555   2.084   3.183  1.6267  0.9942  0.4968
  477SOL    HW2 2216   2.466   2.150   3.286 -0.8181 -0.7419 -0.4068
  478SOL     OW 2217   2.707   3.033   2.192  0.2496  0.6053  0.0404
  478SOL    HW1 2218   2.694   3.071   2.105  1.0538 -0.1506 -0.4256
  478SOL    HW2 2219   2.629   2.979   2.206 -1.0672  2.6323  0.8574
  479SOL     OW 2220   0.852   0.478   3.040  0.5004 -0.1839 -0.1212
  479SOL    HW1 2221   0.882   0.387   3.043  0.1788 -0.4370 -2.4380
  479SOL    HW2 2222   0.932   0.530   3.037  0.7996 -0.6479 -2.3171
  480SOL     OW 2223   3.152   2.909   2.576 -0.0642  0.5990 -0.1324
  480SOL    HW1 2224   3.148   3.000   2.544  0.8808  0.7394  0.1153
  480SOL    HW2 2225   3.245   2.891   2.584 -0.2413  0.3237  1.8275
  481SOL     OW 2226   3.164   2.830   2.257  0.6462 -0.4692 -0.1139
  481SOL    HW1 2227   3.171   2.735   2.249 -0.2073 -0.5249 -0.3624
  481SOL    HW2 2228   3.122   2.843   2.342  1.6302 -0.2637  0.3546
  482SOL     OW 2229   1.100   1.995   1.360 -0.1296 -0.6225 -0.0485
  482SOL    HW1 2230   1.005   2.002   1.366 -0.4615 -4.4122  2.1745
  482SOL    HW2 2231   1.115   1.914   1.311  1.8562 -1.3182  1.5683
  483SOL     OW 2232   2.390   2.596   2.783  0.1352  0.1072 -0.0683
  483SOL    HW1 2233   2.366   2.598   2.875 -0.0620  3.0683 -0.0986
  483SOL    HW2 2234   2.486   2.589   2.783  0.3276  2.2294  0.4784
  484SOL     OW 2235   0.453   1.519   1.444  0.1852 -0.0534 -0.3657
  484SOL    HW1 2236   0.476   1.534   1.536 -0.6408  0.6734 -0.2671
  484SOL    HW2 2237   0.534   1.487   1.404  0.6915  0.1183  0.4969
  485SOL     OW 2238   2.092   0.204   2.844  0.3170 -0.0730 -0.3419
  485SOL    HW1 2239   2.034   0.279   2.844  1.5118  0.8782 -0.3747
  485SOL    HW2 2240   2.148   0.216   2.920  0.3554 -1.0706 -0.1965
  486SOL     OW 2241   1.258   1.794   0.522 -0.1762 -0.1514  0.1284
  486SOL    HW1 2242   1.247   1.775   0.615 -0.3734 -0.6339  0.0086
  486SOL    HW2 2243   1.190   1.742   0.479  0.4840 -0.6313 -0.3567
  487SOL     OW 2244   0.079   1.347   1.067  0.3870 -0.0346 -0.6485
  487SOL    HW1 2245   0.083   1.269   1.011 -0.5357  1.0579 -2.3300
  487SOL    HW2 2246   0.163   1.390   1.054  0.8478 -0.6563  0.1827
  488SOL     OW 2247   1.892   0.080   1.351  0.1448 -0.3458  0.0666
  488SOL    HW1 2248   1.824   0.089   1.285  0.3519 -1.0898 -0.2614
  488SOL    HW2 2249   1.850   0.033   1.423 -0.3624  1.3038  0.9172
  489SOL     OW 2250   2.943   2.665   0.229 -0.4369  0.4797 -0.1071
  489SOL    HW1 2251   2.917   2.594   0.171  0.0811 -0.9212  1.2767
  489SOL    HW2 2252   3.033   2.686   0.203 -0.2895  0.0252  0.0337
  490SOL     OW 2253   1.349   2.345   2.022  0.0001 -0.0694 -0.5103
  490SOL    HW1 2254   1.377   2.261   1.985  0.0014  0.1019 -0.9065
  490SOL    HW2 2255   1.426   2.401   2.014 -0.7677  0.7644 -2.7115
  491SOL     OW 2256   2.300   0.659   1.422 -0.1028 -0.5017  0.2399
  491SOL    HW1 2257   2.291   0.707   1.504  0.4703  1.2192 -0.6503
  491SOL    HW2 2258   2.354   0.583   1.443  1.0659  0.5656  1.2143
  492SOL     OW 2259   2.030   1.209   0.387  0.1765 -0.2299 -0.2689
  492SOL    HW1 2260   2.071   1.174   0.465  2.1216 -0.0404 -1.1605
  492SOL    HW2 2261   2.052   1.147   0.318 -0.4974  0.2222 -0.9126
  493SOL     OW 2262   2.212   3.111   2.397  0.1150 -0.4898  0.3415
  493SOL    HW1 2263   2.262   3.116   2.479  0.4542 -0.7559  0.1546
  493SOL    HW2 2264   2.157   3.034   2.408 -1.1560  0.4862  1.0385
  494SOL     OW 2265   1.115   0.054   1.208 -0.3144  0.0636 -0.1044
  494SOL    HW1 2266   1.153   0.141   1.194  0.4916 -0.2524  0.0674
  494SOL    HW2 2267   1.116   0.013   1.121 -0.0415 -0.0362 -0.0525
  495SOL     OW 2268   0.258   1.924   0.422  0.2327 -0.2023 -0.2127
  495SOL    HW1 2269   0.352   1.914   0.411  0.2883 -0.1307  0.1617
  495SOL    HW2 2270   0.220   1.890   0.342  0.6249  0.6490 -0.7802
  496SOL     OW 2271   0.961   0.491   1.368  0.2707 -0.0428  0.0240
  496SOL    HW1 2272   0.945   0.556   1.436  0.6853  1.0020 -0.8430
  496SOL    HW2 2273   0.893   0.426   1.380  1.2880 -0.7536  2.4577
  497SOL     OW 2274   0.951   1.905   0.355 -0.3113  0.5717  0.6763
  497SOL    HW1 2275   0.997   1.975   0.401  0.1959  0.9216 -0.3452
  497SOL    HW2 2276   0.980   1.824   0.398  1.2618  0.7851  0.0466
  498SOL     OW 2277   1.999   0.593   1.474  0.2255  0.4267  0.5723
  498SOL    HW1 2278   2.037   0.638   1.549  0.0922  1.3192  0.1153
  498SOL    HW2 2279   2.075   0.554   1.429  0.4911  1.2641  0.2774
  499SOL     OW 2280   2.234   1.161   0.560  0.7854  0.3124  1.0012
  499SOL    HW1 2281   2.262   1.071   0.544  0.1898  0.5314 -1.8784
  499SOL    HW2 2282   2.297   1.215   0.512 -1.0185  1.1434 -0.5822
  500SOL     OW 2283   0.893   2.827   1.176 -0.1713 -0.1765 -0.4319
  500SOL    HW1 2284   0.926   2.826   1.086 -0.3851 -0.7632 -0.5061
  500SOL    HW2 2285   0.843   2.908   1.182 -1.2824 -0.7656 -1.2534
  501SOL     OW 2286   2.108   2.663   2.343 -0.2336 -0.3213 -0.0654
  501SOL    HW1 2287   2.160   2.647   2.422  2.3607  0.6666 -1.4375
  501SOL    HW2 2288   2.085   2.756   2.348 -1.9326 -0.7337  0.4959
  502SOL     OW 2289   0.673   0.046   1.766 -0.2097 -0.1148 -0.3083
  502SOL    HW1 2290   0.632   0.127   1.737 -0.4256 -0.4569 -0.9815
  502SOL    HW2 2291   0.763   0.051   1.734  0.1787  0.4427  0.7998
  503SOL     OW 2292   1.898   2.631   2.008 -0.0131 -0.1713 -0.1506
  503SOL    HW1 2293   1.826   2.655   2.067  0.5849 -1.1384  1.0238
  503SOL    HW2 2294   1.905   2.705   1.947 -0.7308  0.8148  0.9153
  504SOL     OW 2295   3.242   1.499   0.138 -0.2141 -0.4206 -0.6024
  504SOL    HW1 2296   3.240   1.582   0.092 -0.8371 -0.0134  0.1371
  504SOL    HW2 2297   3.306   1.446   0.091 -0.3494  0.2215 -1.5142
  505SOL     OW 2298   1.379   2.159   3.098  0.4543  0.2425 -0.0325
  505SOL    HW1 2299   1.430   2.078   3.097  0.7086  0.4035 -0.1671
  505SOL    HW2 2300   1.338   2.163   3.012  0.1610  0.0802  0.0990
  506SOL     OW 2301   0.706   0.128   2.966  0.5869  0.1804  0.1127
  506SOL    HW1 2302   0.631   0.161   2.916  0.0227 -0.7610  0.3106
  506SOL    HW2 2303   0.693   0.162   3.054  0.4773  0.1535  0.1069
  507SOL     OW 2304   0.787   3.071   0.487 -0.5866 -0.5062 -0.1302
  507SOL    HW1 2305   0.696   3.077   0.516 -0.4372  0.2614  0.2147
  507SOL    HW2 2306   0.814   3.162   0.474  0.4284 -0.6637  0.7394
  508SOL     OW 2307   0.907   2.065   1.979  0.5085  0.3923 -0.6176
  508SOL    HW1 2308   0.915   2.021   1.894 -3.5459 -0.8315 -0.5609
  508SOL    HW2 2309   0.942   2.002   2.042 -2.2773 -1.5959 -0.8730
  509SOL     OW 2310   0.761   1.129   1.615 -0.2393  0.3218  0.2787
  509SOL    HW1 2311   0.839   1.104   1.566 -1.0106 -1.3965 -0.1482
  509SOL    HW2 2312   0.758   1.225   1.610  2.1461  0.4740  0.8180
  510SOL     OW 2313   1.590   3.076   2.434 -0.0940  0.2581  0.1296
  510SOL    HW1 2314   1.601   3.125   2.353  0.5710 -1.8721 -1.1560
  510SOL    HW2 2315   1.552   2.992   2.406  0.9462 -0.8649  1.9002
  511SOL     OW 2316   1.304   1.016   2.308 -0.6531  0.0211  0.5429
  511SOL    HW1 2317   1.353   1.090   2.271 -1.2240 -0.7256 -1.8848
  511SOL    HW2 2318   1.365   0.977   2.371  0.7923  0.7994 -0.3154
  512SOL     OW 2319   2.216   2.296   3.212 -0.2866 -0.0353 -0.5422
  512SOL    HW1 2320   2.274   2.288   3.136  1.4104 -0.0056  0.6912
  512SOL    HW2 2321   2.271   2.271   3.286 -1.3321  1.7621  0.9058
  513SOL     OW 2322   0.664   0.289   3.192  0.7170 -0.3959  0.0000
  513SOL    HW1 2323   0.711   0.367   3.161 -0.6892  0.9217  1.0662
  513SOL    HW2 2324   0.655   0.302   3.286  0.7665 -2.0535  0.2663
  514SOL     OW 2325   1.064   1.238   0.750  0.3289  0.1492  0.8420
  514SOL    HW1 2326   1.097   1.245   0.660  1.8264 -0.4254  1.3185
  514SOL    HW2 2327   1.047   1.145   0.762 -1.0222  0.3702  0.7884
  515SOL     OW 2328   1.188   2.107   0.735 -0.8610  0.1361  0.2049
  515SOL    HW1 2329   1.203   2.040   0.802  0.9359 -0.1384 -0.3957
  515SOL    HW2 2330   1.129   2.065   0.672  0.4254 -1.0365 -0.2830
  516SOL     OW 2331   0.406   0.076   0.930  0.3012  0.1922 -0.6016
  516SOL    HW1 2332   0.406   0.122   0.846  0.3320 -2.3336 -2.0814
  516SOL    HW2 2333   0.499   0.070   0.953  0.5254 -1.2488 -1.7114
  517SOL     OW 2334   2.401   2.963   1.358 -0.4624  0.6763  0.0513
  517SOL    HW1 2335   2.383   2.901   1.288 -0.8076  0.4368  0.3532
  517SOL    HW2 2336   2.382   2.915   1.439 -1.3479  1.3653  0.2682
  518SOL     OW 2337   1.066   1.038   0.414 -0.6155 -0.2232  0.2237
  518SOL    HW1 2338   1.118   1.118   0.416  1.6784 -1.6549  0.6088
  518SOL    HW2 2339   1.058   1.017   0.321  1.0626 -0.9298  0.2157
  519SOL     OW 2340   2.718   1.989   3.171 -0.0298  0.0934  0.0968
  519SOL    HW1 2341   2.813   1.977   3.172 -0.1776 -1.3569 -1.0510
  519SOL    HW2 2342   2.691   1.978   3.263  0.6118 -2.3289  0.0581
  520SOL     OW 2343   1.668   0.441   1.243 -0.6746  0.0543  0.0479
  520SOL    HW1 2344   1.683   0.350   1.265 -2.2443 -0.1267  0.4599
  520SOL    HW2 2345   1.703   0.491   1.317  0.2819 -0.1834 -0.2289
  521SOL     OW 2346   0.922   1.438   2.691  0.0422  0.4191  0.6287
  521SOL    HW1 2347   0.911   1.526   2.725 -2.0010  0.0148  1.1818
  521SOL    HW2 2348   0.839   1.418   2.647  0.6637 -1.0098  0.0175
  522SOL     OW 2349   0.289   3.049   2.587 -0.1799  0.3577  0.3413
  522SOL    HW1 2350   0.340   3.056   2.506 -0.7632 -1.2225 -0.1988
  522SOL    HW2 2351   0.273   3.140   2.613  1.3537  0.8889 -0.4497
  523SOL     OW 2352   1.100   3.209   0.455 -0.4763 -0.6236 -0.3297
  523SOL    HW1 2353   1.187   3.238   0.425 -1.4063  3.2445  0.1537
  523SOL    HW2 2354   1.118   3.135   0.514  2.3403 -0.7556 -1.2042
  524SOL     OW 2355   1.531   0.288   0.451 -0.0585 -0.0691 -0.4362
  524SOL    HW1 2356   1.443   0.257   0.469  0.0847 -0.8085 -0.9483
  524SOL    HW2 2357   1.589   0.218   0.481  0.3371  0.2794 -0.3703
  525SOL     OW 2358   1.279   0.831   0.274 -0.4380 -0.6593 -0.4018
  525SOL    HW1 2359   1.265   0.901   0.338  1.3346 -2.3351  1.9720
  525SOL    HW2 2360   1.232   0.756   0.310  0.8452 -1.7278 -0.8807
  526SOL     OW 2361   0.159   0.674   2.957 -0.4805 -0.4188  0.0941
  526SOL    HW1 2362   0.151   0.622   2.877  1.1440 -1.4641  0.5697
  526SOL    HW2 2363   0.076   0.722   2.963 -2.4875 -3.5926  0.1017
  527SOL     OW 2364   3.278   0.642   0.682 -0.4012  0.2717  0.3547
  527SOL    HW1 2365   3.267   0.546   0.679  2.0897 -0.0871  0.8876
  527SOL    HW2 2366   3.231   0.674   0.605 -1.3778 -1.3658  0.2229
  528SOL     OW 2367   1.534   3.198   1.685 -0.0004  0.4625 -0.0939
  528SOL    HW1 2368   1.598   3.194   1.756 -1.3245 -0.6697  1.1151
  528SOL    HW2 2369   1.450   3.180   1.728 -0.9830  0.7642 -1.8032
  529SOL     OW 2370   0.451   1.545   0.298  0.4140  0.3026  0.2142
  529SOL    HW1 2371   0.538   1.520   0.268  0.7180  1.4910  0.0640
  529SOL    HW2 2372   0.455   1.539   0.393 -0.1118 -2.0510  0.1495
  530SOL     OW 2373   1.872   2.643   1.610 -0.7228 -0.0312 -0.2691
  530SOL    HW1 2374   1.858   2.558   1.568 -1.1222 -0.9390  1.5753
  530SOL    HW2 2375   1.962   2.638   1.644 -0.9145  0.0607  0.2677
  531SOL     OW 2376   1.056   3.021   3.298 -0.1777 -0.4790  0.4179
  531SOL    HW1 2377   1.095   3.053   3.379  0.1066 -0.2280  0.1817
  531SOL    HW2 2378   0.977   2.974   3.326  0.2308 -0.8913  0.8878
  532SOL     OW 2379   1.396   1.360   0.402 -0.3766  0.1639 -0.1085
  532SOL    HW1 2380   1.421   1.292   0.465 -0.0641 -0.5879 -1.0208
  532SOL    HW2 2381   1.477   1.409   0.387 -0.4913  0.4478  0.2039
  533SOL     OW 2382   0.360   2.428   0.015 -0.6120 -0.2686 -0.0167
  533SOL    HW1 2383   0.346   2.335   0.032 -1.0071 -0.6652 -2.2244
  533SOL    HW2 2384   0.435   2.431  -0.044 -1.9494  0.6096 -1.7796
  534SOL     OW 2385   2.577   0.425   3.005  0.1553  0.0430 -0.7395
  534SOL    HW1 2386   2.580   0.515   2.972  0.3720  0.1114 -0.5311
  534SOL    HW2 2387   2.645   0.379   2.956  1.3935  0.4585  0.5523
  535SOL     OW 2388   0.290   2.693   2.030 -0.3874  0.1912  0.4891
  535SOL    HW1 2389   0.385   2.707   2.026 -0.4372  0.3293 -2.5174
  535SOL    HW2 2390   0.255   2.776   2.062  0.4195  0.6114  0.3110
  536SOL     OW 2391   0.684   1.839   2.734 -0.0605 -0.0223  0.7935
  536SOL    HW1 2392   0.658   1.906   2.797  1.9334 -0.9232  2.6781
  536SOL    HW2 2393   0.670   1.756   2.779  1.3027 -0.6934  0.0610
  537SOL     OW 2394   0.286   0.953   0.675 -0.1263  0.5242  0.1272
  537SOL    HW1 2395   0.316   1.018   0.612  0.6361 -0.4088 -0.4966
  537SOL    HW2 2396   0.201   0.924   0.641 -0.0179  0.4900 -0.1136
  538SOL     OW 2397   1.519   1.276   2.470  0.2266 -1.0134  0.3151
  538SOL    HW1 2398   1.501   1.265   2.563  1.2781 -2.5880  0.3722
  538SOL    HW2 2399   1.446   1.329   2.437  1.0042  1.5562  2.4355
  539SOL     OW 2400   3.361   0.388   2.950 -0.8202  0.0468  0.0103
  539SOL    HW1 2401   3.289   0.447   2.972 -0.5441  0.0559  0.9178
  539SOL    HW2 2402   3.409   0.377   3.032  0.1686 -0.0251 -0.5661
  540SOL     OW 2403   1.035   2.790   1.723  0.3398  0.6237  0.0639
  540SOL    HW1 2404   1.042   2.870   1.672 -0.5146 -0.0074 -1.1074
  540SOL    HW2 2405   0.983   2.814   1.799 -0.2185  1.1079 -0.4648
  541SOL     OW 2406   2.378   2.844   1.622 -0.1304 -0.8322 -0.2541
  541SOL    HW1 2407   2.302   2.792   1.646 -0.0747  0.4558  3.2179
  541SOL    HW2 2408   2.449   2.811   1.677 -0.0836  2.7072  2.1285
  542SOL     OW 2409   2.358   1.405   0.745  0.1791 -0.3278 -0.1457
  542SOL    HW1 2410   2.449   1.404   0.776  0.8316 -3.4684 -1.7455
  542SOL    HW2 2411   2.365   1.426   0.651 -0.9052  0.6397 -0.0300
  543SOL     OW 2412   0.629   2.725   0.939  0.1658  0.4486 -0.5716
  543SOL    HW1 2413   0.632   2.645   0.885  0.7738 -0.3409  0.5918
  543SOL    HW2 2414   0.687   2.786   0.894  1.1310 -0.4005 -0.5183
  544SOL     OW 2415   1.342   1.158   0.192  0.6202 -0.5813  0.2729
  544SOL    HW1 2416   1.388   1.189   0.269 -0.0325 -0.7164  0.7274
  544SOL    HW2 2417   1.404   1.169   0.120  1.8551 -1.9643  1.0585
  545SOL     OW 2418   2.439   1.311   0.451  0.7960  0.3206  0.7448
  545SOL    HW1 2419   2.444   1.394   0.405  0.0088 -0.7054 -1.3075
  545SOL    HW2 2420   2.531   1.285   0.464  1.0700  0.3376 -0.9031
  546SOL     OW 2421   0.714   1.016   2.807  0.0684 -0.7399  0.1652
  546SOL    HW1 2422   0.684   0.979   2.890 -2.3118 -1.6108 -0.9670
  546SOL    HW2 2423   0.728   1.109   2.826  0.9986 -1.1921  1.8490
  547SOL     OW 2424   1.353   2.027   0.460  0.3675 -0.0257  0.3029
  547SOL    HW1 2425   1.317   1.942   0.485  1.9701 -0.9492 -0.3227
  547SOL    HW2 2426   1.435   2.033   0.510 -0.3751  1.7811  1.3592
  548SOL     OW 2427   0.431   2.719   1.271 -0.4744 -0.0598 -0.0631
  548SOL    HW1 2428   0.470   2.792   1.320  0.3847 -1.0416  0.7762
  548SOL    HW2 2429   0.421   2.650   1.336 -0.1465 -1.0999 -1.0892
  549SOL     OW 2430   0.971   2.779   2.989  0.3578  0.5017  0.0500
  549SOL    HW1 2431   0.957   2.692   3.026  1.3795 -0.7528 -2.3069
  549SOL    HW2 2432   1.059   2.804   3.017 -0.6335  1.7645  2.3799
  550SOL     OW 2433   1.639   3.123   0.797  0.4381 -0.1739 -0.2730
  550SOL    HW1 2434   1.625   3.037   0.837 -3.0134  0.6454  0.6714
  550SOL    HW2 2435   1.656   3.181   0.871 -0.6350  0.4523 -0.4870
  551SOL     OW 2436   0.318   1.693   0.944  0.8368 -0.5098 -0.0501
  551SOL    HW1 2437   0.282   1.765   0.894 -0.3815 -0.7584  0.4312
  551SOL    HW2 2438   0.353   1.733   1.023 -1.1958 -0.5682  0.9296
  552SOL     OW 2439   1.506   3.356   1.445 -0.5095  0.1533 -0.0079
  552SOL    HW1 2440   1.509   3.326   1.536 -1.0487  0.9203  0.2701
  552SOL    HW2 2441   1.459   3.287   1.399  2.0826 -1.6079 -0.2831
  553SOL     OW 2442   2.703   1.401   0.410 -0.0908 -0.5560  0.1753
  553SOL    HW1 2443   2.760   1.474   0.383  0.7335 -0.6911  1.4805
  553SOL    HW2 2444   2.732   1.328   0.356 -0.0138 -0.2544 -0.2001
  554SOL     OW 2445   0.243   0.300   1.059  0.6192  0.1905 -0.2570
  554SOL    HW1 2446   0.335   0.279   1.075  0.8116  0.4579 -0.9731
  554SOL    HW2 2447   0.245   0.386   1.017 -0.0085  0.5442  0.3953
  555SOL     OW 2448   2.249   0.205   2.601  0.6860 -0.3650  0.2630
  555SOL    HW1 2449   2.214   0.217   2.690 -0.0088 -1.0330  0.0902
  555SOL    HW2 2450   2.171   0.196   2.546  1.1165 -0.2251 -0.3825
  556SOL     OW 2451   2.889   3.300   2.285  0.1472  0.0665 -0.3961
  556SOL    HW1 2452   2.896   3.394   2.271  1.7292  0.3753  2.0111
  556SOL    HW2 2453   2.798   3.287   2.314  0.1021  0.9223 -0.1294
  557SOL     OW 2454   2.918   2.806   2.694  0.5133  0.4509 -0.0175
  557SOL    HW1 2455   2.999   2.818   2.645 -2.2388  0.5315 -5.2547
  557SOL    HW2 2456   2.868   2.885   2.677 -1.3554 -0.2667  1.7210
  558SOL     OW 2457   2.991   1.998   3.208 -0.5510  0.0055 -0.2386
  558SOL    HW1 2458   3.010   2.011   3.300 -0.4358  1.5865 -0.4524
  558SOL    HW2 2459   3.055   2.053   3.162 -0.9906 -0.2780 -1.2275
  559SOL     OW 2460   3.151   0.827   0.045 -0.4778  0.2587 -0.0686
  559SOL    HW1 2461   3.200   0.752   0.080 -1.2002 -0.6759 -1.0110
  559SOL    HW2 2462   3.183   0.902   0.096  0.7154 -0.5805  0.4715
  560SOL     OW 2463   2.458   2.900   2.282  0.0262 -0.5940  0.0835
  560SOL    HW1 2464   2.380   2.947   2.312  0.9321  0.6674  0.5783
  560SOL    HW2 2465   2.515   2.898   2.359  1.1192 -0.0735 -0.6855
  561SOL     OW 2466   1.907   0.618   3.113 -0.1839 -0.2437 -0.5281
  561SOL    HW1 2467   1.978   0.584   3.167 -1.1232  0.5165  1.2632
  561SOL    HW2 2468   1.946   0.692   3.066 -0.1493  1.2737  1.7376
  562SOL     OW 2469   0.380   1.057   3.360 -0.1430 -0.1438  0.1964
  562SOL    HW1 2470   0.383   1.013   3.275  1.0906  0.1175  0.0941
  562SOL    HW2 2471   0.372   1.150   3.339  1.0928  0.0042  0.3388
  563SOL     OW 2472   1.563   0.797   2.548  0.7629  0.3104  0.2172
  563SOL    HW1 2473   1.590   0.872   2.494 -0.5362 -0.1812 -1.2083
  563SOL    HW2 2474   1.518   0.836   2.623 -1.3914  1.0094 -1.3365
  564SOL     OW 2475   2.098   2.993   2.013  0.3626  0.5503  0.3423
  564SOL    HW1 2476   2.015   2.990   1.965 -0.3603  1.8142  1.4325
  564SOL    HW2 2477   2.111   2.904   2.043  1.3773 -0.5750 -2.9608
  565SOL     OW 2478   2.642   2.544   2.883 -0.2274  0.3511 -0.4101
  565SOL    HW1 2479   2.640   2.464   2.936  2.0953  0.8146  0.5049
  565SOL    HW2 2480   2.632   2.614   2.947  1.4783  0.8772 -0.6624
  566SOL     OW 2481   1.441   2.809   3.113 -0.2380  0.9951 -0.1703
  566SOL    HW1 2482   1.524   2.823   3.066  0.8561 -2.0314  0.6227
  566SOL    HW2 2483   1.459   2.836   3.203  0.0593 -0.0125  0.0877
  567SOL     OW 2484   1.285   2.348   0.912  0.5096 -0.0189  0.0961
  567SOL    HW1 2485   1.208   2.318   0.961  0.4339 -0.9908 -0.5807
  567SOL    HW2 2486   1.324   2.416   0.967 -0.2338 -0.2606  0.9468
  568SOL     OW 2487   0.787   3.277   1.314  0.1674 -0.2365  0.0554
  568SOL    HW1 2488   0.796   3.215   1.241 -0.9596 -0.1578 -0.1621
  568SOL    HW2 2489   0.876   3.310   1.327  0.3686 -0.0722 -1.4508
  569SOL     OW 2490   2.019   1.752   0.547 -0.0649 -0.0298 -0.0819
  569SOL    HW1 2491   1.928   1.729   0.565  0.4627 -1.0005  1.6194
  569SOL    HW2 2492   2.050   1.793   0.628  1.1792 -0.2771 -0.4095
  570SOL     OW 2493   1.000   2.535   3.177 -0.1483 -0.1028  0.6954
  570SOL    HW1 2494   1.027   2.587   3.253  1.0922  1.4665 -0.7314
  570SOL    HW2 2495   1.052   2.455   3.181  0.8205  0.5251  0.8538
  571SOL     OW 2496   1.172   0.679   0.552 -0.4187  0.1565  0.2469
  571SOL    HW1 2497   1.238   0.732   0.596  0.3384 -0.1724 -0.4582
  571SOL    HW2 2498   1.207   0.589   0.555 -1.4472 -0.2364  0.9951
  572SOL     OW 2499   0.673   2.266   0.998 -0.3979 -0.0689 -0.2539
  572SOL    HW1 2500   0.655   2.172   1.006 -1.0217  0.1574  1.4225
  572SOL    HW2 2501   0.623   2.306   1.069  2.2743  1.2103  1.0763
  573SOL     OW 2502   1.815   2.088   1.367 -0.1306 -0.2707  0.0618
  573SOL    HW1 2503   1.720   2.077   1.370 -0.2089 -0.2103 -1.5484
  573SOL    HW2 2504   1.844   2.069   1.456 -1.8669  1.8311  1.1657
  574SOL     OW 2505   0.701   1.424   1.364 -0.1423  0.2009  0.2072
  574SOL    HW1 2506   0.716   1.418   1.458  1.9598 -0.2276 -0.0891
  574SOL    HW2 2507   0.677   1.335   1.337 -0.5567  0.2811  0.3124
  575SOL     OW 2508   1.234   3.090   0.122  0.1210  0.0365 -0.1334
  575SOL    HW1 2509   1.276   3.175   0.110 -0.5594  0.3214 -0.5880
  575SOL    HW2 2510   1.243   3.071   0.215 -0.0611  0.7853  0.0381
  576SOL     OW 2511   0.846   3.342   0.428  0.6063 -0.1427 -0.0775
  576SOL    HW1 2512   0.927   3.315   0.386  1.7016 -0.2423  1.9519
  576SOL    HW2 2513   0.861   3.432   0.456 -0.8953  0.6830 -1.7143
  577SOL     OW 2514   0.706   0.876   1.327  0.6231  0.5725  0.7307
  577SOL    HW1 2515   0.693   0.799   1.272 -1.6143  1.8067 -0.6628
  577SOL    HW2 2516   0.618   0.899   1.356  1.0972  2.9929  0.4707
  578SOL     OW 2517   1.028   3.218   2.000  0.0214  0.0027 -0.0170
  578SOL    HW1 2518   0.961   3.157   1.971 -0.7242 -0.4558  2.4201
  578SOL    HW2 2519   1.086   3.229   1.924 -0.7692 -2.4143 -1.0489
  579SOL     OW 2520   3.186   2.742   2.808  0.2576 -0.5592 -0.1948
  579SOL    HW1 2521   3.173   2.827   2.767 -0.0495 -0.2652  0.5107
  579SOL    HW2 2522   3.281   2.727   2.801  0.2433 -0.4187 -0.8044
  580SOL     OW 2523   0.924   3.121   2.233 -0.0565  0.0780  0.2392
  580SOL    HW1 2524   0.942   3.184   2.303  1.0865  0.4572 -0.3786
  580SOL    HW2 2525   0.988   3.141   2.165  1.2076 -2.5231  0.5260
  581SOL     OW 2526   1.569   0.148   0.875  0.7933 -0.2641  0.4425
  581SOL    HW1 2527   1.653   0.191   0.861  1.7232 -2.5130 -1.7135
  581SOL    HW2 2528   1.521   0.162   0.793  0.3047 -1.5028  0.4956
  582SOL     OW 2529   0.925   2.108   2.855 -0.0620  0.2849 -0.0370
  582SOL    HW1 2530   0.974   2.038   2.811  1.0128  0.7923  0.3320
  582SOL    HW2 2531   0.868   2.143   2.786 -0.4208 -0.7653 -0.2967
  583SOL     OW 2532   1.685   0.464   3.078 -0.4153 -1.0141  0.1082
  583SOL    HW1 2533   1.598   0.499   3.096 -0.0795  0.4459 -0.9318
  583SOL    HW2 2534   1.744   0.539   3.088  0.5056 -1.5835 -0.8459
  584SOL     OW 2535   1.006   2.304   0.092 -0.0737  0.4266  0.4165
  584SOL    HW1 2536   1.084   2.347   0.056  0.1451  0.5239  0.9874
  584SOL    HW2 2537   1.025   2.211   0.086  0.5312  0.4595  1.4681
  585SOL     OW 2538   1.002   2.870   2.287 -0.0172 -0.4700 -0.3828
  585SOL    HW1 2539   0.933   2.809   2.313  0.4084 -0.5216  0.6910
  585SOL    HW2 2540   0.958   2.954   2.279 -0.9275 -1.1093 -3.3874
  586SOL     OW 2541   0.614   0.556   2.929  0.2431  0.3656 -0.1110
  586SOL    HW1 2542   0.701   0.528   2.958  0.6207 -0.1200 -1.6239
  586SOL    HW2 2543   0.568   0.474   2.907 -0.8653  0.5640  1.3173
  587SOL     OW 2544   1.068   0.746   2.467  0.2029  0.4309  0.2761
  587SOL    HW1 2545   1.082   0.663   2.512 -1.1305  0.6124  1.0862
  587SOL    HW2 2546   0.989   0.731   2.414  1.0299  0.6117 -1.0389
  588SOL     OW 2547   2.384   0.353   3.198 -0.1285  0.1974 -0.1101
  588SOL    HW1 2548   2.463   0.394   3.162 -0.8593  0.7237 -1.1876
  588SOL    HW2 2549   2.365   0.281   3.138 -1.1776  0.8716 -0.6265
  589SOL     OW 2550   1.108   2.083   2.340 -0.0843 -0.2317  0.0430
  589SOL    HW1 2551   1.119   2.154   2.276  0.2334 -1.0303 -0.8284
  589SOL    HW2 2552   1.139   2.119   2.423 -1.8220  1.2985  0.0720
  590SOL     OW 2553   1.360   2.741   0.893 -0.5055  0.5046 -0.4304
  590SOL    HW1 2554   1.447   2.745   0.852  0.0950 -1.6484  0.5042
  590SOL    HW2 2555   1.377   2.751   0.987 -1.2102 -0.2618 -0.2096
  591SOL     OW 2556   1.551   2.287   2.535 -0.0725 -0.1121  0.2277
  591SOL    HW1 2557   1.493   2.331   2.597  1.2833  1.1073  0.6780
  591SOL    HW2 2558   1.541   2.194   2.556 -1.6324  0.0746  0.4627
  592SOL     OW 2559   0.668   1.028   0.430 -0.4271 -0.4392  0.3554
  592SOL    HW1 2560   0.573   1.019   0.428 -0.6362  1.2168 -2.1326
  592SOL    HW2 2561   0.696   0.974   0.504 -3.3358 -0.3553  1.6405
  593SOL     OW 2562   0.183   1.206   0.291 -0.3370 -0.5822 -0.1249
  593SOL    HW1 2563   0.182   1.299   0.268  0.3026 -0.4842  0.2378
  593SOL    HW2 2564   0.125   1.165   0.226 -0.4963  0.0404 -0.3856
  594SOL     OW 2565   0.593   2.792   2.158  0.0971 -0.2267  0.5276
  594SOL    HW1 2566   0.585   2.755   2.246 -0.4543  0.3469  0.7302
  594SOL    HW2 2567   0.641   2.874   2.170 -0.8540  0.3560  0.4483
  595SOL     OW 2568   0.759   2.027   0.801 -0.4024  0.4628 -0.1696
  595SOL    HW1 2569   0.734   1.941   0.833  0.2966  0.8625  1.5214
  595SOL    HW2 2570   0.700   2.043   0.727 -0.1107 -1.7160 -0.9419
  596SOL     OW 2571   1.177   2.857   2.037 -0.2086 -0.9262 -0.4202
  596SOL    HW1 2572   1.114   2.846   2.109  1.4429 -0.1510  1.2327
  596SOL    HW2 2573   1.172   2.775   1.988 -3.0071 -0.6232 -0.8219
  597SOL     OW 2574   2.209   2.054   1.945 -0.3938  0.0332 -0.3607
  597SOL    HW1 2575   2.170   2.039   2.031  0.7050  0.5520  0.2575
  597SOL    HW2 2576   2.295   2.092   1.964  0.2731 -0.7530 -1.6712
  598SOL     OW 2577   2.652   0.848   0.240 -0.6273 -0.8544  0.0403
  598SOL    HW1 2578   2.589   0.782   0.211 -0.6016 -0.4709 -0.9403
  598SOL    HW2 2579   2.730   0.831   0.188 -0.5617 -0.1703 -0.0983
  599SOL     OW 2580   0.571   3.257   3.291  0.1290  0.2003  0.3025
  599SOL    HW1 2581   0.560   3.349   3.316  0.3996  0.4600 -0.4973
  599SOL    HW2 2582   0.652   3.256   3.240  0.3527 -0.5616  0.6536
  600SOL     OW 2583   1.522   2.744   1.521  0.0919  0.3875 -0.0531
  600SOL    HW1 2584   1.498   2.833   1.494  0.5240  1.2767  2.2634
  600SOL    HW2 2585   1.438   2.700   1.537 -0.1414  1.2159  1.1774
  601SOL     OW 2586   0.353   0.554   0.911  0.3600  0.1354  0.2183
  601SOL    HW1 2587   0.315   0.642   0.915  0.0383 -0.0054  0.3209
  601SOL    HW2 2588   0.358   0.534   0.818  1.4076  0.6741  0.1427
  602SOL     OW 2589   0.798   1.687   1.715  0.3772  0.3067 -0.4411
  602SOL    HW1 2590   0.826   1.714   1.802 -0.4573  2.8519 -0.8701
  602SOL    HW2 2591   0.861   1.727   1.655 -0.3757  0.5690 -1.0933
  603SOL     OW 2592   0.971   1.679   0.019  0.5162  0.3927  0.6756
  603SOL    HW1 2593   1.052   1.707   0.060  1.1055  1.0678 -0.8559
  603SOL    HW2 2594   0.999   1.627  -0.057 -0.4505  0.9153 -0.0709
  604SOL     OW 2595   1.407   0.045   1.087 -0.3771 -0.1183 -0.3547
  604SOL    HW1 2596   1.340   0.111   1.103  0.0470  0.0603  0.7913
  604SOL    HW2 2597   1.465   0.084   1.022  0.5237  1.1580  1.1380
  605SOL     OW 2598   0.020   2.629   3.145 -0.3301  0.9850 -0.7002
  605SOL    HW1 2599   0.030   2.716   3.183 -0.5559  0.8514 -0.3364
  605SOL    HW2 2600  -0.074   2.611   3.147 -0.1258 -0.0802  1.0514
  606SOL     OW 2601   2.704   0.936   3.195  0.0527  0.4451 -0.4247
  606SOL    HW1 2602   2.723   1.018   3.241 -1.9035 -0.1303  1.5598
  606SOL    HW2 2603   2.764   0.936   3.120  1.4298  2.7606  0.5832
  607SOL     OW 2604   0.744   3.312   0.149  0.1059  0.0391  0.5467
  607SOL    HW1 2605   0.796   3.321   0.069 -1.4593 -0.5638 -0.5916
  607SOL    HW2 2606   0.809   3.303   0.219  1.5191  0.7662 -0.6181
  608SOL     OW 2607   2.030   2.919   2.393  0.0864 -0.0620 -0.5511
  608SOL    HW1 2608   1.965   2.917   2.462  0.1872 -1.3882 -0.4720
  608SOL    HW2 2609   1.981   2.942   2.314 -0.4836 -1.0677 -0.4946
  609SOL     OW 2610   1.697   3.211   1.904 -0.1169  0.1375 -0.1097
  609SOL    HW1 2611   1.776   3.265   1.914 -0.3588  0.4321  0.2181
  609SOL    HW2 2612   1.728   3.121   1.914  0.0180  0.3007  1.0629
  610SOL     OW 2613   2.686   0.089   2.459 -0.1004  0.4887 -0.0645
  610SOL    HW1 2614   2.632   0.037   2.400  0.2961  0.7811 -0.7045
  610SOL    HW2 2615   2.627   0.157   2.493 -0.7426 -0.6356  1.1560
  611SOL     OW 2616   1.064   1.965   2.659  0.0058 -0.1857  0.2548
  611SOL    HW1 2617   1.100   1.900   2.599 -0.5752  1.2177 -1.7116
  611SOL    HW2 2618   1.104   2.048   2.633 -1.5189  0.7391  0.6776
  612SOL     OW 2619   0.515   1.750   1.788  0.6788 -0.2768 -0.2614
  612SOL    HW1 2620   0.610   1.742   1.779  0.8673 -0.0011  1.2287
  612SOL    HW2 2621   0.499   1.844   1.781  0.4484 -0.3631 -0.9764
  613SOL     OW 2622   2.158   2.765   1.772 -0.3437 -0.0220  0.1817
  613SOL    HW1 2623   2.118   2.846   1.802 -0.7659 -0.3730  0.5726
  613SOL    HW2 2624   2.196   2.727   1.851  0.0552 -0.0922 -0.0423
  614SOL     OW 2625   2.591   1.601   1.221 -0.0537  0.3275 -0.2352
  614SOL    HW1 2626   2.663   1.539   1.215 -0.1863 -0.1123  1.8215
  614SOL    HW2 2627   2.633   1.687   1.229  0.2166  0.1941 -0.2345
  615SOL     OW 2628   0.601   3.248   0.714  0.7456  0.1545  0.0370
  615SOL    HW1 2629   0.534   3.270   0.649  0.5149  1.6845  0.7490
  615SOL    HW2 2630   0.641   3.332   0.737  1.1558 -0.4148  1.5213
  616SOL     OW 2631   1.105   0.418   2.400  0.9322  0.9793 -0.3492
  616SOL    HW1 2632   1.140   0.330   2.385 -2.4048 -1.2024  2.9133
  616SOL    HW2 2633   1.133   0.440   2.489 -0.0419  2.3149 -0.3423
  617SOL     OW 2634   0.453   2.864   2.794 -0.2241 -0.0041 -0.0353
  617SOL    HW1 2635   0.398   2.924   2.743  0.8401  1.0833  0.0502
  617SOL    HW2 2636   0.434   2.886   2.885 -0.9361 -0.8444  0.0306
  618SOL     OW 2637   1.595   1.832   0.341 -0.2837  0.2544 -0.0968
  618SOL    HW1 2638   1.650   1.796   0.411 -0.5388  0.4967  0.2337
  618SOL    HW2 2639   1.505   1.821   0.373 -0.3681  1.0997 -0.0208
  619SOL     OW 2640   2.013   1.204   3.200  0.3884  0.3007 -0.0050
  619SOL    HW1 2641   2.105   1.178   3.195  0.1836 -0.4722  0.0420
  619SOL    HW2 2642   2.014   1.289   3.243  1.1372  0.6673 -0.7298
  620SOL     OW 2643   0.851   0.704   1.527 -0.5747 -0.5650  0.0857
  620SOL    HW1 2644   0.850   0.746   1.613 -1.3779 -0.5843  0.0942
  620SOL    HW2 2645   0.828   0.775   1.466  2.9746  0.2479 -0.5280
  621SOL     OW 2646   1.200   2.852   1.328  0.0340  0.0920 -0.3541
  621SOL    HW1 2647   1.141   2.877   1.257  1.0359  1.0997 -0.8654
  621SOL    HW2 2648   1.279   2.903   1.312  0.6124 -0.3497  0.9830
  622SOL     OW 2649   0.850   2.313   1.363  0.1040 -0.1320 -0.0429
  622SOL    HW1 2650   0.831   2.403   1.334 -0.9930 -0.7051 -1.1914
  622SOL    HW2 2651   0.927   2.322   1.420  0.0097  1.5304 -0.1292
  623SOL     OW 2652   0.319   0.240   2.487  0.1110 -0.3327  0.0176
  623SOL    HW1 2653   0.228   0.233   2.518  0.5979 -0.8420  1.4394
  623SOL    HW2 2654   0.371   0.214   2.563  1.5143  1.7276 -0.1793
  624SOL     OW 2655   0.455   0.800   1.091  0.3726 -0.7672  0.1531
  624SOL    HW1 2656   0.508   0.836   1.020  2.3034 -2.7298  0.5065
  624SOL    HW2 2657   0.365   0.815   1.063  0.9207  3.6940  0.0208
  625SOL     OW 2658   2.155   0.931   0.773 -1.4927 -0.5864 -0.2674
  625SOL    HW1 2659   2.223   0.917   0.707 -3.4860 -1.7138 -2.2244
  625SOL    HW2 2660   2.203   0.955   0.852  1.1109 -0.5756 -1.7282
  626SOL     OW 2661   1.983   2.204   2.403 -0.7528 -0.5707 -0.0718
  626SOL    HW1 2662   1.983   2.109   2.405 -2.1949 -0.5847  1.4986
  626SOL    HW2 2663   1.924   2.227   2.330 -0.4740 -0.8606 -0.3923
  627SOL     OW 2664   2.027   2.379   1.923 -0.6581 -0.0479  0.0293
  627SOL    HW1 2665   1.994   2.325   1.995  0.3332  1.2562  1.5659
  627SOL    HW2 2666   1.961   2.448   1.913 -0.4743  0.1536  0.1815
  628SOL     OW 2667   2.200   3.115   2.718 -0.4461 -0.3996 -0.0830
  628SOL    HW1 2668   2.112   3.102   2.754 -0.9922 -0.0601 -1.2704
  628SOL    HW2 2669   2.238   3.027   2.716 -0.9232 -0.6109  0.0070
  629SOL     OW 2670   0.730   1.403   1.628  0.4098 -0.0048  0.5344
  629SOL    HW1 2671   0.789   1.459   1.678  0.3526  0.1976  0.3784
  629SOL    HW2 2672   0.642   1.432   1.653  0.3796  0.3568  0.0352
  630SOL     OW 2673   1.625   2.264   3.021  0.0165 -0.0489  0.0930
  630SOL    HW1 2674   1.543   2.245   3.066  0.9086  0.2791  1.9955
  630SOL    HW2 2675   1.677   2.184   3.030  0.9292  0.6388  1.4477
  631SOL     OW 2676   3.339   0.315   0.122 -0.2646 -0.2597 -0.2865
  631SOL    HW1 2677   3.402   0.333   0.053  0.5064  0.3784  0.5503
  631SOL    HW2 2678   3.304   0.229   0.101 -0.1096 -0.0423 -1.5010
  632SOL     OW 2679   3.279   3.298   2.738  0.6828 -0.6035  0.2234
  632SOL    HW1 2680   3.264   3.204   2.753  0.4036 -0.6071 -0.0468
  632SOL    HW2 2681   3.314   3.331   2.821  1.6517 -1.1265  0.0335
  633SOL     OW 2682   3.339   3.201   2.425 -0.6516 -0.1151 -0.4235
  633SOL    HW1 2683   3.346   3.192   2.520 -1.4789 -1.7880 -0.4855
  633SOL    HW2 2684   3.283   3.277   2.412 -0.3160  0.2874  0.4096
  634SOL     OW 2685   2.578   0.711   2.421 -0.0612  0.5547  0.3351
  634SOL    HW1 2686   2.486   0.736   2.419 -0.1724  0.0997 -1.1082
  634SOL    HW2 2687   2.587   0.659   2.500 -1.0922  0.4191  0.3780
  635SOL     OW 2688   0.832   1.496   2.139  0.5261 -0.6079  0.0618
  635SOL    HW1 2689   0.844   1.427   2.204 -0.7906  0.9427  2.0700
  635SOL    HW2 2690   0.791   1.452   2.065  0.3865 -2.1173  1.0056
  636SOL     OW 2691   0.086   2.479   1.291  0.3577 -0.1917 -0.2078
  636SOL    HW1 2692   0.129   2.492   1.376  1.7756 -2.0150 -0.5687
  636SOL    HW2 2693   0.022   2.409   1.307  0.4922 -0.4052 -0.5781
  637SOL     OW 2694   2.888   0.735   2.514  0.1763  0.0017  0.1164
  637SOL    HW1 2695   2.842   0.772   2.438 -0.4409  1.1259  0.9990
  637SOL    HW2 2696   2.871   0.641   2.509 -2.8765  0.3990  0.7498
  638SOL     OW 2697   0.015   1.653   0.401 -0.7395  1.0790  0.1811
  638SOL    HW1 2698   0.083   1.711   0.368 -1.0569  1.2721 -0.1364
  638SOL    HW2 2699  -0.058   1.663   0.340 -1.0277  0.8178  0.4745
  639SOL     OW 2700   0.638   0.952   0.049  0.1335 -0.2812  0.1697
  639SOL    HW1 2701   0.568   1.002   0.007  0.5538  0.9788  0.9177
  639SOL    HW2 2702   0.704   0.940  -0.019  0.0806  0.2914  0.0193
  640SOL     OW 2703   1.344   3.224   1.270  0.8043  0.4388  0.5450
  640SOL    HW1 2704   1.367   3.290   1.205  0.5814  0.0256  0.0423
  640SOL    HW2 2705   1.261   3.256   1.307  0.7140  0.4583  0.3284
  641SOL     OW 2706   0.832   1.393   3.318 -0.1716 -0.1531 -0.6025
  641SOL    HW1 2707   0.798   1.307   3.293 -1.5128  0.4478 -0.9226
  641SOL    HW2 2708   0.896   1.415   3.250  0.3615 -0.9888 -0.3852
  642SOL     OW 2709   3.169   0.533   2.670  0.7778 -0.1192 -0.4430
  642SOL    HW1 2710   3.199   0.446   2.694  1.0365  0.4405  1.4811
  642SOL    HW2 2711   3.247   0.576   2.634  0.6260 -0.6879 -1.4792
  643SOL     OW 2712   0.513   1.363   3.175  0.3912 -0.1629  0.4106
  643SOL    HW1 2713   0.558   1.284   3.203 -0.4626 -0.4626  0.9803
  643SOL    HW2 2714   0.551   1.433   3.228 -0.5431 -0.5786  1.6655
  644SOL     OW 2715   1.505   1.470   2.759  0.6292 -0.2614 -0.5435
  644SOL    HW1 2716   1.566   1.518   2.815  1.1827 -0.6888 -0.7773
  644SOL    HW2 2717   1.446   1.538   2.724 -0.7872 -0.1760  1.8318
  645SOL     OW 2718   1.177   0.936   2.636  0.0922  0.2381 -0.1943
  645SOL    HW1 2719   1.143   0.872   2.573 -0.0210 -0.7326  0.8102
  645SOL    HW2 2720   1.104   0.995   2.652 -0.5878 -0.7835  0.6141
  646SOL     OW 2721   0.719   2.085   1.663  0.3115  0.0405 -0.1435
  646SOL    HW1 2722   0.625   2.072   1.676 -0.1619  3.2911  0.6214
  646SOL    HW2 2723   0.726   2.175   1.632  3.1789 -0.3060 -0.7408
  647SOL     OW 2724   0.890   0.228   0.449  0.4780 -0.0410  0.3496
  647SOL    HW1 2725   0.881   0.287   0.523  0.3348  1.4211 -0.7832
  647SOL    HW2 2726   0.935   0.280   0.382 -0.9963 -0.6937 -1.2397
  648SOL     OW 2727   0.000   2.980   2.237 -0.4535 -0.0350  0.0936
  648SOL    HW1 2728  -0.034   3.046   2.297 -0.0307  1.3232 -1.0959
  648SOL    HW2 2729  -0.073   2.920   2.223 -0.5106 -0.4810  2.0559
  649SOL     OW 2730   2.250   1.263   0.112  0.9155 -0.2233  0.2150
  649SOL    HW1 2731   2.221   1.340   0.160 -1.8382  0.1021 -1.7581
  649SOL    HW2 2732   2.296   1.298   0.036  1.1984 -0.5943  0.2104
  650SOL     OW 2733   0.826   1.932   1.288 -0.1767 -0.5313  0.0757
  650SOL    HW1 2734   0.737   1.957   1.313 -0.2569 -0.8889  0.1499
  650SOL    HW2 2735   0.817   1.844   1.251  0.2013 -0.7495  0.4861
  651SOL     OW 2736   1.426   1.457   0.068  0.0753 -0.4850 -0.2311
  651SOL    HW1 2737   1.443   1.516  -0.006 -1.0377 -0.0352 -0.1483
  651SOL    HW2 2738   1.377   1.384   0.029  1.8882 -1.6735 -0.4340
  652SOL     OW 2739   1.826   0.975   0.459 -0.4773 -0.2314 -0.4791
  652SOL    HW1 2740   1.765   1.036   0.418 -0.8420  0.1763  0.6400
  652SOL    HW2 2741   1.839   0.906   0.393 -2.8218 -0.7828 -0.4506
  653SOL     OW 2742   0.591   1.914   1.451 -0.1836  0.4465 -0.1847
  653SOL    HW1 2743   0.664   1.912   1.512 -0.8926  1.3315  0.7272
  653SOL    HW2 2744   0.530   1.848   1.484 -0.6232  1.0121  0.1439
  654SOL     OW 2745   1.484   2.059   2.687 -0.0011 -0.2541 -0.0613
  654SOL    HW1 2746   1.470   1.974   2.728  0.8650  0.9008  2.8802
  654SOL    HW2 2747   1.440   2.122   2.744  1.3041  1.4941 -0.8601
  655SOL     OW 2748   0.983   3.108   2.807  0.5607  0.5200 -0.4016
  655SOL    HW1 2749   0.986   3.193   2.764  0.1262 -0.3442 -2.2526
  655SOL    HW2 2750   0.905   3.066   2.771  0.3087 -0.3570  1.0962
  656SOL     OW 2751   2.538   2.475   0.234 -0.1571  0.3746  0.5583
  656SOL    HW1 2752   2.572   2.510   0.151 -0.0307 -0.1815  0.3733
  656SOL    HW2 2753   2.458   2.428   0.209  0.3662 -0.5601  0.6230
  657SOL     OW 2754   2.398   2.610   3.151 -0.3381 -0.2044  0.1337
  657SOL    HW1 2755   2.309   2.587   3.125 -0.6337  0.5025  0.4853
  657SOL    HW2 2756   2.408   2.573   3.238  0.3860 -1.9139 -0.6375
  658SOL     OW 2757   0.879   0.185   2.592 -0.3357  0.2286  0.0330
  658SOL    HW1 2758   0.940   0.122   2.630 -0.7715  0.7861  1.7600
  658SOL    HW2 2759   0.822   0.133   2.535 -1.7991 -1.3575  2.7172
  659SOL     OW 2760   1.977   2.382   3.054 -0.8081  0.3074  0.1516
  659SOL    HW1 2761   2.024   2.465   3.059 -1.5416  0.6967  0.8812
  659SOL    HW2 2762   2.028   2.323   3.109  0.7227 -0.2751 -1.7686
  660SOL     OW 2763   0.845   1.435   0.903 -0.6317 -0.4904  0.7111
  660SOL    HW1 2764   0.792   1.359   0.927 -1.0559  0.1090  1.7297
  660SOL    HW2 2765   0.918   1.398   0.854 -1.6934 -1.3885 -0.2666
  661SOL     OW 2766   1.279   0.746   2.300  0.5766 -0.3391  0.0577
  661SOL    HW1 2767   1.197   0.724   2.344  0.8979 -1.1498  0.2815
  661SOL    HW2 2768   1.267   0.836   2.269 -0.5478 -0.5927 -0.2864
  662SOL     OW 2769   2.677   1.093   0.710  0.1106 -0.1566 -0.3369
  662SOL    HW1 2770   2.587   1.098   0.743 -0.1382  1.5758 -1.1829
  662SOL    HW2 2771   2.678   1.014   0.656 -0.8051 -0.3674 -0.0666
  663SOL     OW 2772   3.221   1.763   0.830 -0.5281 -0.4736 -0.2134
  663SOL    HW1 2773   3.307   1.782   0.794 -0.8054  0.9321 -0.2066
  663SOL    HW2 2774   3.235   1.687   0.888  0.1878 -1.8714 -2.1285
  664SOL     OW 2775   1.815   1.743   3.326 -0.1497 -0.0776 -0.0135
  664SOL    HW1 2776   1.835   1.688   3.402  0.2674  0.6488  0.4207
  664SOL    HW2 2777   1.720   1.754   3.329 -0.0319  0.8338  1.0483
  665SOL     OW 2778   2.595   0.022   3.047 -0.5190  0.3899  0.3980
  665SOL    HW1 2779   2.538  -0.054   3.038 -1.6897  1.2880 -0.1102
  665SOL    HW2 2780   2.647   0.023   2.966 -0.4733  0.0976  0.4255
  666SOL     OW 2781   1.865   1.573   3.122 -0.3565 -0.1173  0.2058
  666SOL    HW1 2782   1.841   1.656   3.163  1.3840  1.4611 -1.7421
  666SOL    HW2 2783   1.915   1.526   3.189 -1.5468  0.2717  1.4024
  667SOL     OW 2784   2.415   1.466   1.067 -0.6376 -0.4062  0.1016
  667SOL    HW1 2785   2.476   1.508   1.128 -0.5986  1.5048 -1.1809
  667SOL    HW2 2786   2.471   1.429   0.998 -0.8000 -0.9819  0.2664
  668SOL     OW 2787   1.233   0.366   3.208  0.4951 -0.1692 -0.3192
  668SOL    HW1 2788   1.277   0.287   3.240 -0.1172 -0.9303 -1.2887
  668SOL    HW2 2789   1.140   0.341   3.203  0.3993  0.3273 -1.4131
  669SOL     OW 2790   0.525   2.367   2.717 -0.0543 -0.1266  0.1768
  669SOL    HW1 2791   0.486   2.287   2.753 -1.6011 -0.1710 -1.4628
  669SOL    HW2 2792   0.561   2.341   2.632 -0.2857  0.8353 -0.2351
  670SOL     OW 2793   2.410   1.129   0.780  0.1471 -0.2249 -0.4916
  670SOL    HW1 2794   2.427   1.223   0.791 -0.0433 -0.2892  0.4896
  670SOL    HW2 2795   2.323   1.125   0.741 -0.0676  0.0005 -0.0445
  671SOL     OW 2796   0.596   2.308   1.513 -0.0830 -0.0530 -0.1101
  671SOL    HW1 2797   0.671   2.325   1.456  0.7498 -1.3470  0.5470
  671SOL    HW2 2798   0.617   2.353   1.595  0.3235 -0.9919  0.3141
  672SOL     OW 2799   1.308   2.407   1.719 -0.1246 -0.6852  0.0738
  672SOL    HW1 2800   1.380   2.347   1.699  0.1258 -0.4450  0.2393
  672SOL    HW2 2801   1.239   2.352   1.754 -0.2371 -0.9958 -0.6104
  673SOL     OW 2802   1.990   2.634   2.799 -0.2766 -0.8779 -0.1767
  673SOL    HW1 2803   1.949   2.715   2.766 -1.2143 -1.7618 -1.2878
  673SOL    HW2 2804   2.031   2.596   2.721  0.2833 -1.4048  0.3737
  674SOL     OW 2805   0.887   2.290   0.770 -0.1200  0.3560 -0.3849
  674SOL    HW1 2806   0.836   2.364   0.803 -0.1635  0.7529 -1.3013
  674SOL    HW2 2807   0.836   2.213   0.794 -1.9086  0.7893 -2.4117
  675SOL     OW 2808   0.623   0.620   3.371  0.6401  0.1062 -0.4353
  675SOL    HW1 2809   0.619   0.654   3.282 -0.5840 -1.8087 -1.1702
  675SOL    HW2 2810   0.575   0.684   3.423  0.2046  0.5715 -1.3848
  676SOL     OW 2811   1.803   2.407   0.087  0.0921 -0.2674  0.2796
  676SOL    HW1 2812   1.761   2.430   0.005 -0.8271  0.6321  0.9767
  676SOL    HW2 2813   1.855   2.329   0.067 -1.4402 -1.0692 -0.7561
  677SOL     OW 2814   1.317   1.928   3.348  0.4529  0.2614  0.1679
  677SOL    HW1 2815   1.361   1.858   3.301  0.3412  0.6735 -0.5722
  677SOL    HW2 2816   1.384   1.965   3.405  1.1152  0.9147 -0.9809
  678SOL     OW 2817   0.332   2.343   1.756  0.1238  0.2814  0.1191
  678SOL    HW1 2818   0.304   2.372   1.842 -0.2943  2.0198 -0.5671
  678SOL    HW2 2819   0.275   2.269   1.736 -1.5949  1.5113  0.2661
  679SOL     OW 2820   2.560   0.806   0.631  0.0467 -0.3268 -0.8121
  679SOL    HW1 2821   2.511   0.775   0.707  0.6659 -0.6492 -0.5398
  679SOL    HW2 2822   2.651   0.781   0.648  0.4020  0.7262 -1.0647
  680SOL     OW 2823   0.828   2.402   0.281  0.0866 -0.5576 -0.0482
  680SOL    HW1 2824   0.894   2.387   0.212  0.2804 -3.3238  0.6118
  680SOL    HW2 2825   0.772   2.325   0.277 -1.7887  0.6945  0.9056
  681SOL     OW 2826   0.649   2.877   0.663 -0.4847  0.4397 -0.1990
  681SOL    HW1 2827   0.565   2.875   0.708 -0.4036  1.4373  0.0181
  681SOL    HW2 2828   0.630   2.844   0.575 -0.6268 -1.5960  0.5316
  682SOL     OW 2829   1.803   0.318   1.472  0.1427  0.4077  0.4497
  682SOL    HW1 2830   1.847   0.403   1.473  0.3178  0.3393  2.2976
  682SOL    HW2 2831   1.867   0.258   1.433  0.3035  0.9654 -0.1610
  683SOL     OW 2832   1.853   2.406   1.461  0.0288  0.4151 -0.1326
  683SOL    HW1 2833   1.940   2.374   1.484 -0.1395 -0.4147 -0.5863
  683SOL    HW2 2834   1.840   2.378   1.370 -1.8607 -2.2311  0.7923
  684SOL     OW 2835   0.323   0.277   0.108  0.9752  0.0955 -0.2469
  684SOL    HW1 2836   0.265   0.202   0.092 -0.2434  1.1793 -1.1630
  684SOL    HW2 2837   0.317   0.329   0.028  0.4001  2.0632  1.0182
  685SOL     OW 2838   2.809   0.530   1.259 -0.8670  0.0192  0.4085
  685SOL    HW1 2839   2.784   0.585   1.333  0.3062 -0.0706  0.8766
  685SOL    HW2 2840   2.761   0.448   1.273 -0.9511  0.1412  0.8533
  686SOL     OW 2841   0.609   1.402   0.598 -0.0860  0.7618 -0.2060
  686SOL    HW1 2842   0.610   1.339   0.670 -1.4611  0.8906 -0.0429
  686SOL    HW2 2843   0.686   1.380   0.546 -0.7119 -1.3358 -0.3774
  687SOL     OW 2844   1.035   2.604   2.041  0.5551  0.2696 -0.2683
  687SOL    HW1 2845   1.039   2.509   2.033 -0.8688  0.1537 -0.0043
  687SOL    HW2 2846   0.959   2.629   1.987  0.3803  1.1482  0.3613
  688SOL     OW 2847   0.344   0.474   0.651  0.3160  0.2116 -0.3469
  688SOL    HW1 2848   0.267   0.417   0.659  1.0312 -0.6325  0.8715
  688SOL    HW2 2849   0.365   0.472   0.558 -1.5868  1.0902 -0.8361
  689SOL     OW 2850   1.296   3.265   2.531  0.2250 -0.1947  0.3205
  689SOL    HW1 2851   1.275   3.173   2.514 -0.5781 -0.0079  0.2199
  689SOL    HW2 2852   1.391   3.270   2.527  0.2071 -0.6096 -1.8813
  690SOL     OW 2853   0.691   1.491   0.192  0.2387  0.6154 -0.2522
  690SOL    HW1 2854   0.682   1.414   0.136 -0.6752  0.1954  0.4394
  690SOL    HW2 2855   0.735   1.459   0.271 -0.4063  0.7326  0.1613
  691SOL     OW 2856   1.074   0.081   0.612 -0.3749 -0.2578 -0.1471
  691SOL    HW1 2857   1.018   0.007   0.635  0.9277 -0.7168  1.7854
  691SOL    HW2 2858   1.044   0.152   0.668 -0.1059 -0.0353 -0.2820
  692SOL     OW 2859   1.767   2.250   0.556  0.8639  0.2329  0.0122
  692SOL    HW1 2860   1.858   2.267   0.580  0.7888  3.4940 -1.3944
  692SOL    HW2 2861   1.722   2.333   0.572 -0.8550  0.1612 -3.4482
  693SOL     OW 2862   1.428   2.136   1.647  0.2989  0.3344  0.1592
  693SOL    HW1 2863   1.506   2.189   1.632  0.5751 -0.1540 -0.1490
  693SOL    HW2 2864   1.372   2.153   1.571  0.3257  0.2959  0.1308
  694SOL     OW 2865   2.616   0.520   2.624  0.1094  0.5516  0.3727
  694SOL    HW1 2866   2.569   0.442   2.595 -0.2004  0.3414  1.3880
  694SOL    HW2 2867   2.708   0.499   2.608  0.0048  0.1223  0.2958
  695SOL     OW 2868   3.043   3.117   1.574  0.2910  0.0547 -0.2462
  695SOL    HW1 2869   3.093   3.179   1.626  0.5298 -1.2123  1.1016
  695SOL    HW2 2870   3.063   3.031   1.612  0.8272 -1.0152 -2.6960
  696SOL     OW 2871   0.505   0.326   2.843  0.1838 -0.1155 -0.0860
  696SOL    HW1 2872   0.421   0.364   2.817  1.4994  2.0627 -1.4751
  696SOL    HW2 2873   0.525   0.262   2.774  0.0854  0.0420 -0.2616
  697SOL     OW 2874   0.669   2.130   3.325  0.8631 -0.0935  0.1199
  697SOL    HW1 2875   0.693   2.162   3.412  1.5887 -1.0479  0.2891
  697SOL    HW2 2876   0.753   2.116   3.281  0.5094  0.0862 -0.6324
  698SOL     OW 2877   1.107   1.728   2.795 -0.3986  0.0279 -0.0581
  698SOL    HW1 2878   1.173   1.686   2.741  0.6081  1.7770 -0.2373
  698SOL    HW2 2879   1.073   1.799   2.741 -3.1694 -1.3642 -0.3525
  699SOL     OW 2880   2.973   0.812   2.805 -0.6549 -0.4503  0.3030
  699SOL    HW1 2881   2.965   0.806   2.709  1.0090 -1.1310  0.1658
  699SOL    HW2 2882   2.922   0.738   2.837 -1.7587  0.1602 -0.0132
  700SOL     OW 2883   0.731   1.796   0.215  0.0121 -0.1066 -0.0350
  700SOL    HW1 2884   0.814   1.840   0.235  0.7201 -1.5424  0.3527
  700SOL    HW2 2885   0.756   1.723   0.158 -1.1604  0.1437 -0.9016
  701SOL     OW 2886   2.511   0.423   1.866  0.1503 -0.6417 -0.1499
  701SOL    HW1 2887   2.514   0.328   1.866  1.4858 -0.6201 -0.1268
  701SOL    HW2 2888   2.547   0.448   1.951  1.6437 -0.1103 -0.9025
  702SOL     OW 2889   3.154   3.283   1.750  0.1194 -0.1715  0.0783
  702SOL    HW1 2890   3.069   3.327   1.746  0.4095  0.3703 -0.0905
  702SOL    HW2 2891   3.175   3.281   1.844  0.2255  0.2783  0.0657
  703SOL     OW 2892   2.999   0.288   3.051 -0.3061  0.2421 -0.0213
  703SOL    HW1 2893   3.037   0.370   3.082  2.4447 -0.5620 -0.9772
  703SOL    HW2 2894   2.960   0.310   2.966  1.6923  0.3705 -0.9708
  704SOL     OW 2895   1.882   2.220   0.293 -0.1079 -0.4946 -0.3054
  704SOL    HW1 2896   1.846   2.298   0.251 -0.0172 -0.7796 -0.9175
  704SOL    HW2 2897   1.838   2.216   0.378 -0.8896 -0.3641 -0.6992
  705SOL     OW 2898   3.059   0.742   3.175 -0.4855 -0.0533 -0.0407
  705SOL    HW1 2899   3.108   0.775   3.250 -1.8235  0.4979  0.6109
  705SOL    HW2 2900   3.023   0.658   3.205  1.2116 -1.1934 -1.0083
  706SOL     OW 2901   0.922   0.926   0.627  0.2774  0.0914  0.1310
  706SOL    HW1 2902   0.954   0.983   0.556 -3.2579 -1.4463 -3.0253
  706SOL    HW2 2903   1.001   0.881   0.658  2.1016  1.0601 -2.6608
  707SOL     OW 2904   1.112   2.522   0.375  0.3325 -0.6491 -0.1739
  707SOL    HW1 2905   1.140   2.464   0.304  0.2011 -0.1426 -0.6477
  707SOL    HW2 2906   1.078   2.463   0.442 -1.4454 -1.0728 -1.3643
  708SOL     OW 2907   1.357   3.281   3.030  0.4803  0.2131  0.0411
  708SOL    HW1 2908   1.452   3.288   3.032  0.4620  0.8409 -0.7441
  708SOL    HW2 2909   1.340   3.200   2.982  0.6266  0.3065 -0.1752
  709SOL     OW 2910   0.326   2.187   3.100  0.9651  0.2155  0.4299
  709SOL    HW1 2911   0.417   2.201   3.073  1.0615 -0.7234  0.2307
  709SOL    HW2 2912   0.331   2.114   3.162  0.1073 -1.3409 -1.2668
  710SOL     OW 2913   0.738   3.365   2.472 -0.3513  0.2609 -0.4680
  710SOL    HW1 2914   0.648   3.375   2.440 -1.0577 -1.0794  1.0071
  710SOL    HW2 2915   0.736   3.287   2.527  1.7002  0.2901 -0.2771
  711SOL     OW 2916   1.712   2.178   1.925  0.0105  0.3760 -0.1801
  711SOL    HW1 2917   1.753   2.097   1.894  0.5739  0.0887  1.2724
  711SOL    HW2 2918   1.618   2.159   1.924  0.1545 -0.3749  0.3747
  712SOL     OW 2919   2.935   0.951   3.038 -0.0014 -0.3709  0.1405
  712SOL    HW1 2920   2.974   0.896   3.106  1.0649  0.4297  0.2094
  712SOL    HW2 2921   2.948   0.902   2.957 -0.3848 -0.8805  0.3844
  713SOL     OW 2922   0.258   1.335   1.489  0.1665 -0.3540  0.3002
  713SOL    HW1 2923   0.303   1.414   1.460  0.9958 -0.2127  1.8482
  713SOL    HW2 2924   0.196   1.365   1.555 -1.1931 -0.7355 -0.7648
  714SOL     OW 2925   0.766   1.156   0.204  0.2558 -0.3559  0.0231
  714SOL    HW1 2926   0.733   1.112   0.282 -2.5386  0.4797 -0.5686
  714SOL    HW2 2927   0.741   1.099   0.132  2.0623 -0.7071 -0.3629
  715SOL     OW 2928   1.335   2.216   0.219 -0.2841 -0.5314 -0.6896
  715SOL    HW1 2929   1.377   2.131   0.233 -1.2890 -0.9362  0.0099
  715SOL    HW2 2930   1.328   2.224   0.124  0.0761 -1.0993 -0.7704
  716SOL     OW 2931   0.447   0.194   1.241  0.2888 -0.6822  0.2987
  716SOL    HW1 2932   0.387   0.127   1.211 -0.9998  0.3756  0.4224
  716SOL    HW2 2933   0.495   0.153   1.313  0.6025 -1.9291 -0.5748
  717SOL     OW 2934   2.298   2.057   1.144 -0.1815 -0.1680 -0.0197
  717SOL    HW1 2935   2.314   1.964   1.126 -1.1562 -0.3013 -0.2321
  717SOL    HW2 2936   2.211   2.059   1.184 -0.1879  0.6628 -0.0657
  718SOL     OW 2937   1.369   3.248   0.764 -0.5327  0.2638  0.8314
  718SOL    HW1 2938   1.445   3.239   0.822 -0.6388  0.1059  0.9498
  718SOL    HW2 2939   1.371   3.169   0.710 -1.0388 -0.1221  1.3527
  719SOL     OW 2940   1.336   1.074   0.810  0.6471 -0.0851 -0.3017
  719SOL    HW1 2941   1.376   1.056   0.895  0.0768 -2.8584 -0.5235
  719SOL    HW2 2942   1.270   1.141   0.829  1.3819  0.2679  1.1817
  720SOL     OW 2943   0.704   2.410   0.544 -0.0760  0.2919  0.8190
  720SOL    HW1 2944   0.751   2.430   0.463  0.9505  1.0724  1.5657
  720SOL    HW2 2945   0.677   2.319   0.535 -1.4775  0.8476 -1.0909
  721SOL     OW 2946   1.017   0.676   3.267 -0.1178 -0.0523 -1.0506
  721SOL    HW1 2947   1.042   0.641   3.181  1.5594 -0.4641 -0.4456
  721SOL    HW2 2948   1.036   0.604   3.328 -1.6030  0.1151 -0.3479
  722SOL     OW 2949   1.618   1.180   0.352 -0.5641  0.1087 -0.3760
  722SOL    HW1 2950   1.667   1.261   0.364  0.8885 -0.9846  1.7938
  722SOL    HW2 2951   1.551   1.182   0.420 -1.1841 -0.0643 -0.9681
  723SOL     OW 2952   0.484   3.098   2.375 -0.1709 -0.4977  0.3069
  723SOL    HW1 2953   0.551   3.097   2.307 -1.3923  0.7510 -0.9929
  723SOL    HW2 2954   0.466   3.191   2.389 -1.0432 -0.7854  1.2065
  724SOL     OW 2955   3.366   1.969   3.304 -0.7525 -0.3483 -0.0515
  724SOL    HW1 2956   3.435   1.903   3.294  0.6829  1.2636 -1.5132
  724SOL    HW2 2957   3.316   1.964   3.223 -2.6270 -1.6897  1.1066
  725SOL     OW 2958   0.611   2.741   1.703  0.2650 -0.2776 -0.0203
  725SOL    HW1 2959   0.674   2.739   1.631 -1.3423 -0.1386 -1.4944
  725SOL    HW2 2960   0.566   2.657   1.698 -2.0877  0.9605 -1.3200
  726SOL     OW 2961   1.452   0.508   0.754 -0.0197  0.4845 -0.7847
  726SOL    HW1 2962   1.514   0.567   0.711 -0.6480  0.8556 -1.1925
  726SOL    HW2 2963   1.403   0.467   0.682 -2.7876  2.9451 -0.4610
  727SOL     OW 2964   2.168   0.155   1.758 -0.2811  0.2257 -0.4208
  727SOL    HW1 2965   2.230   0.122   1.824  0.1544  0.0612 -0.9064
  727SOL    HW2 2966   2.107   0.209   1.808 -1.0122 -1.2973  0.3974
  728SOL     OW 2967   2.145   1.340   1.061 -0.1367  0.0112  0.1705
  728SOL    HW1 2968   2.168   1.249   1.083 -0.8228 -0.1488  0.2372
  728SOL    HW2 2969   2.230   1.385   1.055  0.2329 -0.7186 -0.2430
  729SOL     OW 2970   0.959   1.278   3.007 -0.1542 -0.1525  0.0988
  729SOL    HW1 2971   1.033   1.269   2.946 -0.2800  1.4970 -0.3604
  729SOL    HW2 2972   0.986   1.348   3.066 -1.2412  0.2864  0.0863
  730SOL     OW 2973   0.981   1.086   3.167 -0.0506  0.4230  0.2469
  730SOL    HW1 2974   0.957   1.145   3.096 -0.4102 -0.1576 -0.1197
  730SOL    HW2 2975   1.072   1.109   3.188 -0.0552  0.8305 -0.1627
  731SOL     OW 2976   2.921   0.451   2.613  0.6443 -0.0403 -0.1222
  731SOL    HW1 2977   2.937   0.366   2.571  0.6933  0.9204 -2.1769
  731SOL    HW2 2978   3.007   0.489   2.625  0.6144 -0.2112  0.6959
  732SOL     OW 2979   1.895   0.993   0.881  0.0832 -0.4512 -0.1969
  732SOL    HW1 2980   1.990   0.987   0.876  0.0725 -1.2321  0.4039
  732SOL    HW2 2981   1.867   0.906   0.908 -0.8234 -0.2923 -0.5967
  733SOL     OW 2982   0.201   3.146   3.029  0.3357  0.0202  0.1321
  733SOL    HW1 2983   0.130   3.119   2.970  0.5984 -1.4816  0.4626
  733SOL    HW2 2984   0.262   3.072   3.028 -0.5699 -0.9499  3.7136
  734SOL     OW 2985   3.184   2.168   3.112  0.4199 -0.1558  0.1168
  734SOL    HW1 2986   3.104   2.218   3.096 -0.2898 -0.6308  1.8927
  734SOL    HW2 2987   3.241   2.188   3.038 -1.9689 -1.1425 -2.1280
  735SOL     OW 2988   2.952   2.563   1.405 -0.0130  0.3679  0.2062
  735SOL    HW1 2989   2.892   2.578   1.478 -1.2757 -0.5774 -0.5844
  735SOL    HW2 2990   2.949   2.468   1.390 -0.4927  0.6347 -1.6229
  736SOL     OW 2991   0.387   0.591   3.064 -0.0510 -0.5378  0.3851
  736SOL    HW1 2992   0.305   0.615   3.021 -1.3084 -1.4024  2.1622
  736SOL    HW2 2993   0.453   0.597   2.995 -1.3697  1.4268 -0.8120
  737SOL     OW 2994   2.841   0.619   2.968  0.5453 -0.3908  0.2146
  737SOL    HW1 2995   2.747   0.633   2.975  0.3798 -0.8011 -0.9347
  737SOL    HW2 2996   2.875   0.638   3.056 -0.6869 -0.8791  0.8228
  738SOL     OW 2997   0.653   1.784   0.898 -0.5122 -0.5474  0.0275
  738SOL    HW1 2998   0.571   1.798   0.852  0.9805  1.5220 -2.3032
  738SOL    HW2 2999   0.666   1.689   0.897 -1.4815 -0.7157 -2.2538
  739SOL     OW 3000   0.599   0.148   0.419  0.2636  0.0779  0.4373
  739SOL    HW1 3001   0.603   0.098   0.501  2.9311  0.0324  0.3769
  739SOL    HW2 3002   0.683   0.193   0.415 -0.4024  1.2454 -1.5872
  740SOL     OW 3003   1.743   3.316   2.771 -0.9110  0.0871 -0.0541
  740SOL    HW1 3004   1.678   3.376   2.735  1.4328  0.9877 -3.2077
  740SOL    HW2 3005   1.732   3.235   2.722 -0.2087 -0.0229 -0.0460
  741SOL     OW 3006   0.646   0.512   1.480 -0.9494  0.5318  0.0204
  741SOL    HW1 3007   0.584   0.525   1.553 -0.8195 -0.1709  0.2572
  741SOL    HW2 3008   0.709   0.583   1.491 -1.4003  0.9321  0.0999
  742SOL     OW 3009   1.211   0.444   2.651 -0.0967 -0.3448 -0.1116
  742SOL    HW1 3010   1.286   0.501   2.631 -0.2419 -0.5811 -1.3935
  742SOL    HW2 3011   1.232   0.407   2.736  0.7521  0.4049  0.0293
  743SOL     OW 3012   0.263   0.533   2.539  0.3864  0.1753  0.3845
  743SOL    HW1 3013   0.275   0.443   2.567 -0.8747  0.0883  0.7059
  743SOL    HW2 3014   0.219   0.527   2.454 -1.0430  0.4806  1.0818
  744SOL     OW 3015   3.338   0.890   3.017  0.1813  0.5538 -0.2954
  744SOL    HW1 3016   3.258   0.856   3.058 -0.4144  0.4945 -1.4739
  744SOL    HW2 3017   3.320   0.983   3.002  0.2169  0.4790 -0.8186
  745SOL     OW 3018   2.873   2.694   1.795  0.0254 -0.3043 -0.1815
  745SOL    HW1 3019   2.838   2.633   1.730  0.3315  0.8185 -1.4484
  745SOL    HW2 3020   2.846   2.658   1.879 -1.8202 -0.9301 -0.9885
  746SOL     OW 3021   2.221   3.071   1.613 -0.1659 -0.0034  0.0373
  746SOL    HW1 3022   2.285   3.108   1.553  0.2751  1.6024  1.3995
  746SOL    HW2 3023   2.238   2.977   1.613  1.6552  0.2946 -0.2508
  747SOL     OW 3024   0.630   0.353   0.072  0.1530 -0.4690 -0.2698
  747SOL    HW1 3025   0.551   0.313   0.108  1.1434 -0.6703  1.8097
  747SOL    HW2 3026   0.613   0.447   0.077 -0.2677 -0.5270 -0.5885
  748SOL     OW 3027   2.674   0.025   2.757 -0.0095  0.2906 -0.7032
  748SOL    HW1 3028   2.758  -0.003   2.794  0.3391  1.1347 -0.8185
  748SOL    HW2 3029   2.678   0.000   2.665 -0.1316 -0.1976 -0.5781
  749SOL     OW 3030   0.650   0.929   3.066  0.1197 -0.7557 -0.4969
  749SOL    HW1 3031   0.724   0.908   3.123  0.9207 -0.2000 -1.3113
  749SOL    HW2 3032   0.579   0.874   3.099  0.1813  0.4342  1.8146
  750SOL     OW 3033   3.240   0.089   2.996  0.0925 -0.0976  0.4155
  750SOL    HW1 3034   3.244   0.037   3.077 -0.4207 -0.7576  0.0262
  750SOL    HW2 3035   3.167   0.148   3.010  0.7965  0.6743  0.9376
  751SOL     OW 3036   0.776   1.666   2.541  0.0400  0.8869 -0.5011
  751SOL    HW1 3037   0.750   1.731   2.607 -0.8172  0.6956 -0.6382
  751SOL    HW2 3038   0.713   1.678   2.470 -0.7132 -0.6951 -0.1462
  752SOL     OW 3039   2.970   3.009   2.081  0.5802  0.2632 -0.1944
  752SOL    HW1 3040   3.039   2.992   2.145  1.2838  2.2482 -0.3673
  752SOL    HW2 3041   2.894   3.035   2.134  1.2550  2.2198 -0.0952
  753SOL     OW 3042   1.753   2.169   0.954 -0.4598  0.3864  0.3345
  753SOL    HW1 3043   1.683   2.234   0.964 -1.5782 -0.4092 -1.6931
  753SOL    HW2 3044   1.722   2.111   0.884  0.2786 -2.6286  2.2979
  754SOL     OW 3045   1.813   2.335   1.200 -0.1160  0.0604 -0.2982
  754SOL    HW1 3046   1.773   2.329   1.113  1.0507  0.6287 -0.8952
  754SOL    HW2 3047   1.793   2.250   1.241 -1.3312  0.0737 -0.8096
  755SOL     OW 3048   2.881   2.296   1.393  0.1564 -0.1493 -0.3582
  755SOL    HW1 3049   2.801   2.245   1.402  0.1889 -0.5653 -2.0535
  755SOL    HW2 3050   2.897   2.298   1.299  2.6790 -0.9236 -0.0163
  756SOL     OW 3051   2.948   1.472   0.638  0.1176 -0.0884 -0.0884
  756SOL    HW1 3052   2.908   1.477   0.551 -0.1111  2.4294  0.0946
  756SOL    HW2 3053   3.041   1.489   0.624  0.3567 -1.1916  0.0306
  757SOL     OW 3054   1.129   0.772   0.904 -0.2737  0.1499 -0.1135
  757SOL    HW1 3055   1.092   0.723   0.976 -0.1668 -0.8450 -0.7147
  757SOL    HW2 3056   1.212   0.728   0.884  0.0031  0.7891 -0.4342
  758SOL     OW 3057   3.216   3.009   1.917  0.1147  0.6681 -0.5234
  758SOL    HW1 3058   3.150   2.958   1.965  0.3075  0.7842 -0.1337
  758SOL    HW2 3059   3.239   2.953   1.842 -0.4184  0.6233 -0.6614
  759SOL     OW 3060   1.459   0.656   0.001  0.0190 -0.1807  0.0337
  759SOL    HW1 3061   1.464   0.661   0.097  0.1335 -0.3812  0.0380
  759SOL    HW2 3062   1.532   0.710  -0.029 -0.7455  0.8894  0.0422
  760SOL     OW 3063   1.639   0.043   0.555  0.5014  0.3150 -0.0675
  760SOL    HW1 3064   1.699   0.008   0.622 -0.3836 -1.0133  0.0656
  760SOL    HW2 3065   1.566  -0.019   0.553 -0.4362  1.3968 -0.8888
  761SOL     OW 3066   3.024   1.772   0.619 -0.3658 -0.4048 -0.1719
  761SOL    HW1 3067   3.078   1.724   0.682  0.2639  0.8508  0.2830
  761SOL    HW2 3068   3.077   1.848   0.595 -0.5861 -0.8546 -2.2687
  762SOL     OW 3069   0.124   0.823   3.227 -0.1849 -0.0094  0.2886
  762SOL    HW1 3070   0.062   0.880   3.181 -0.2239  0.3944  0.8296
  762SOL    HW2 3071   0.096   0.734   3.205  0.2202  0.1768 -1.0229
  763SOL     OW 3072   2.376   2.282   0.110 -0.3945 -0.3172  0.3184
  763SOL    HW1 3073   2.455   2.228   0.109 -0.6478 -0.8175 -2.4405
  763SOL    HW2 3074   2.323   2.247   0.181  1.4577 -0.5142  1.6837
  764SOL     OW 3075   1.089   2.345   2.144  0.3086 -0.4487  0.3616
  764SOL    HW1 3076   1.176   2.329   2.108  0.7972  0.8208  0.9333
  764SOL    HW2 3077   1.100   2.418   2.204 -1.5050  1.1290 -1.0563
  765SOL     OW 3078   2.185   1.514   0.192 -0.4921  0.2943  0.0220
  765SOL    HW1 3079   2.217   1.590   0.144 -0.7432  0.3706 -0.0268
  765SOL    HW2 3080   2.209   1.531   0.283 -1.4601  0.9334  0.1810
  766SOL     OW 3081   2.032   2.082   1.214 -0.0176 -0.2207  0.1317
  766SOL    HW1 3082   1.952   2.092   1.162  0.1409 -1.2467 -0.3313
  766SOL    HW2 3083   2.002   2.089   1.305 -1.1904 -3.5210  0.1244
  767SOL     OW 3084   1.116   1.723   1.296  0.2259  0.0153 -0.0661
  767SOL    HW1 3085   1.062   1.678   1.231  0.0566 -3.4704  2.2110
  767SOL    HW2 3086   1.202   1.682   1.287  0.3406 -0.1161  1.4509
  768SOL     OW 3087   2.012   2.304   0.625  0.1038  0.0036 -0.2718
  768SOL    HW1 3088   2.074   2.231   0.634 -1.3313 -1.2142  0.1811
  768SOL    HW2 3089   2.005   2.340   0.714 -0.3102 -0.2848 -0.1829
  769SOL     OW 3090   0.542   1.515   2.940 -0.1077 -1.0041 -0.4733
  769SOL    HW1 3091   0.552   1.604   2.975 -0.8606 -0.2464 -2.0863
  769SOL    HW2 3092   0.523   1.461   3.017  0.8541  0.1329  0.6064
  770SOL     OW 3093   3.231   0.366   1.759 -0.1489  0.4028  0.7347
  770SOL    HW1 3094   3.181   0.393   1.682  0.8382 -0.0596 -0.0896
  770SOL    HW2 3095   3.312   0.330   1.723  1.2142  1.9854  2.0497
  771SOL     OW 3096   3.357   1.561   0.945 -0.2272 -0.1087 -0.3896
  771SOL    HW1 3097   3.384   1.562   0.853 -2.5453 -4.0568 -1.4120
  771SOL    HW2 3098   3.403   1.486   0.982 -2.1571 -0.9259  0.4908
  772SOL     OW 3099   2.112   0.900   3.251  0.3781  0.0039 -0.1718
  772SOL    HW1 3100   2.085   0.904   3.159 -0.3928 -2.5384 -0.1272
  772SOL    HW2 3101   2.182   0.834   3.253  1.9369  1.5801  0.7956
  773SOL     OW 3102   2.566   1.563   0.598  0.1886  0.3050  0.0028
  773SOL    HW1 3103   2.617   1.512   0.535  2.1657  1.9191  0.1718
  773SOL    HW2 3104   2.623   1.571   0.674 -0.5309  1.7564  0.4243
  774SOL     OW 3105   2.889   2.403   1.660  0.2870  0.1209  0.3587
  774SOL    HW1 3106   2.902   2.333   1.596  2.3361  0.4191  0.3826
  774SOL    HW2 3107   2.806   2.444   1.634  0.1453 -0.9345 -0.9682
  775SOL     OW 3108   2.448   0.990   3.311 -0.5584 -0.6304  0.1596
  775SOL    HW1 3109   2.460   1.028   3.398 -0.7705  0.7324 -0.3825
  775SOL    HW2 3110   2.534   0.996   3.270 -1.0015  1.1117 -0.6134
  776SOL     OW 3111   0.514   1.234   1.147  0.1844  0.1232  0.5448
  776SOL    HW1 3112   0.561   1.228   1.230 -1.0607  1.2203  1.3719
  776SOL    HW2 3113   0.423   1.212   1.168 -0.4765  1.9076 -0.1719
  777SOL     OW 3114   2.869   0.810   0.090 -0.2795 -0.2058 -0.4209
  777SOL    HW1 3115   2.954   0.782   0.058 -1.4679 -2.5910 -1.8274
  777SOL    HW2 3116   2.849   0.890   0.042 -0.4106 -1.7200 -3.0548
  778SOL     OW 3117   2.966   0.623   0.682 -0.1082  0.1123 -0.6489
  778SOL    HW1 3118   2.912   0.681   0.628 -2.4043 -0.4282  0.9437
  778SOL    HW2 3119   3.014   0.682   0.740 -2.0713  0.5302  0.6420
  779SOL     OW 3120   0.622   2.011   2.934 -0.1566  0.4035 -0.2537
  779SOL    HW1 3121   0.655   1.969   3.013  2.4397 -1.3950 -2.0992
  779SOL    HW2 3122   0.668   2.094   2.929 -2.1786  1.7002  1.2762
  780SOL     OW 3123   2.580   2.116   1.248  0.4107 -0.0212  0.1516
  780SOL    HW1 3124   2.578   2.193   1.304 -1.6270  0.1129 -0.0339
  780SOL    HW2 3125   2.492   2.109   1.213  1.6077  0.0282 -3.2875
  781SOL     OW 3126   2.223   3.186   1.890 -0.5034  0.0479 -0.4182
  781SOL    HW1 3127   2.209   3.159   1.799 -0.3056 -3.0820  0.3647
  781SOL    HW2 3128   2.171   3.124   1.941  1.5284 -0.0231  1.7194
  782SOL     OW 3129   1.362   2.909   2.729 -0.1599  0.6699 -0.0884
  782SOL    HW1 3130   1.309   2.950   2.661  1.2639  0.8333 -1.1547
  782SOL    HW2 3131   1.328   2.946   2.811 -2.7423 -0.4839 -0.5447
  783SOL     OW 3132   1.552   2.088   1.345  0.0914  0.3201  0.0728
  783SOL    HW1 3133   1.526   2.074   1.254  0.4793  2.2948 -0.3997
  783SOL    HW2 3134   1.472   2.118   1.388 -0.1774 -0.9426  0.5082
  784SOL     OW 3135   1.053   2.041   0.067  0.2910 -0.1689  0.3557
  784SOL    HW1 3136   1.008   1.967   0.027  1.0611 -0.7253  0.4775
  784SOL    HW2 3137   1.146   2.022   0.053  0.4889  1.6493 -1.1426
  785SOL     OW 3138   3.347   0.414   0.969 -0.1749 -0.5163  0.4155
  785SOL    HW1 3139   3.338   0.339   1.027  0.0811 -1.4350 -0.6831
  785SOL    HW2 3140   3.429   0.398   0.921 -0.5619  0.0062 -0.4526
  786SOL     OW 3141   0.364   0.345   3.190  0.3344  0.0276 -0.5130
  786SOL    HW1 3142   0.423   0.282   3.148  0.9872  0.2879 -0.0102
  786SOL    HW2 3143   0.390   0.429   3.153  1.6588  0.4103  1.1696
  787SOL     OW 3144   1.645   0.229   1.692 -0.1277 -0.2370 -0.1081
  787SOL    HW1 3145   1.683   0.141   1.703  0.8597  0.2871  0.8071
  787SOL    HW2 3146   1.682   0.260   1.609 -0.1209 -0.5039 -0.2084
  788SOL     OW 3147   0.322   0.575   0.236  0.3578 -0.1470  0.0244
  788SOL    HW1 3148   0.374   0.655   0.225 -0.8411  0.5095 -1.0787
  788SOL    HW2 3149   0.278   0.563   0.152 -2.8071  0.4112  1.4841
  789SOL     OW 3150   0.465   2.882   1.494 -0.8745 -0.0014  0.3960
  789SOL    HW1 3151   0.458   2.973   1.524 -1.9774 -0.6698  2.3834
  789SOL    HW2 3152   0.484   2.832   1.574 -2.7103 -1.7992 -0.2035
  790SOL     OW 3153   0.780   2.578   1.288 -0.1959 -0.5457  0.7877
  790SOL    HW1 3154   0.816   2.647   1.231  1.2557 -1.6672  0.2744
  790SOL    HW2 3155   0.685   2.588   1.282 -0.0483  1.9053  1.3633
  791SOL     OW 3156   0.809   0.540   0.928 -0.1683 -0.1936  0.1052
  791SOL    HW1 3157   0.740   0.474   0.935 -0.2757 -0.1544 -0.4981
  791SOL    HW2 3158   0.774   0.604   0.865 -0.0138  0.3718  0.5863
  792SOL     OW 3159   1.464   2.040   1.096  0.0751  0.5070 -0.1872
  792SOL    HW1 3160   1.459   1.960   1.044 -0.0210  1.0519 -1.0272
  792SOL    HW2 3161   1.485   2.109   1.033 -2.7915  1.6844 -0.0296
  793SOL     OW 3162   2.281   2.485   1.951 -0.5110  0.0709  0.5972
  793SOL    HW1 3163   2.352   2.424   1.929 -0.5561  0.9395 -2.5302
  793SOL    HW2 3164   2.201   2.432   1.944 -0.5611  0.3419 -2.1922
  794SOL     OW 3165   0.263   0.280   2.218 -0.4411  0.4308 -0.1169
  794SOL    HW1 3166   0.281   0.274   2.312  1.2039  0.4737 -0.4056
  794SOL    HW2 3167   0.169   0.263   2.211 -1.1474  2.9092  1.7803
  795SOL     OW 3168   3.269   3.270   3.185  0.4170  0.0365 -0.1238
  795SOL    HW1 3169   3.175   3.283   3.200  0.1842 -0.0410 -1.3709
  795SOL    HW2 3170   3.276   3.178   3.157  0.6567  0.4359 -1.4415
  796SOL     OW 3171   3.297   1.691   3.323  0.2129  0.3108 -0.3267
  796SOL    HW1 3172   3.279   1.689   3.229 -0.7597  0.8024 -0.1663
  796SOL    HW2 3173   3.284   1.783   3.348 -2.2861 -0.2486  0.7711
  797SOL     OW 3174   0.814   0.290   1.551  0.1855  0.2835  0.0938
  797SOL    HW1 3175   0.804   0.379   1.584  0.8652  0.3650  0.1002
  797SOL    HW2 3176   0.870   0.247   1.616  0.4108  0.0470 -0.2534
  798SOL     OW 3177   1.194   0.858   0.013 -0.2287 -0.3734 -0.0285
  798SOL    HW1 3178   1.130   0.789   0.000 -0.4426 -0.0965 -0.4635
  798SOL    HW2 3179   1.231   0.841   0.100 -0.1766 -1.1122 -0.1911
  799SOL     OW 3180   0.832   2.741   1.522 -0.4395  0.2081 -0.1739
  799SOL    HW1 3181   0.815   2.692   1.441  0.7744  2.2935 -1.8079
  799SOL    HW2 3182   0.913   2.704   1.556 -1.4561 -1.3338  0.7051
  800SOL     OW 3183   1.053   2.377   1.505  0.4791  0.0530  0.0759
  800SOL    HW1 3184   1.082   2.341   1.589  1.4617 -0.1695 -0.3351
  800SOL    HW2 3185   1.118   2.443   1.483  1.5953 -1.4733 -1.5766
  801SOL     OW 3186   1.601   2.561   1.786 -0.0609 -0.0740  0.3060
  801SOL    HW1 3187   1.587   2.480   1.738  1.2800  0.4448 -1.0511
  801SOL    HW2 3188   1.610   2.534   1.877  0.7334 -1.5042 -0.1696
  802SOL     OW 3189   0.808   2.898   0.087  0.1210  0.1640  0.6749
  802SOL    HW1 3190   0.866   2.849   0.145  2.1762  2.8652  1.0912
  802SOL    HW2 3191   0.759   2.956   0.146  0.3540  1.1273 -0.0602
  803SOL     OW 3192   0.877   0.950   2.357 -0.4455 -0.2554  0.0373
  803SOL    HW1 3193   0.874   0.875   2.297  0.3443 -0.7828  0.6219
  803SOL    HW2 3194   0.787   0.961   2.387 -0.7264 -0.3981 -0.7444
  804SOL     OW 3195   1.645   0.508   0.306  0.5411  0.0381  0.3130
  804SOL    HW1 3196   1.640   0.476   0.396  0.2720 -0.8196  0.0036
  804SOL    HW2 3197   1.626   0.601   0.312  1.0057  0.0858  1.1999
  805SOL     OW 3198   2.349   3.294   2.612  0.0276  0.3172  0.5220
  805SOL    HW1 3199   2.289   3.232   2.654 -1.1132 -0.5212 -2.1559
  805SOL    HW2 3200   2.315   3.380   2.636 -0.3551 -0.1115  1.5957
  806SOL     OW 3201   1.157   2.587   2.290 -0.3170 -0.2392 -0.1272
  806SOL    HW1 3202   1.125   2.651   2.354 -1.5810 -0.6078 -0.3555
  806SOL    HW2 3203   1.118   2.614   2.207  1.0562  0.0506 -0.6961
  807SOL     OW 3204   3.367   0.052   1.583 -0.1729 -0.1654 -0.4169
  807SOL    HW1 3205   3.286   0.009   1.610 -0.2847  1.5517  2.4351
  807SOL    HW2 3206   3.436  -0.007   1.613 -0.3628  0.1599  0.7124
  808SOL     OW 3207   2.855   3.063   2.637 -0.2600 -0.1917  0.3075
  808SOL    HW1 3208   2.918   3.106   2.579 -0.2266 -0.2305  0.3150
  808SOL    HW2 3209   2.893   3.071   2.725 -0.7045  0.5922  0.4371
  809SOL     OW 3210   2.529   3.092   1.726 -0.3106  0.0446  0.3456
  809SOL    HW1 3211   2.465   3.024   1.749 -0.9222  0.8980  1.2185
  809SOL    HW2 3212   2.493   3.132   1.647 -0.4091 -0.0435  0.3451
  810SOL     OW 3213   0.805   0.861   1.729  0.4519 -0.0545 -0.7395
  810SOL    HW1 3214   0.768   0.948   1.711 -2.6383 -0.4594  2.4646
  810SOL    HW2 3215   0.775   0.841   1.818  3.9538 -3.0222 -0.0217
  811SOL     OW 3216   2.382   2.716   0.446  0.3098 -0.5758  0.2144
  811SOL    HW1 3217   2.384   2.752   0.535 -0.2243  1.1797 -0.4273
  811SOL    HW2 3218   2.317   2.647   0.449  1.2757 -1.4822  1.4872
  812SOL     OW 3219   1.183   2.607   0.028 -0.4039  0.8804  0.2513
  812SOL    HW1 3220   1.213   2.684  -0.020 -0.5420  1.6061  1.2848
  812SOL    HW2 3221   1.227   2.612   0.113 -2.8002  1.6175  1.5665
  813SOL     OW 3222   1.276   1.067   3.217 -0.2805  0.4434 -0.3760
  813SOL    HW1 3223   1.255   0.982   3.255 -0.4067 -0.6119 -2.6319
  813SOL    HW2 3224   1.369   1.080   3.238 -0.2597 -0.2313 -0.0070
  814SOL     OW 3225   1.200   0.214   0.395 -0.3183  0.0270 -0.0628
  814SOL    HW1 3226   1.240   0.166   0.322 -2.1075  0.8275 -1.6475
  814SOL    HW2 3227   1.143   0.150   0.438 -0.6933  0.0419 -0.5371
  815SOL     OW 3228   3.059   1.053   0.206  0.2192 -0.0700  0.1535
  815SOL    HW1 3229   3.019   1.031   0.290  2.1124 -0.5284  0.9768
  815SOL    HW2 3230   3.085   1.145   0.215 -1.8650  0.6901 -0.9199
  816SOL     OW 3231   1.868   2.288   2.161  0.4141 -0.5900  0.3075
  816SOL    HW1 3232   1.862   2.379   2.191  0.1697 -0.5243  0.0603
  816SOL    HW2 3233   1.804   2.282   2.090  0.7917 -0.8191 -0.0140
  817SOL     OW 3234   0.103   0.281   3.200 -0.0078 -0.4596 -0.1799
  817SOL    HW1 3235   0.190   0.320   3.194 -0.0170 -0.6549 -2.2569
  817SOL    HW2 3236   0.117   0.199   3.248  0.9726 -0.4894 -0.4914
  818SOL     OW 3237   1.461   1.362   3.167  0.0422 -0.0594  0.5538
  818SOL    HW1 3238   1.487   1.453   3.179 -1.5247  0.6196 -0.6882
  818SOL    HW2 3239   1.376   1.368   3.123 -0.2872 -2.1266  0.8190
  819SOL     OW 3240   0.541   2.932   1.865 -0.0882  0.2202  0.4421
  819SOL    HW1 3241   0.556   2.852   1.814 -1.4242 -1.1534  2.0798
  819SOL    HW2 3242   0.523   2.900   1.954  0.6529  2.4328  1.4480
  820SOL     OW 3243   1.328   2.849   0.009 -0.0864  0.4739 -0.2380
  820SOL    HW1 3244   1.296   2.939   0.010  1.0041  0.8830 -0.7475
  820SOL    HW2 3245   1.387   2.843   0.084 -0.3809  0.0946 -0.0340
  821SOL     OW 3246   1.497   2.570   0.088 -0.7695  0.3013 -0.2290
  821SOL    HW1 3247   1.450   2.538   0.012 -2.9643  1.1185  0.6907
  821SOL    HW2 3248   1.569   2.621   0.052 -1.1898 -0.1119 -1.7298
  822SOL     OW 3249   2.497   2.717   2.121  0.0672 -0.2679  0.1995
  822SOL    HW1 3250   2.473   2.793   2.173 -0.4051  0.9137 -1.6438
  822SOL    HW2 3251   2.414   2.685   2.085  0.4280 -0.6761 -0.2956
  823SOL     OW 3252   1.530   0.366   2.651 -0.2388 -0.0304  0.5980
  823SOL    HW1 3253   1.606   0.418   2.678  1.9574 -2.7656  0.0874
  823SOL    HW2 3254   1.499   0.409   2.571 -0.2803  2.0240  1.6453
  824SOL     OW 3255   1.815   2.291   2.604 -0.1222 -0.0722 -0.2084
  824SOL    HW1 3256   1.893   2.298   2.550 -1.1889 -0.2264 -1.8581
  824SOL    HW2 3257   1.744   2.278   2.541 -1.4010 -0.5296  1.2677
  825SOL     OW 3258   1.026   2.322   0.514  0.0494 -0.5665 -0.2345
  825SOL    HW1 3259   0.942   2.290   0.547  0.1688 -1.0980 -0.4455
  825SOL    HW2 3260   1.050   2.260   0.445  0.6904 -0.5018 -0.0707
  826SOL     OW 3261   0.622   0.962   2.537  0.4617  0.2454 -0.2485
  826SOL    HW1 3262   0.591   0.885   2.490 -1.2962  0.9233 -0.2906
  826SOL    HW2 3263   0.627   0.934   2.628 -0.3981  0.1073 -0.2303
  827SOL     OW 3264   0.652   2.868   3.238 -0.2120 -0.7081 -0.4238
  827SOL    HW1 3265   0.683   2.914   3.160 -0.4045  0.2455  0.0405
  827SOL    HW2 3266   0.715   2.892   3.306 -0.0542 -1.5194 -0.2847
  828SOL     OW 3267   1.828   1.938   2.763  0.1465 -0.7251 -0.2761
  828SOL    HW1 3268   1.822   2.031   2.786  0.1588 -0.9523  0.7093
  828SOL    HW2 3269   1.910   1.909   2.802 -0.2708 -1.3397  0.1841
  829SOL     OW 3270   2.665   1.853   1.299 -0.2663  0.2115 -0.6141
  829SOL    HW1 3271   2.757   1.877   1.310 -0.1245  0.4713 -2.1077
  829SOL    HW2 3272   2.619   1.936   1.287 -0.9617  0.2009  1.5328
  830SOL     OW 3273   0.975   0.955   1.208  0.7106 -0.1506 -0.5594
  830SOL    HW1 3274   0.882   0.960   1.231  1.7139  0.8771  4.2743
  830SOL    HW2 3275   0.993   0.861   1.201 -0.3590 -0.4352  0.3151
  831SOL     OW 3276   1.077   0.076   1.472 -0.6186  0.0962  0.0068
  831SOL    HW1 3277   1.163   0.098   1.508 -0.7776  0.2671  0.2827
  831SOL    HW2 3278   1.094   0.059   1.380 -0.5561  1.7654 -0.3178
  832SOL     OW 3279   0.716   1.352   1.913  0.1074  0.4284  0.1480
  832SOL    HW1 3280   0.625   1.333   1.936 -0.2798  1.4870 -0.4395
  832SOL    HW2 3281   0.735   1.295   1.839  1.3928 -3.0869  2.9174
  833SOL     OW 3282   0.646   2.620   0.234 -0.8231 -0.1579  0.0204
  833SOL    HW1 3283   0.680   2.532   0.251  0.3244  0.3665  0.5039
  833SOL    HW2 3284   0.604   2.613   0.148 -0.6672 -1.1470  0.0117
  834SOL     OW 3285   1.823   2.538   0.470 -0.2647 -0.0331  0.6794
  834SOL    HW1 3286   1.892   2.472   0.480  0.1424  0.2874 -0.0194
  834SOL    HW2 3287   1.847   2.607   0.533  0.6815  0.6003 -0.3383
  835NA      NA 3288   0.225   2.226   0.901  0.3136  0.0537 -0.0219
  836NA      NA 3289   0.064   2.911   0.825  0.0668  0.0803 -0.1912
  837NA      NA 3290   3.227   3.235   0.986 -0.3445 -0.2756  0.0917
  838NA      NA 3291   2.059   3.145   0.246  0.0311 -0.3453 -0.1663
  839NA      NA 3292   0.131   2.780   0.139  0.3424  0.3166  0.3721
  840NA      NA 3293   2.215   0.265   0.414  0.7285 -0.4591  0.5361
  841NA      NA 3294   2.980   2.777   2.941 -0.3042 -0.0666  0.6788
  842NA      NA 3295   2.679   3.323   1.154 -0.0304 -0.3445 -0.5192
  843NA      NA 3296   2.180   2.906   0.788  0.2177  0.1846  0.1784
  844NA      NA 3297   1.998   2.889   1.130  0.3642 -0.1086  0.3372
  845NA      NA 3298   3.158   2.222   0.360 -0.3760  0.2292  0.1967
  846NA      NA 3299   2.728   2.496   0.843 -0.1066  0.1131  0.2913
  847NA      NA 3300   2.617   3.029   0.106 -1.0815  0.4022  0.0334
  848NA      NA 3301   2.352   0.458   0.767 -0.4380 -0.1653 -0.1221
  849NA      NA 3302   2.215   0.628   0.230  0.4589  0.0238 -0.2245
  850NA      NA 3303   2.036   1.793   0.307  0.2850 -0.1793  0.5191
  851NA      NA 3304   3.136   2.887   3.328  0.1771  0.2337 -0.2867
  852NA      NA 3305   2.260   2.804   0.097 -0.4645 -0.3955 -0.5110
  853NA      NA 3306   0.402   2.770   1.024  0.1840 -0.2781  0.2561
  854NA      NA 3307   2.607   0.015   3.268 -0.0629 -0.2918 -0.0461
  855NA      NA 3308   2.517   2.804   0.979 -0.2178  0.1599  0.2210
  856NA      NA 3309   2.793   0.144   1.518  0.0470  0.1516  0.3213
  857NA      NA 3310   2.824   3.075   3.143  0.0526  0.2152 -0.4083
  858NA      NA 3311   2.675   0.306   0.925 -0.0557 -0.0830  0.2258
  859NA      NA 3312   2.472   2.859   3.157 -0.4145  0.0768  0.6127
  860NA      NA 3313   0.369   3.334   1.490 -0.2675  0.4398  0.4986
  861NA      NA 3314   2.704   2.142   1.011  0.3320  0.4517  0.2127
  862NA      NA 3315   2.353   0.074   0.939  0.7432 -0.1475  0.1159
  863NA      NA 3316   1.572   0.314   0.197  0.4112  0.0881 -0.0203
  864NA      NA 3317   1.656   3.303   0.129 -0.6184 -0.4294 -0.2882
  865NA      NA 3318   3.302   2.183   0.011  0.3366 -0.3344 -0.3961
  866NA      NA 3319   3.214   2.870   1.179  0.0432 -0.3025  0.3930
  867NA      NA 3320   3.285   2.391   0.672 -0.7298  0.4178 -0.0884
  868NA      NA 3321   3.342   0.045   1.328  0.2894 -0.1642  0.3594
  869NA      NA 3322   1.667   2.783   1.693  0.0685  0.2203 -0.0799
  870NA      NA 3323   0.240   3.324   0.255  0.2990 -0.3707 -0.1190
  871NA      NA 3324   3.061   2.351   1.013 -0.0450 -1.0208  0.1878
  872NA      NA 3325   0.089   2.071   0.527  0.4509  0.6490 -0.2535
  873NA      NA 3326   2.800   2.699   3.295 -0.3909  0.2479 -0.4917
  874NA      NA 3327   2.414   0.314   0.053  0.1390 -0.2404 -0.0583
  875NA      NA 3328   2.741   2.808   0.644  0.1379 -0.1454 -0.1093
  876NA      NA 3329   2.629   2.291   0.503  0.0080 -0.7275 -0.1607
  877NA      NA 3330   2.995   3.191   1.335 -0.2388 -0.3952 -0.1314
  878NA      NA 3331   2.564   0.148   0.619  0.0474  0.8346  0.3293
  879NA      NA 3332   0.165   0.070   1.005  0.3708  0.1011 -0.1899
  880NA      NA 3333   2.890   0.001   0.826  0.7159 -0.4468 -0.6898
  881NA      NA 3334   2.469   0.240   1.274 -0.1904 -0.0333  0.0714
  882NA      NA 3335   3.014   0.158   1.160  0.6947 -0.0451 -0.0986
  883NA      NA 3336   0.045   2.568   1.071 -0.4413  0.2103  0.3413
  884NA      NA 3337   3.293   2.725   0.470  0.2000  0.3824 -0.1914
  885NA      NA 3338   3.094   0.037   0.452 -0.2009 -0.4045 -0.9664
  886NA      NA 3339   2.750   0.171   0.272 -0.4439 -0.3245 -0.0876
  887NA      NA 3340   0.054   3.271   0.625 -0.5238  0.1537  0.3794
  888NA      NA 3341   1.847   3.066   0.620 -0.0213 -0.4355  0.4334
  889NA      NA 3342   2.024   0.603   0.590  0.1849 -0.0109 -0.1773
  890NA      NA 3343   0.104   2.442   0.346 -0.1178 -0.6275  0.8068
  891NA      NA 3344   0.402   3.126   0.811  0.2076  0.0529  0.0506
  892NA      NA 3345   2.009   0.261   0.751 -0.2124  0.1542 -0.0927
  893NA      NA 3346   0.249   2.586   0.703 -0.3602  0.2590  0.2725
  894NA      NA 3347   2.572   0.495   0.420 -0.1727  0.3049  0.0534
  895NA      NA 3348   3.079   3.068   0.634  0.3165  0.1976 -0.3109
  896NA      NA 3349   2.739   3.190   0.456 -0.1624  0.4238 -0.3874
  897NA      NA 3350   2.943   2.901   0.295 -0.2333  0.0232 -0.6727
  898NA      NA 3351   0.176   3.101   1.173 -0.4256  0.2744  0.0586
  899NA      NA 3352   2.329   3.113   1.147 -0.2565 -0.1282  0.2248
  900NA      NA 3353   3.100   0.433   0.272  0.1720 -0.4822  0.2359
  901NA      NA 3354   2.269   3.166   3.284 -0.3496 -0.2904 -0.5629
  902NA      NA 3355   2.462   1.901   0.263  0.1797 -0.4313 -0.1137
  903NA      NA 3356   2.912   2.165   0.694  0.0631  0.1921  0.4108
  904NA      NA 3357   3.238   0.211   0.800 -0.1897 -0.0019 -0.4077
  905NA      NA 3358   2.210   3.315   0.623  0.2116  0.6571  0.0667
  906NA      NA 3359   1.871   0.061   0.419  0.2347  0.3370  0.2624
  907NA      NA 3360   2.123   0.049   1.292 -0.1176  0.2770 -0.0085
  908NA      NA 3361   2.542   3.155   0.796 -0.6662 -0.1593 -0.3778
  909NA      NA 3362   1.896   0.430   0.236  0.1417 -0.3365 -0.7546
  910NA      NA 3363   2.075   0.109   0.069 -0.3178  0.3038  0.2836
  911NA      NA 3364   2.577   2.680   0.324  0.1931  0.0892 -0.1926
  912NA      NA 3365   2.950   0.202   3.288  0.0843  0.3356 -0.1406
  913NA      NA 3366   2.411   3.366   0.258  0.0045  0.3873 -0.2262
  914NA      NA 3367   0.196   3.117   3.308 -0.0369  0.2674 -0.3044
  915NA      NA 3368   2.925   0.384   0.621  0.4120 -0.5058 -0.2051
  916NA      NA 3369   3.235   2.012   0.903  0.5731 -0.2263  0.2467
  917NA      NA 3370   2.857   2.653   1.182  0.3241  0.3616 -0.6533
  918NA      NA 3371   2.650   2.959   1.343 -0.0368  0.5034  0.3172
  919NA      NA 3372   2.958   2.541   0.477 -0.2674 -0.0663  0.1568
  920NA      NA 3373   3.299   3.089   0.308 -0.0844  0.3667 -0.2544
  921NA      NA 3374   2.144   0.391   1.098 -0.3123  0.1002 -0.1469
  922NA      NA 3375   2.811   2.205   0.127 -0.1339  0.7042 -0.0887
  923NA      NA 3376   1.981   3.243   0.952 -0.2912 -0.3079 -0.2001
  924NA      NA 3377   3.087   2.708   0.837  0.2043 -0.4583 -0.1973
  925NA      NA 3378   1.153   2.352   0.711 -0.0748  0.1606  0.0402
  926NA      NA 3379   2.897   3.010   0.996  0.2727  0.3286 -0.3869
  927NA      NA 3380   2.948   3.262   0.114 -0.4352  0.3640 -0.2646
  928NA      NA 3381   2.384   3.006   0.454 -0.0940  0.2956 -0.0205
  929NA      NA 3382   0.254   2.955   0.479  0.3690  0.3257 -0.2592
  930NA      NA 3383   0.083   0.229   0.471 -0.6866  0.2299 -0.5143
  931NA      NA 3384   2.746   0.545   0.028  0.1556  0.0862  0.3366
  932NA      NA 3385   2.790   3.136   1.674  0.0311 -0.0396 -0.4994
  933CL      CL 3386   0.019   2.916   3.255  0.0977  0.1292  0.4623
  934CL      CL 3387   2.613   3.065   1.079 -0.0826  0.2566  0.5112
  935CL      CL 3388   0.332   3.229   0.554  0.1813  0.1823 -0.1164
  936CL      CL 3389   1.982   3.209   3.364  0.2264  0.2650 -0.2805
  937CL      CL 3390   2.817   0.093   0.530 -0.4723 -0.1741 -0.4748
  938CL      CL 3391   0.111   0.145   0.738 -0.4126  0.0822  0.0525
  939CL      CL 3392   2.381   2.131   0.410 -0.0123  0.0916  0.1573
  940CL      CL 3393   1.952   0.693   0.301 -0.1638 -0.0804 -0.0961
  941CL      CL 3394   2.260   2.837   1.052 -0.1543  0.3628  0.1678
  942CL      CL 3395   2.071   0.510   0.857  0.1513 -0.1564  0.1494
  943CL      CL 3396   1.756   3.171   0.351  0.0292 -0.1961 -0.0076
  944CL      CL 3397   0.205   3.354   1.267 -0.3305 -0.0708 -0.0560
  945CL      CL 3398   2.692   0.260   0.007  0.4525 -0.2010 -0.3344
  946CL      CL 3399   2.632   2.224   0.760 -0.2127  0.1053  0.0991
  947CL      CL 3400   1.929   0.343   0.498 -0.6642 -0.1517 -0.1360
  948CL      CL 3401   2.900   2.983   0.027  0.4508 -0.2500  0.1775
  949CL      CL 3402   3.200   2.120   0.608 -0.3094 -0.6422 -0.4068
  950CL      CL 3403   2.680   2.931   0.375  0.2097 -0.2154  0.3266
  951CL      CL 3404   2.925   2.904   1.269  0.0504  0.2005 -0.1047
  952CL      CL 3405   3.021   3.042   2.936 -0.0740  0.2973 -0.1862
  953CL      CL 3406   2.458   2.885   0.706 -0.2655  0.0857  0.2864
  954CL      CL 3407   2.297   0.555   0.506 -0.0486 -0.1111  0.4217
  955CL      CL 3408   0.328   2.841   0.733  0.2138  0.7600 -0.5338
  956CL      CL 3409   2.644   1.998   0.100  0.3523  0.1833  0.2055
  957CL      CL 3410   2.555   3.122   3.214  0.1645 -0.0380 -0.4223
  958CL      CL 3411   3.320   2.264   0.983  0.0753 -0.4115 -0.2681
  959CL      CL 3412   2.334   3.073   0.170 -0.2756  0.0540  0.3732
  960CL      CL 3413   1.915   2.987   0.878 -0.2312  0.1031 -0.0633
  961CL      CL 3414   1.814   0.166   0.156  0.0113 -0.6140  0.2150
  962CL      CL 3415   2.740   2.825   3.061  0.1261  0.1409  0.4178
  963CL      CL 3416   2.408   0.345   1.024  0.3238  0.2162  0.0955
  964CL      CL 3417   2.995   2.788   0.556 -0.0591  0.2459  0.4418
  965CL      CL 3418   1.467   1.677   3.216 -0.1336  0.1984  0.3062
  966CL      CL 3419   2.947   3.284   1.070  0.3412 -0.5300  0.5583
  967CL      CL 3420   0.126   3.172   0.916  0.5093  0.4370 -0.0380
  968CL      CL 3421   2.143   0.351   0.158 -0.0485 -0.0356 -0.1766
  969CL      CL 3422   3.066   0.080   1.417  0.1305  0.0485 -0.3931
  970CL      CL 3423   0.460   3.042   1.067 -0.2310 -0.2689  0.3482
  971CL      CL 3424   2.739   3.213   1.442 -0.1307 -0.1794  0.1286
  972CL      CL 3425   2.955   0.278   0.881 -0.2049 -0.0692  0.4286
  973CL      CL 3426   0.193   3.054   0.207 -0.6029 -0.3109  0.3652
  974CL      CL 3427   2.627   0.042   0.876  0.0141 -0.0985  0.3358
  975CL      CL 3428   2.974   2.097   0.955  0.4444  0.0295  0.2212
  976CL      CL 3429   2.483   0.219   0.353 -0.3245  0.0260 -0.0085
  977CL      CL 3430   2.202   2.886   3.205 -0.2451  0.0985  0.1808
  978CL      CL 3431   3.225   2.474   0.413 -0.0590  0.0394  0.0970
  979CL      CL 3432   2.111   3.018   0.529 -0.0112 -0.0544  0.3453
  980CL      CL 3433   2.690   2.555   0.550  0.2587  0.3759 -0.0092
  981CL      CL 3434   2.282   0.199   0.691 -0.6992 -0.2521 -0.0212
  982CL      CL 3435   3.028   3.155   0.382 -0.1300 -0.3717  0.4496
  983CL      CL 3436   1.944   3.365   0.686  0.4715 -0.1123  0.2770
  984CL      CL 3437   0.148   1.948   0.803 -0.3845  0.3691 -0.0752
  985CL      CL 3438   2.841   0.013   1.781 -0.2854 -0.0852 -0.3164
  986CL      CL 3439   3.371   3.363   0.363 -0.0690  0.2346 -0.3428
  987CL      CL 3440   2.129   0.017   0.342  0.1492  0.4570  0.1631
  988CL      CL 3441   2.880   2.238   0.430 -0.2231 -0.1516  0.3264
  989CL      CL 3442   2.808   2.395   1.099 -0.3309 -0.1978  0.1741
  990CL      CL 3443   3.221   2.830   0.216 -0.2205 -0.2821  0.2646
  991CL      CL 3444   3.020   2.438   0.757  0.1207  0.3820  0.4364
  992CL      CL 3445   3.356   3.023   0.572 -0.1220 -0.2480 -0.0453
  993CL      CL 3446   1.428   0.046   0.168  0.4855 -0.2655  0.1925
  994CL      CL 3447   2.677   3.292   0.196  0.4550 -0.1936  0.3407
  995CL      CL 3448   2.334   0.060   3.349  0.3044 -0.0720 -0.3600
  996CL      CL 3449   2.623   0.415   0.685  0.0645 -0.3511  0.0132
  997CL      CL 3450   2.228   0.311   1.382  0.1221 -0.2337 -0.1568
  998CL      CL 3451   2.743   0.228   1.235  0.2356 -0.5166 -0.1180
  999CL      CL 3452   2.242   1.817   0.137 -0.2133 -0.0349 -0.0556
 1000CL      CL 3453   2.071   0.131   1.015 -0.0528 -0.2365  0.1178
 1001CL      CL 3454   2.275   3.186   0.882  0.2674  0.1258 -0.1683
 1002CL      CL 3455   0.183   0.011   3.369  0.1081  0.1963  0.6464
 1003CL      CL 3456   1.806   2.928   1.885 -0.1872 -0.3228  0.2642
 1004CL      CL 3457   2.860   0.477   0.361 -0.0185  0.1367  0.3178
 1005CL      CL 3458   3.056   2.106   0.135  0.3151  0.2918 -0.1921
 1006CL      CL 3459   0.284   2.509   0.965  0.0079 -0.0022  0.3730
 1007CL      CL 3460   3.265   3.122   1.269  0.2614  0.1466  0.1531
 1008CL      CL 3461   2.991   0.481   3.321 -0.0068 -0.0795  0.1369
 1009CL      CL 3462   2.590   2.691   1.298  0.1465 -0.1116  0.1398
 1010CL      CL 3463   2.910   3.324   3.209  0.0620  0.0370 -0.1265
 1011CL      CL 3464   2.493   0.556   0.146  0.0932  0.3215  0.2044
 1012CL      CL 3465   3.149   2.964   0.896  0.1411  0.0770  0.2626
 1013CL      CL 3466   3.147   2.618   1.116  0.0929  0.0187  0.3068
 1014CL      CL 3467   3.154   3.341   0.720  0.4248 -0.0674 -0.1925
 1015CL      CL 3468   3.189   0.317   0.542  0.2098  0.2699 -0.2124
 1016CL      CL 3469   2.818   2.751   0.926  0.0548 -0.0173 -0.3548
 1017CL      CL 3470   3.084   2.668   3.174  0.5059  0.1527 -0.4213
 1018CL      CL 3471   2.062   3.138   1.229  0.0681 -0.0744  0.2630
 1019CL      CL 3472   3.357   2.651   0.766 -0.4229 -0.2134 -0.2876
 1020CL      CL 3473   0.037   2.157   0.275 -0.4159  0.3381  0.2175
 1021CL      CL 3474   3.273   0.125   1.076 -0.1855 -0.1055  0.1095
 1022CL      CL 3475   0.163   2.325   0.611  0.1560 -0.3242  0.1784
 1023CL      CL 3476   0.094   2.843   1.111  0.0369 -0.2496  0.2107
 1024CL      CL 3477   2.815   2.453   0.009  0.1707  0.1644  0.7485
 1025CL      CL 3478   2.798   3.108   0.716  0.2664 -0.0055  0.3135
 1026CL      CL 3479   2.538   2.761   0.040 -0.2608  0.0976 -0.0565
 1027CL      CL 3480   3.021   0.142   0.189 -0.0021 -0.1772  0.0795
 1028CL      CL 3481   2.409   3.364   1.207  0.1867 -0.2152 -0.1375
 1029CL      CL 3482   0.189   2.701   0.400 -0.2103  0.2952 -0.0375
 1030CL      CL 3483   2.465   3.263   0.534 -0.0995  0.2099  0.1455
   3.37564   3.37564   3.37564
