
; NPT Equilibration Parameters
; ----------------------------
; This MDP file is used for NPT equilibration with simulated annealing.

; Run parameters
integrator              = md            ; Leap-frog integrator
nsteps                  = 500000        ; Number of steps (1000 ps)
dt                      = 0.002         ; Time step (ps)

; Output control
nstxout-compressed      = 500           ; Write compressed coordinates every 1 ps
nstenergy               = 500           ; Write energies every 1 ps
nstlog                  = 500           ; Write log file every 1 ps

; Bonded parameters
constraints             = h-bonds       ; Constrain bonds involving hydrogen
constraint_algorithm    = lincs         ; LINCS algorithm for constraints

; Nonbonded settings
cutoff-scheme           = Verlet        ; Buffered neighbor searching
rlist                   = 1.2           ; Short-range neighbor list cutoff (nm)
rvdw                    = 1.2           ; Short-range van der Waals cutoff (nm)

; Electrostatics settings
coulombtype             = PME           ; Particle Mesh Ewald for long-range electrostatics
rcoulomb                = 1.2           ; Short-range electrostatic cutoff (nm)

; Temperature coupling
tcoupl                  = V-rescale     ; Velocity-rescaling thermostat
tc-grps                 = System        ; Coupling group (entire system)
tau_t                   = 0.1           ; Time constant for temperature coupling (ps)
ref_t                   = 400           ; reference temperature, one for each group, in K
; Simulated annealing
annealing               = single
annealing_npoints       = 4
annealing_time          = 0 600 700 800 ; Set of time steps in (ps)
annealing_temp          = 400 400 600 300   ; Set of temperatures at each time steps

; Pressure coupling
pcoupl                  = Berendsen     ; Berendsen barostat
pcoupltype              = isotropic     ; Isotropic pressure coupling
tau_p                   = 2.0           ; Time constant for pressure coupling (ps)
ref_p                   = 1.0           ; Reference pressure (bar)
compressibility         = 4.5e-5        ; Compressibility of water (bar^-1)

; Periodic boundary conditions
pbc                     = xyz           ; Periodic boundary conditions in all directions

; Velocity generation
gen_vel                 = no
