Generic title in water
 3483
    1PEO     C1    1   3.506   3.138   3.346  0.4055 -0.0557  0.0667
    1PEO     H3    2   3.475   3.111   3.448 -0.4523  2.3232  0.4598
    1PEO     H4    3   3.465   3.053   3.291 -0.6815  1.3240 -1.3017
    1PEO      O    4   3.432   3.260   3.303 -0.1860  0.8452 -0.2137
    1PEO     C2    5   3.398   3.342   3.406  0.4246  0.4828 -0.3069
    1PEO     H5    6   3.323   3.294   3.469  1.1250  1.8168  1.5825
    1PEO     H6    7   3.345   3.426   3.360 -1.5399  1.2331  3.1941
    1PEO     C3    8   3.514   3.402   3.480  0.0156  0.2680 -1.6231
    1PEO     H7    9   3.605   3.400   3.418  1.0355 -3.3416 -0.1312
    1PEO     H8   10   3.558   3.339   3.558  0.9526  0.2229 -2.1788
    1PEO     O1   11   3.485   3.531   3.530 -0.1773  0.4370  0.5563
    1PEO     C4   12   3.476   3.636   3.432 -0.5691  0.7525  0.3258
    1PEO     H9   13   3.437   3.722   3.488  0.4012  1.5365 -0.1906
    1PEO    H10   14   3.407   3.609   3.352  1.5460  0.7353 -1.5196
    1PEO     C5   15   3.609   3.666   3.361 -0.2417  0.3785 -0.6509
    1PEO    H11   16   3.607   3.772   3.335 -1.8847  0.1182 -1.6883
    1PEO    H12   17   3.624   3.616   3.264  2.3026 -1.3440  0.5613
    1PEO     O2   18   3.713   3.644   3.457 -0.0862  0.1147 -0.1974
    1PEO     C6   19   3.722   3.744   3.566 -0.4106  0.8036  0.6783
    1PEO    H13   20   3.669   3.692   3.647  2.7327 -2.6383  0.6615
    1PEO    H14   21   3.664   3.834   3.545 -0.0895  0.8272 -0.1059
    1PEO     C7   22   3.865   3.757   3.608 -0.7438 -0.0236  0.3571
    1PEO    H15   23   3.915   3.660   3.619 -0.1797  0.4252  2.0045
    1PEO    H16   24   3.868   3.792   3.713 -0.8538 -3.5982  1.5996
    1PEO     O3   25   3.933   3.840   3.509 -0.4849 -0.4611 -0.7188
    1PEO     C8   26   3.918   3.982   3.519  0.0987  0.4460 -0.2768
    1PEO    H17   27   3.951   4.020   3.617  0.8993 -1.9417  0.4090
    1PEO    H18   28   3.809   3.994   3.526 -0.1683 -2.0403  0.3177
    1PEO     C9   29   4.000   4.060   3.402 -0.9798 -0.4246  0.1573
    1PEO    H19   30   3.951   4.158   3.396 -2.1830 -0.9085  1.5793
    1PEO    H20   31   3.969   4.023   3.304  0.6832 -1.5289  0.0365
    1PEO     O4   32   4.147   4.056   3.415 -0.6144  0.2726  0.1871
    1PEO    C10   33   4.202   4.053   3.550  0.1462 -0.0660 -0.8218
    1PEO    H21   34   4.162   3.958   3.589  1.2163 -0.3053 -0.3049
    1PEO    H22   35   4.169   4.139   3.610 -0.8558 -0.6664 -0.4900
    2PEO     C1   36   4.350   4.047   3.556 -0.0465  0.0234 -0.0130
    2PEO     H3   37   4.385   4.142   3.598 -1.1516  0.1911  0.5536
    2PEO     H4   38   4.375   4.033   3.450  2.6450  1.1622  0.4329
    2PEO      O   39   4.406   3.932   3.617  0.8966  0.6106 -0.4109
    2PEO     C2   40   4.482   3.832   3.547  0.2666 -0.7030 -0.5959
    2PEO     H5   41   4.512   3.751   3.615  0.8894 -0.2115 -0.2817
    2PEO     H6   42   4.566   3.873   3.489  1.5185 -0.8670  1.0447
    2PEO     C3   43   4.387   3.769   3.444  1.1030  0.0159  0.5366
    2PEO     H7   44   4.283   3.784   3.475 -0.3982 -0.3508 -3.8913
    2PEO     H8   45   4.400   3.660   3.443  0.1461 -0.1731  3.9746
    2PEO     O1   46   4.403   3.831   3.315  0.5506 -0.9053 -0.3455
    2PEO     C4   47   4.301   3.810   3.221 -0.2920  0.6140 -0.1012
    2PEO     H9   48   4.318   3.871   3.131 -4.2232  0.9679 -0.7198
    2PEO    H10   49   4.206   3.838   3.269 -0.5445 -0.5591  0.0980
    2PEO     C5   50   4.304   3.657   3.176  0.3260 -0.0207 -0.8430
    2PEO    H11   51   4.268   3.586   3.252  0.4182  1.3852  0.5565
    2PEO    H12   52   4.409   3.635   3.155 -0.1469 -1.8254 -1.4255
    2PEO     O2   53   4.235   3.646   3.058  0.4919  0.5611  0.2182
    2PEO     C6   54   4.086   3.655   3.068 -0.4270  0.2261 -0.0694
    2PEO    H13   55   4.035   3.644   2.971  2.6120  3.5528 -2.1818
    2PEO    H14   56   4.066   3.756   3.106 -2.7587  1.0578 -3.2930
    2PEO     C7   57   4.030   3.548   3.169 -0.4970 -0.9331  0.0098
    2PEO    H15   58   3.922   3.555   3.185 -0.4702  0.4829 -0.4131
    2PEO    H16   59   4.062   3.584   3.268 -1.3373  3.3358 -1.2040
    2PEO     O3   60   4.087   3.425   3.146  0.2741  0.8143  0.5895
    2PEO     C8   61   4.090   3.339   3.256  0.3271 -0.8010  1.0939
    2PEO    H17   62   3.989   3.318   3.291 -0.6542 -2.1160 -2.2859
    2PEO    H18   63   4.150   3.389   3.333  2.7532 -0.5724 -0.8561
    2PEO     C9   64   4.165   3.211   3.212  0.4654 -0.1468  0.9345
    2PEO    H19   65   4.214   3.157   3.295 -0.7967 -0.1443  1.6922
    2PEO    H20   66   4.233   3.246   3.133 -1.5288  2.2392  0.2119
    2PEO     O4   67   4.068   3.126   3.158 -0.5995  0.0581 -0.5884
    2PEO    C10   68   4.128   2.997   3.126  0.6811  0.3280 -0.0265
    2PEO    H21   69   4.199   2.966   3.204 -1.3463 -2.7903  0.6732
    2PEO    H22   70   4.178   3.007   3.029 -1.0610  2.3789 -0.7488
    3PEO     C1   71   4.021   2.895   3.110 -0.7638 -1.0692 -0.9070
    3PEO     H3   72   3.939   2.914   3.180  1.6182  3.5038  0.8865
    3PEO     H4   73   4.068   2.802   3.144 -0.0102  0.8608  3.6638
    3PEO      O   74   3.966   2.894   2.964  0.5745  1.4580 -0.4436
    3PEO     C2   75   3.841   2.817   2.943 -0.0099  0.0904 -0.3803
    3PEO     H5   76   3.850   2.726   3.004  0.4469 -0.0749 -0.6897
    3PEO     H6   77   3.827   2.794   2.836  1.0841  1.0103 -0.7354
    3PEO     C3   78   3.727   2.917   3.005  0.5696 -0.3354  0.5388
    3PEO     H7   79   3.728   2.886   3.110  1.8085 -4.8381 -0.6919
    3PEO     H8   80   3.630   2.886   2.967 -0.4236  0.5894  2.2462
    3PEO     O1   81   3.751   3.057   2.970  0.1195 -0.6906  0.3290
    3PEO     C4   82   3.651   3.153   3.015 -0.6301 -0.2502  0.0428
    3PEO     H9   83   3.626   3.133   3.120  1.1870  0.2733  0.5853
    3PEO    H10   84   3.557   3.157   2.959 -1.0583 -1.1525  0.6929
    3PEO     C5   85   3.699   3.295   3.026 -1.1288 -0.7064  0.4259
    3PEO    H11   86   3.791   3.313   3.083 -2.3837  2.4247  1.5360
    3PEO    H12   87   3.623   3.359   3.071 -0.5077 -0.8378  1.6862
    3PEO     O2   88   3.721   3.323   2.885 -0.3615 -0.1685  0.0103
    3PEO     C6   89   3.761   3.457   2.855 -0.2577  0.8039 -0.0790
    3PEO    H13   90   3.797   3.446   2.752 -1.8409  1.3609 -0.7061
    3PEO    H14   91   3.852   3.476   2.913 -1.6278  3.2846  1.3453
    3PEO     C7   92   3.645   3.558   2.884  0.4458  0.5750  0.2102
    3PEO    H15   93   3.582   3.508   2.960 -1.0088 -0.6729 -1.7765
    3PEO    H16   94   3.581   3.578   2.798 -0.9621 -1.0011  0.8440
    3PEO     O3   95   3.702   3.680   2.943 -0.0132  0.0494 -0.3399
    3PEO     C8   96   3.593   3.760   2.988  0.7133  0.0769  0.3687
    3PEO    H17   97   3.522   3.692   3.036  1.7417 -1.0019  0.3868
    3PEO    H18   98   3.542   3.812   2.905  0.8290 -1.8687 -0.9514
    3PEO     C9   99   3.660   3.864   3.092 -0.1821  0.2818 -0.9436
    3PEO    H19  100   3.716   3.938   3.034 -1.0042  1.1734 -0.6192
    3PEO    H20  101   3.725   3.817   3.167 -1.7223  0.9643  0.8515
    3PEO     O4  102   3.543   3.930   3.166 -0.3418  0.7244 -0.3272
    3PEO    C10  103   3.576   4.038   3.260  0.0320 -0.5965  0.1190
    3PEO    H21  104   3.668   4.007   3.310 -0.3272 -1.4685  0.2438
    3PEO    H22  105   3.484   4.049   3.318  0.0470 -1.5155  0.3280
    4PEO     C1  106   3.600   4.171   3.181  1.1648 -0.5285  0.2509
    4PEO     H3  107   3.660   4.141   3.094 -1.1836 -0.7557 -1.3311
    4PEO     H4  108   3.646   4.252   3.240 -2.5066  0.0809  2.3966
    4PEO      O  109   3.463   4.216   3.142  0.0960  0.2532  0.1369
    4PEO     C2  110   3.445   4.340   3.082 -0.6656  0.3006 -0.1868
    4PEO     H5  111   3.509   4.414   3.132 -0.1644  0.6196 -1.2830
    4PEO     H6  112   3.338   4.362   3.088 -1.0675 -1.7004  0.2363
    4PEO     C3  113   3.487   4.343   2.930 -0.1999 -0.5945  0.5158
    4PEO     H7  114   3.594   4.318   2.920 -0.0921 -0.1897  0.6096
    4PEO     H8  115   3.481   4.446   2.891 -0.0392 -1.1076 -0.8888
    4PEO     O1  116   3.422   4.239   2.849 -0.3266 -0.3228  1.1917
    4PEO     C4  117   3.280   4.249   2.839  0.6358 -0.1528  0.2718
    4PEO     H9  118   3.260   4.344   2.790 -0.2919 -0.7109 -0.4445
    4PEO    H10  119   3.249   4.242   2.944  1.1638 -1.6412  0.3502
    4PEO     C5  120   3.215   4.124   2.763 -0.1567 -0.3318 -0.5368
    4PEO    H11  121   3.230   4.132   2.654 -0.3836  0.9574 -0.4760
    4PEO    H12  122   3.106   4.128   2.773 -0.5072 -0.0148 -3.8992
    4PEO     O2  123   3.259   4.000   2.805 -0.2376 -0.5493  0.0960
    4PEO     C6  124   3.245   3.960   2.946 -0.8966  0.0751 -0.3580
    4PEO    H13  125   3.198   4.042   3.001  2.1037  0.9882  0.9801
    4PEO    H14  126   3.336   3.951   3.006 -0.0127 -0.2446 -1.7031
    4PEO     C7  127   3.153   3.830   2.957  0.2045  0.6573  0.2606
    4PEO    H15  128   3.106   3.829   2.858 -2.3365 -0.1087  1.4512
    4PEO    H16  129   3.070   3.852   3.025  1.8242 -1.4684  3.0377
    4PEO     O3  130   3.236   3.713   2.985  0.4921 -0.1462  0.1447
    4PEO     C8  131   3.191   3.599   2.907  0.7459  0.1458  0.1416
    4PEO    H17  132   3.232   3.606   2.805  0.0614 -2.3199 -0.3269
    4PEO    H18  133   3.084   3.575   2.912  0.6542  0.4144 -0.5143
    4PEO     C9  134   3.254   3.470   2.960 -0.3004 -0.2956  0.1486
    4PEO    H19  135   3.228   3.459   3.066  1.8123  0.9792  0.8177
    4PEO    H20  136   3.362   3.468   2.948 -0.3348 -0.4678 -0.1209
    4PEO     O4  137   3.199   3.365   2.888  0.9987 -0.7862  0.3489
    4PEO    C10  138   3.249   3.233   2.915 -0.0713  1.3904 -0.5849
    4PEO    H21  139   3.183   3.183   2.988 -1.1279  3.5459 -0.0099
    4PEO    H22  140   3.346   3.241   2.966 -0.4911  0.2971  0.3906
    5PEO     C1  141   3.248   3.163   2.777  0.2195 -0.1081 -0.3034
    5PEO     H3  142   3.168   3.191   2.708 -0.3673 -0.8421  0.0810
    5PEO     H4  143   3.239   3.060   2.813  2.9261 -1.2365 -2.6426
    5PEO      O  144   3.373   3.183   2.707 -0.5119  0.0712 -0.8930
    5PEO     C2  145   3.395   3.309   2.642  0.4751 -0.5818 -0.1415
    5PEO     H5  146   3.424   3.382   2.718 -0.2927  0.6745 -1.0241
    5PEO     H6  147   3.310   3.333   2.576 -0.2439 -0.1166  0.9371
    5PEO     C3  148   3.511   3.318   2.551  0.4386  0.4272 -0.3616
    5PEO     H7  149   3.595   3.282   2.611  0.0531  1.5853  0.9050
    5PEO     H8  150   3.524   3.424   2.529 -1.4375  1.0048  1.1605
    5PEO     O1  151   3.489   3.238   2.432 -0.6060  0.4914  0.7181
    5PEO     C4  152   3.613   3.218   2.360  0.6638  0.3189 -0.5246
    5PEO     H9  153   3.686   3.170   2.426  0.0615 -1.9020 -1.4471
    5PEO    H10  154   3.666   3.312   2.340 -1.4425  2.6207  3.8042
    5PEO     C5  155   3.592   3.140   2.232 -1.1596 -0.3198  0.7637
    5PEO    H11  156   3.694   3.130   2.195 -1.8328 -0.3080 -1.1277
    5PEO    H12  157   3.529   3.192   2.159 -0.3265 -0.3055  0.0610
    5PEO     O2  158   3.536   3.009   2.260 -0.1162 -0.2462 -0.3515
    5PEO     C6  159   3.612   2.902   2.324 -0.3987  0.3241  0.6465
    5PEO    H13  160   3.653   2.942   2.417 -0.8422 -0.3426  1.1354
    5PEO    H14  161   3.691   2.877   2.252  0.3538  3.8778  0.1188
    5PEO     C7  162   3.527   2.781   2.351 -0.6329  0.8126  0.0346
    5PEO    H15  163   3.592   2.697   2.377 -1.5264 -0.4379 -1.6649
    5PEO    H16  164   3.470   2.750   2.263 -1.1030 -1.7652  1.1903
    5PEO     O3  165   3.450   2.821   2.475  0.1449  0.4923 -0.0591
    5PEO     C8  166   3.332   2.907   2.464 -0.4088  0.0482 -0.2203
    5PEO    H17  167   3.280   2.881   2.371  0.6085 -0.0589 -0.7691
    5PEO    H18  168   3.369   3.010   2.471 -1.3204  0.2683  1.4554
    5PEO     C9  169   3.241   2.888   2.580  0.7507  0.2631 -0.0335
    5PEO    H19  170   3.172   2.973   2.578 -0.3409 -0.6335 -1.9176
    5PEO    H20  171   3.304   2.906   2.668  1.8870  0.4521 -0.8742
    5PEO     O4  172   3.171   2.765   2.578 -0.1031  0.9504 -0.0907
    5PEO    C10  173   3.057   2.767   2.660  0.9222  0.3084  0.4228
    5PEO    H21  174   3.056   2.844   2.737  0.6206  1.5872 -0.8315
    5PEO    H22  175   3.044   2.677   2.721 -0.8416 -0.3595 -0.8982
    6PET     C9  176   2.927   2.784   2.578  0.2368 -0.0431 -0.5123
    6PET     H6  177   2.848   2.744   2.644 -0.1807 -0.0347 -1.0026
    6PET     H7  178   2.932   2.718   2.490  0.0546  1.1623 -1.4351
    6PET     O2  179   2.909   2.923   2.555  0.4543 -0.4773 -0.4668
    6PET     C8  180   2.850   3.011   2.643 -0.0876  0.0081 -0.3432
    6PET     O1  181   2.776   2.970   2.736  0.2436 -0.0702 -0.1921
    6PET     C4  182   2.886   3.152   2.632 -0.1875 -0.1891 -0.0241
    6PET     C5  183   2.966   3.205   2.528  0.5682  0.3022  0.1264
    6PET     C6  184   3.002   3.340   2.522 -0.3787 -0.2812  0.5260
    6PET     H4  185   3.073   3.363   2.443 -2.1608  5.7025  0.4300
    6PET     H3  186   3.012   3.134   2.459 -1.5515 -0.2219 -0.7869
    6PET     C3  187   2.841   3.246   2.733  0.7427  0.0810 -0.4117
    6PET     H2  188   2.792   3.206   2.821  0.3584  0.0108 -0.6570
    6PET     C2  189   2.877   3.381   2.726 -0.2474  0.1533  0.1774
    6PET     H1  190   2.841   3.446   2.804 -2.2244 -1.3051  0.5146
    6PET     C1  191   2.953   3.436   2.618 -0.5536  0.1157 -0.1653
    6PET     C7  192   2.996   3.580   2.625  0.2261 -0.0918  0.4555
    6PET     O3  193   2.934   3.653   2.704  0.3070 -0.9373 -0.2265
    6PET     O4  194   3.093   3.618   2.528 -0.0191 -0.3979  0.3549
    6PET    C10  195   3.151   3.752   2.529  0.2264  0.5281 -0.0762
    6PET     H8  196   3.245   3.743   2.585  0.4379  0.7558 -0.3901
    6PET     H9  197   3.090   3.826   2.581  0.5998 -0.3138  1.5786
    6PET    C11  198   3.187   3.804   2.391 -0.3774 -0.2339  0.3612
    6PET    H10  199   3.238   3.901   2.393  1.6704 -1.1684 -2.4493
    6PET    H11  200   3.098   3.840   2.337  0.4103  1.3503  0.0963
    6PET    C12  201   3.278   3.717   2.307 -0.2024 -0.4156 -0.7524
    6PET    H13  202   3.318   3.773   2.221  0.7360 -1.2332 -0.8629
    6PET    H14  203   3.228   3.634   2.257  2.9160 -3.6503  1.2310
    7PET     C9  204   3.391   3.638   2.380  0.0964  0.0398  0.0007
    7PET     H6  205   3.462   3.605   2.303  0.8126  0.6547  0.3838
    7PET     H7  206   3.360   3.550   2.438 -0.8122  0.1203 -0.3523
    7PET     O2  207   3.452   3.723   2.476 -0.0722  0.0126  0.4023
    7PET     C8  208   3.574   3.701   2.519  0.7840 -0.0585  0.4051
    7PET     O1  209   3.630   3.597   2.493 -0.3728 -0.6600  0.0792
    7PET     C4  210   3.635   3.796   2.612  0.7002 -0.2829  0.2063
    7PET     C5  211   3.572   3.917   2.651  0.4366  0.3469  0.6381
    7PET     C6  212   3.642   4.011   2.728 -0.2147 -0.1388  0.4390
    7PET     H4  213   3.591   4.097   2.770  0.0377 -0.3909  1.2596
    7PET     H3  214   3.472   3.950   2.626  0.3815 -1.2482 -1.4036
    7PET     C3  215   3.766   3.767   2.651 -0.4776 -0.6250  0.0959
    7PET     H2  216   3.823   3.676   2.633  0.3992 -0.6646  2.7788
    7PET     C2  217   3.838   3.870   2.713  0.1379  0.0172 -0.3776
    7PET     H1  218   3.942   3.845   2.736 -0.5169 -0.7875  1.8757
    7PET     C1  219   3.783   3.985   2.746  0.5418 -1.0498  0.1848
    7PET     C7  220   3.864   4.101   2.806  0.0141  0.2361  0.4737
    7PET     O3  221   3.927   4.088   2.909  1.6186 -0.4895  0.1078
    7PET     O4  222   3.868   4.217   2.732 -0.2403  0.0480 -0.0552
    7PET    C10  223   3.956   4.321   2.772  0.0759 -0.1032 -0.5212
    7PET     H8  224   4.001   4.372   2.686  0.0731  2.2424  0.7949
    7PET     H9  225   4.025   4.297   2.854  0.5086  2.6616 -0.0043
    7PET    C11  226   3.851   4.417   2.828  0.0626  0.8091  0.3465
    7PET    H10  227   3.802   4.376   2.917 -2.4045 -2.0194 -2.1908
    7PET    H11  228   3.771   4.429   2.754 -0.5008  2.1268  1.1626
    7PET    C12  229   3.919   4.546   2.868  0.4050 -0.1257 -0.3409
    7PET    H13  230   3.916   4.595   2.770  1.5749  0.2446 -0.1988
    7PET    H14  231   4.019   4.524   2.908 -0.2802  0.7641  1.9647
    8PET     C9  232   3.843   4.625   2.983  0.2070  0.8500  0.6355
    8PET     H6  233   3.736   4.633   2.957  0.2967  0.3588  0.0992
    8PET     H7  234   3.884   4.726   2.996 -0.0641  0.9568  0.6649
    8PET     O2  235   3.872   4.550   3.105  0.5196  0.3788  0.0569
    8PET     C8  236   3.769   4.551   3.203 -0.3141 -0.0641  1.1545
    8PET     O1  237   3.663   4.602   3.185  0.9671 -0.0431 -0.3021
    8PET     C4  238   3.805   4.491   3.333 -0.9547 -0.6098  0.5817
    8PET     C5  239   3.936   4.485   3.377  0.3793  0.9725  0.2126
    8PET     C6  240   3.965   4.421   3.507  0.3974  0.0862 -0.0251
    8PET     H4  241   4.066   4.403   3.544  0.1088  0.4698  0.9614
    8PET     H3  242   4.014   4.518   3.309 -2.5251  1.9916 -2.7540
    8PET     C3  243   3.698   4.450   3.424  0.9447  0.1799  1.1674
    8PET     H2  244   3.594   4.461   3.396  1.5068 -2.2482 -2.0804
    8PET     C2  245   3.735   4.386   3.544 -0.6700 -0.1365 -0.3018
    8PET     H1  246   3.657   4.341   3.604 -1.3355 -1.8275 -2.3829
    8PET     C1  247   3.862   4.367   3.588  0.7321 -0.4091  0.5196
    8PET     C7  248   3.886   4.288   3.713  0.1639 -0.8961  0.4237
    8PET     O3  249   3.794   4.248   3.783  0.3197 -0.6859 -0.5373
    8PET     O4  250   4.019   4.300   3.747 -0.0248  1.2353  0.2667
    8PET    C10  251   4.081   4.233   3.860  0.0248  0.0120  0.3922
    8PET     H8  252   4.190   4.234   3.846  0.0939  0.4079  0.9302
    8PET     H9  253   4.047   4.129   3.861  2.3740 -0.7887 -0.4379
    8PET    C11  254   4.052   4.319   3.988 -0.0921  0.7367 -0.1909
    8PET    H10  255   3.947   4.296   4.006 -0.5429  2.9360  0.1009
    8PET    H11  256   4.048   4.425   3.961  1.1064  0.7873 -0.1873
    8PET    C12  257   4.150   4.286   4.101  0.6692 -0.0186  0.9171
    8PET    H13  258   4.187   4.378   4.147 -0.6573  0.6080  0.7473
    8PET    H14  259   4.236   4.231   4.060  0.6910  2.3594 -2.4506
    9PET     C9  260   4.096   4.177   4.197  0.2366  0.2612 -0.0960
    9PET     H6  261   4.000   4.224   4.219 -0.7943 -2.7898  2.1775
    9PET     H7  262   4.155   4.170   4.289 -1.6496 -0.5527  1.0827
    9PET     O2  263   4.091   4.047   4.136 -0.3456 -0.5088 -0.9053
    9PET     C8  264   3.972   3.998   4.084 -0.2276  0.5472 -0.5511
    9PET     O1  265   3.863   4.034   4.114  0.5398 -0.3411  0.0240
    9PET     C4  266   4.005   3.876   3.992 -0.8280  0.5305  0.2393
    9PET     C5  267   3.923   3.765   3.998  0.4927 -0.2156 -0.1434
    9PET     C6  268   3.944   3.649   3.929  0.5813 -0.7145  0.0512
    9PET     H4  269   3.874   3.566   3.928 -0.6591  0.3125 -0.5470
    9PET     H3  270   3.834   3.770   4.061  1.7340  1.4829  1.5467
    9PET     C3  271   4.123   3.871   3.918  0.1165 -0.3351 -0.3079
    9PET     H2  272   4.187   3.959   3.918 -2.0670  1.3463 -1.9044
    9PET     C2  273   4.152   3.751   3.845 -0.0094  0.3981 -0.8452
    9PET     H1  274   4.245   3.739   3.791  0.5134 -3.5893  0.7822
    9PET     C1  275   4.066   3.637   3.852  0.4477  0.7594 -0.4931
    9PET     C7  276   4.100   3.508   3.787  0.4373 -0.4947 -0.0246
    9PET     O3  277   4.180   3.493   3.701  0.5126 -0.1867 -0.4839
    9PET     O4  278   4.013   3.405   3.820 -0.1781 -0.1080  0.2864
    9PET    C10  279   4.040   3.274   3.769  0.7616 -0.1924 -0.0204
    9PET     H8  280   4.024   3.206   3.854 -1.5671 -2.5594 -2.2443
    9PET     H9  281   4.136   3.251   3.722  0.1044 -3.0123 -0.0925
    9PET    C11  282   3.932   3.250   3.664  0.6424 -0.4305  0.0998
    9PET    H10  283   3.921   3.343   3.607  0.9729 -1.0287 -0.9612
    9PET    H11  284   3.832   3.239   3.707 -0.2742  0.0266 -1.8242
    9PET    C12  285   3.955   3.140   3.562 -0.5040  0.2850 -0.0106
    9PET    H13  286   4.034   3.157   3.488 -1.7176 -0.1453 -1.4267
    9PET    H14  287   3.878   3.117   3.488 -0.7380  1.7206 -0.2255
   10PET     C9  288   3.985   3.006   3.629  0.0650 -0.0906  0.2366
   10PET     H6  289   3.915   2.988   3.711  0.1679 -0.0540  0.3334
   10PET     H7  290   4.086   2.992   3.670 -0.1394 -0.1296  0.7348
   10PET     O2  291   3.950   2.893   3.553  0.5175  0.0194 -0.2851
   10PET     C8  292   3.814   2.872   3.537  1.1482  0.0548  0.0674
   10PET     O1  293   3.723   2.942   3.576 -0.1816 -0.8610 -0.7658
   10PET     C4  294   3.784   2.770   3.432 -0.6839 -0.4776  0.2265
   10PET     C5  295   3.667   2.765   3.353 -0.4173 -0.0323  0.0916
   10PET     C6  296   3.657   2.678   3.249 -0.1227 -0.9259  0.3530
   10PET     H4  297   3.567   2.680   3.189  1.0148 -0.7554 -1.3710
   10PET     H3  298   3.591   2.840   3.369 -0.5049 -0.3429  1.1515
   10PET     C3  299   3.885   2.687   3.395 -1.0347 -0.0045  0.0653
   10PET     H2  300   3.979   2.680   3.449  1.5660  0.2811 -4.2000
   10PET     C2  301   3.865   2.583   3.296 -0.4495  0.2257 -0.0987
   10PET     H1  302   3.946   2.513   3.280  0.9106  1.1053  2.5632
   10PET     C1  303   3.749   2.582   3.222  0.5219 -1.4583 -0.4159
   10PET     C7  304   3.724   2.491   3.112 -0.8505 -0.3541 -0.1894
   10PET     O3  305   3.812   2.432   3.052 -0.2621 -0.2784 -0.4050
   10PET     O4  306   3.591   2.486   3.066 -0.1107 -0.3313  0.6601
   10PET    C10  307   3.570   2.412   2.944 -0.4850 -0.0521  0.8003
   10PET     H8  308   3.580   2.303   2.952 -3.0125 -0.4076 -0.5969
   10PET     H9  309   3.634   2.436   2.858 -0.1470  1.1611  1.3750
   10PET    C11  310   3.419   2.425   2.907 -0.2969 -0.4995  0.0443
   10PET    H10  311   3.346   2.415   2.988 -0.2848 -0.6429  0.0365
   10PET    H11  312   3.399   2.338   2.843  0.0207 -1.7423  1.6120
   10PET    C12  313   3.403   2.559   2.825  0.4766  0.1274  0.8504
   10PET    H13  314   3.307   2.555   2.773  0.3589 -2.1623  1.1945
   10PET    H14  315   3.475   2.552   2.743 -1.4091 -2.2810 -0.6608
   11PET     C9  316   3.419   2.690   2.897  0.7142 -0.2344 -0.1973
   11PET     H6  317   3.420   2.766   2.818  0.2025 -2.2593 -2.1971
   11PET     H7  318   3.515   2.694   2.951 -0.8087  1.0114  2.5518
   11PET     O2  319   3.317   2.706   2.988 -0.3813  0.1419 -0.9921
   11PET     C8  320   3.323   2.812   3.072  0.0584 -0.2366 -0.1246
   11PET     O1  321   3.406   2.901   3.067 -0.0340  0.1546  0.0458
   11PET     C4  322   3.217   2.805   3.176 -0.2663 -0.8846 -0.8456
   11PET     C5  323   3.156   2.921   3.228 -0.2774  0.6797 -0.1203
   11PET     C6  324   3.072   2.904   3.341 -0.1413 -0.3424  0.3350
   11PET     H4  325   3.027   2.991   3.388 -2.8320 -1.8687  0.7045
   11PET     H3  326   3.193   3.020   3.203  0.9904  0.0209 -0.9090
   11PET     C3  327   3.160   2.682   3.204  0.1798  0.0331 -0.2531
   11PET     H2  328   3.200   2.596   3.150 -0.6132 -0.1283 -0.5835
   11PET     C2  329   3.060   2.668   3.301 -1.7222  0.2937  0.0650
   11PET     H1  330   3.015   2.570   3.316  2.3968 -2.0976 -1.9984
   11PET     C1  331   3.022   2.778   3.374 -0.2657 -0.9657  0.1692
   11PET     C7  332   2.910   2.762   3.478 -0.3630 -0.0685 -0.4252
   11PET     O3  333   2.842   2.670   3.498 -0.1628 -0.5325  0.3053
   11PET     O4  334   2.893   2.877   3.553  0.3940 -0.2586 -0.0600
   11PET    C10  335   2.793   2.872   3.660  0.5785  0.4238 -0.5112
   11PET     H8  336   2.703   2.824   3.620  1.2866 -1.3886  0.0063
   11PET     H9  337   2.772   2.977   3.684 -1.4544 -0.3277  1.1860
   11PET    C11  338   2.845   2.786   3.789 -0.5937  0.1663 -0.3634
   11PET    H10  339   2.819   2.681   3.776 -0.6419  0.0954  0.3203
   11PET    H11  340   2.796   2.798   3.886  4.4609 -0.8019  2.5209
   11PET    C12  341   3.003   2.799   3.811  0.0499 -0.2845  0.4743
   11PET    H13  342   3.031   2.903   3.831  0.8197 -0.3688 -0.1477
   11PET    H14  343   3.049   2.776   3.714 -2.0190  3.5604 -1.5272
   12PET     C9  344   3.083   2.726   3.934  0.5214 -0.0930 -0.1942
   12PET     H6  345   3.038   2.764   4.026  0.8727 -0.3989  0.1037
   12PET     H7  346   3.190   2.746   3.935  0.6915 -0.7115 -2.7282
   12PET     O2  347   3.056   2.581   3.935 -0.2550  0.9416 -0.6906
   12PET     C8  348   3.102   2.502   3.833  0.1373  0.5207 -0.2437
   12PET     O1  349   3.171   2.553   3.747 -0.0991  0.3837 -0.6135
   12PET     C4  350   3.087   2.354   3.851  0.5031 -0.7888 -0.2614
   12PET     C5  351   2.990   2.296   3.943  0.3404  0.0805  0.3157
   12PET     C6  352   2.975   2.161   3.954 -0.4097  0.6782  0.4614
   12PET     H4  353   2.888   2.117   4.002 -1.0921  0.2754 -1.1066
   12PET     H3  354   2.914   2.358   3.991  0.3499 -0.6907  1.3406
   12PET     C3  355   3.183   2.266   3.791  0.3878  0.9313 -0.1657
   12PET     H2  356   3.264   2.301   3.728  1.0801 -0.1824  0.0986
   12PET     C2  357   3.171   2.126   3.811  0.1914  0.2467  0.0287
   12PET     H1  358   3.236   2.050   3.768  1.5982  0.3168  1.9985
   12PET     C1  359   3.064   2.073   3.885  0.1948  1.2446  0.9693
   12PET     C7  360   3.035   1.919   3.882  0.1109  0.7128  0.4989
   12PET     O3  361   3.104   1.839   3.824 -0.2798  0.4161  0.0704
   12PET     O4  362   2.916   1.885   3.937 -0.7363  0.0998  0.1504
   12PET    C10  363   2.894   1.746   3.956 -0.3056  0.0982  0.8906
   12PET     H8  364   2.953   1.703   4.038  0.3147 -2.3002 -0.7378
   12PET     H9  365   2.938   1.688   3.874  1.7062  3.5105 -0.5256
   12PET    C11  366   2.747   1.712   3.972 -0.0376 -0.0229  0.4330
   12PET    H10  367   2.718   1.779   4.054  0.2964 -4.2655  4.2815
   12PET    H11  368   2.731   1.609   4.007  2.9118 -0.6511  0.0770
   12PET    C12  369   2.671   1.737   3.836  0.3899 -0.3155 -0.6371
   12PET    H13  370   2.579   1.678   3.846  0.8212 -0.5021  2.8655
   12PET    H14  371   2.733   1.715   3.748  2.1589  3.5696 -0.4559
   13PET     C9  372   2.636   1.882   3.804 -0.0006  1.2391 -0.1734
   13PET     H6  373   2.624   1.938   3.897  0.4005  4.7616 -2.1361
   13PET     H7  374   2.548   1.896   3.741 -2.4414 -1.8790  2.4135
   13PET     O2  375   2.742   1.932   3.732 -0.7098 -0.3990 -0.0903
   13PET     C8  376   2.743   2.070   3.698  0.1251 -0.1012 -0.1751
   13PET     O1  377   2.655   2.145   3.735 -0.3559 -0.6945 -0.4920
   13PET     C4  378   2.864   2.117   3.610  1.0183 -0.9306  0.0084
   13PET     C5  379   2.953   2.020   3.560 -0.2628 -0.2523 -0.7304
   13PET     C6  380   3.075   2.063   3.486  0.9738 -0.0498  0.2935
   13PET     H4  381   3.156   2.001   3.451  1.0858  0.4159 -0.2911
   13PET     H3  382   2.945   1.913   3.579 -3.0950 -0.2555 -1.7342
   13PET     C3  383   2.888   2.257   3.590 -0.5541 -0.1439 -0.1114
   13PET     H2  384   2.814   2.327   3.625 -0.0388  0.7351 -0.7733
   13PET     C2  385   2.998   2.298   3.513  0.1036 -0.1803  0.4194
   13PET     H1  386   3.008   2.406   3.501 -0.1487 -0.0612  1.2185
   13PET     C1  387   3.091   2.200   3.461  0.8733  1.3219  0.7799
   13PET     C7  388   3.221   2.253   3.404  0.2070 -0.0887 -0.5698
   13PET     O3  389   3.324   2.187   3.413 -0.5062 -0.0522  0.6307
   13PET     O4  390   3.227   2.385   3.368 -0.0843  0.0246 -0.6410
   13PET    C10  391   3.355   2.453   3.344  0.5390 -0.6458 -0.3989
   13PET     H8  392   3.358   2.541   3.278  2.3585 -0.2445  0.1892
   13PET     H9  393   3.431   2.381   3.310  0.6940 -1.1790  1.0610
   13PET    C11  394   3.408   2.522   3.479 -0.5038 -0.8198 -0.6415
   13PET    H10  395   3.516   2.513   3.496 -0.8333  0.5852  2.6704
   13PET    H11  396   3.377   2.454   3.559  1.0776 -1.0708 -0.2148
   13PET    C12  397   3.354   2.660   3.501  0.4366  0.0550  0.1707
   13PET    H13  398   3.250   2.654   3.533  0.9924  0.6464  2.1499
   13PET    H14  399   3.363   2.715   3.406 -0.3176 -0.6737 -0.3295
   14PET     C9  400   3.424   2.736   3.614  0.2672  0.0723  0.5271
   14PET     H6  401   3.530   2.747   3.589  0.1489  4.7577  1.5691
   14PET     H7  402   3.407   2.682   3.708 -1.1441  0.7880  0.6983
   14PET     O2  403   3.363   2.859   3.615 -0.4846  0.3291  0.2699
   14PET     C8  404   3.398   2.940   3.725  0.6469 -0.7576  0.6843
   14PET     O1  405   3.488   2.913   3.801  0.1922 -0.0903 -0.0805
   14PET     C4  406   3.322   3.064   3.718 -0.3504 -0.5101  0.1275
   14PET     C5  407   3.376   3.170   3.783  0.2617 -0.2253 -0.6132
   14PET     C6  408   3.311   3.290   3.780  0.4868  0.2500  0.0553
   14PET     H4  409   3.357   3.373   3.832 -0.4336  0.7025  0.1543
   14PET     H3  410   3.477   3.163   3.823  0.9021 -1.0155 -2.3037
   14PET     C3  411   3.202   3.080   3.642 -0.0916 -0.2934  0.5102
   14PET     H2  412   3.151   3.008   3.579 -1.3567  0.9283  0.1008
   14PET     C2  413   3.145   3.208   3.637 -0.3662  0.1650  0.2715
   14PET     H1  414   3.057   3.215   3.573 -0.3689 -1.6092  0.0649
   14PET     C1  415   3.188   3.306   3.722  0.1549 -0.4584  0.3537
   14PET     C7  416   3.120   3.451   3.741 -1.4517 -0.0478  0.0367
   14PET     O3  417   3.166   3.530   3.824 -0.4096 -0.0304 -0.0145
   14PET     O4  418   3.011   3.467   3.665 -0.3055 -0.1139  0.6494
   14PET    C10  419   2.939   3.586   3.690  0.3936  0.7888  0.2544
   14PET     H8  420   3.002   3.671   3.662  0.9001 -0.0413 -1.1601
   14PET     H9  421   2.901   3.583   3.793 -1.3229 -2.3572 -0.4339
   14PET    C11  422   2.821   3.601   3.590 -0.2637 -0.1309  0.8595
   14PET    H10  423   2.732   3.545   3.619  0.7140 -1.2809  1.6795
   14PET    H11  424   2.858   3.554   3.498 -2.8996  0.0931 -0.3505
   14PET    C12  425   2.763   3.742   3.558 -0.2536  0.3843  0.0644
   14PET    H13  426   2.674   3.741   3.494 -1.7669  1.6648  2.0898
   14PET    H14  427   2.836   3.801   3.501 -0.2579 -0.7675 -1.1561
   15PET     C9  428   2.725   3.814   3.695 -0.2116 -0.0288 -0.6028
   15PET     H6  429   2.685   3.740   3.765  2.5514  0.2037  1.3254
   15PET     H7  430   2.640   3.881   3.677  0.4702  0.3088 -2.7604
   15PET     O2  431   2.827   3.880   3.772 -0.6788 -0.3148  0.1426
   15PET     C8  432   2.875   3.994   3.731 -0.7737  0.2948  0.5570
   15PET     O1  433   2.815   4.069   3.657  0.2194  0.0787 -0.1377
   15PET     C4  434   3.007   4.032   3.796  0.2258 -0.2157 -0.4179
   15PET     C5  435   3.068   3.938   3.891  0.6247 -0.7331 -0.1731
   15PET     C6  436   3.178   3.970   3.964  0.3236  0.0798  0.3871
   15PET     H4  437   3.216   3.887   4.023  0.0402 -0.9724 -0.8958
   15PET     H3  438   3.037   3.834   3.901 -0.3463 -0.6362 -1.9734
   15PET     C3  439   3.063   4.158   3.775  0.3469  0.2104 -0.8490
   15PET     H2  440   3.028   4.223   3.695 -1.1431 -0.7185 -0.9657
   15PET     C2  441   3.169   4.188   3.869  0.1326  0.0894  0.4195
   15PET     H1  442   3.202   4.291   3.872 -0.2910  0.3424 -2.1452
   15PET     C1  443   3.230   4.104   3.959  0.0565  0.7722  0.2933
   15PET     C7  444   3.356   4.147   4.027 -0.5498 -0.4684 -0.1657
   15PET     O3  445   3.390   4.269   4.026 -0.7723  0.2857 -0.3955
   15PET     O4  446   3.399   4.060   4.121 -0.3544 -0.3249  0.5355
   15PET    C10  447   3.504   4.105   4.202  0.4639  0.0279  1.0330
   15PET     H8  448   3.487   4.204   4.245  3.6458  1.4584 -0.8138
   15PET     H9  449   3.601   4.116   4.153  0.2348 -0.7618  0.3882
   15PET    C11  450   3.513   4.012   4.327  0.4672  0.5017 -0.3162
   15PET    H10  451   3.411   3.971   4.338  0.3673  0.4318 -1.4337
   15PET    H11  452   3.524   4.069   4.420 -3.0245  0.9131 -0.0629
   15PET    C12  453   3.623   3.908   4.327 -0.9430 -0.1660 -1.2188
   15PET    H13  454   3.632   3.861   4.425 -2.9421 -2.5081 -2.1329
   15PET    H14  455   3.722   3.949   4.303 -1.2785  0.7366 -1.0801
   16PET     C9  456   3.587   3.794   4.223 -0.1633 -0.2991 -0.6542
   16PET     H6  457   3.491   3.752   4.253  0.4033 -1.4467 -0.4230
   16PET     H7  458   3.639   3.698   4.226  0.1961 -0.0605  1.4039
   16PET     O2  459   3.588   3.847   4.089  0.2044  0.2253 -0.4331
   16PET     C8  460   3.560   3.770   3.982 -1.1352  0.3762 -0.3252
   16PET     O1  461   3.557   3.652   3.982 -0.5543  0.1924  0.0838
   16PET     C4  462   3.519   3.847   3.863 -0.0257 -0.6880  0.7473
   16PET     C5  463   3.574   3.972   3.854  0.4020  0.8581  0.7063
   16PET     C6  464   3.532   4.053   3.746  0.6588 -0.0726  0.7007
   16PET     H4  465   3.575   4.153   3.742  1.8141 -0.5212  1.6711
   16PET     H3  466   3.652   4.010   3.919  2.2644 -2.1471  0.3292
   16PET     C3  467   3.416   3.802   3.774 -0.4609  0.0978 -0.8842
   16PET     H2  468   3.380   3.700   3.779  2.6539 -0.9669  3.5240
   16PET     C2  469   3.364   3.892   3.681  0.4725  0.5149 -0.4895
   16PET     H1  470   3.293   3.851   3.610 -1.2960  0.7403  1.1179
   16PET     C1  471   3.432   4.018   3.657 -0.4912  0.6601 -0.5129
   16PET     C7  472   3.390   4.118   3.556 -0.5162 -0.2736 -0.4434
   16PET     O3  473   3.463   4.210   3.518 -0.2326  0.2655 -0.9296
   16PET     O4  474   3.262   4.113   3.514 -0.4905 -0.6160  0.0747
   16PET    C10  475   3.216   4.209   3.420 -0.5636  0.6054  0.2708
   16PET     H8  476   3.277   4.211   3.329  1.1691  1.8105  1.4225
   16PET     H9  477   3.217   4.315   3.451 -0.8451  1.0587 -1.2096
   16PET    C11  478   3.067   4.168   3.389  0.1686 -0.5830  0.9416
   16PET    H10  479   3.016   4.249   3.337 -1.8128 -1.1594  1.9548
   16PET    H11  480   3.014   4.163   3.484  0.6709  0.5282  1.2917
   16PET    C12  481   3.042   4.046   3.304  0.4392 -0.2436  0.3567
   16PET    H13  482   3.062   4.058   3.197  1.9203  0.3500  0.6822
   16PET    H14  483   2.934   4.028   3.312  0.0621  1.1276 -1.3010
   17PET     C9  484   3.103   3.926   3.361  0.3962 -0.1903 -0.6854
   17PET     H6  485   3.090   3.911   3.469  0.2667 -1.0457 -0.8203
   17PET     H7  486   3.211   3.927   3.347  0.5372 -2.4765  0.1365
   17PET     O2  487   3.032   3.818   3.294  0.1717 -0.0877  0.4857
   17PET     C8  488   3.064   3.692   3.321 -0.5846  0.0299  0.6459
   17PET     O1  489   3.163   3.661   3.388 -0.1524 -0.0571  0.5034
   17PET     C4  490   2.976   3.585   3.271  0.4429 -0.8402  0.5649
   17PET     C5  491   2.877   3.622   3.182  0.2333 -0.6145 -0.0763
   17PET     C6  492   2.795   3.529   3.113 -0.3703 -0.1026  0.0492
   17PET     H4  493   2.716   3.572   3.053 -0.0549  0.2292 -0.1322
   17PET     H3  494   2.874   3.727   3.157 -0.9393 -0.6283 -0.0104
   17PET     C3  495   2.984   3.451   3.295  0.0014 -0.5357 -0.6390
   17PET     H2  496   3.063   3.416   3.361  1.2759  0.1318 -1.7835
   17PET     C2  497   2.895   3.357   3.251  0.7989 -0.7969  0.0038
   17PET     H1  498   2.893   3.251   3.274 -3.5857 -0.8939 -0.3996
   17PET     C1  499   2.800   3.395   3.146  0.1498  0.0680  0.0159
   17PET     C7  500   2.703   3.299   3.092 -0.5881 -0.5919  0.2540
   17PET     O3  501   2.623   3.329   3.008  0.4114  0.3578  0.7084
   17PET     O4  502   2.712   3.176   3.148  0.8106  0.2408  0.2740
   17PET    C10  503   2.599   3.087   3.126 -0.3370 -0.0589  0.0448
   17PET     H8  504   2.515   3.108   3.059 -1.5369 -1.3926  1.1275
   17PET     H9  505   2.552   3.090   3.225 -0.4457  1.4334 -0.0422
   17PET    C11  506   2.660   2.943   3.079 -0.0442 -0.4298  0.4010
   17PET    H10  507   2.630   2.923   2.975 -0.0026  0.0922  0.2883
   17PET    H11  508   2.621   2.861   3.140  1.2019 -0.8106  0.6939
   17PET    C12  509   2.821   2.929   3.079  0.5153  0.0405  0.0845
   17PET    H13  510   2.847   2.935   3.185 -4.0690 -0.2982  1.3409
   17PET    H14  511   2.860   3.022   3.036 -5.1083  2.6687  0.1159
   18PET     C9  512   2.869   2.797   3.008 -0.4241 -0.0988 -0.4177
   18PET     H6  513   2.978   2.804   2.998 -0.4890 -1.0113 -2.0398
   18PET     H7  514   2.817   2.787   2.912 -1.0999 -0.3610 -0.0255
   18PET     O2  515   2.827   2.693   3.099 -0.0434  0.1026  0.7683
   18PET     C8  516   2.866   2.567   3.066  0.3069  0.9680  0.4480
   18PET     O1  517   2.947   2.532   2.981 -0.7213 -0.3311 -0.2705
   18PET     C4  518   2.803   2.462   3.152  0.1680 -0.2115  0.0761
   18PET     C5  519   2.844   2.329   3.145 -0.0933  0.7116 -0.5583
   18PET     C6  520   2.775   2.227   3.220 -1.0413 -0.3123  0.1119
   18PET     H4  521   2.804   2.123   3.224 -1.5325 -0.4468  0.3663
   18PET     H3  522   2.912   2.295   3.067 -1.5324  3.1190 -2.9587
   18PET     C3  523   2.699   2.499   3.247 -0.4504  1.0554  0.0976
   18PET     H2  524   2.664   2.601   3.258 -1.1188  0.9084 -0.6600
   18PET     C2  525   2.635   2.395   3.315  1.6187 -0.0212  0.4342
   18PET     H1  526   2.561   2.408   3.394  0.2490 -4.8629  0.1119
   18PET     C1  527   2.666   2.260   3.303  0.3408  0.1326 -0.2897
   18PET     C7  528   2.583   2.150   3.372  0.4323  0.0557  0.3606
   18PET     O3  529   2.481   2.182   3.429  0.1569  0.2172  0.1454
   18PET     O4  530   2.626   2.019   3.358  0.0340  0.0354  0.3717
   18PET    C10  531   2.557   1.915   3.426  0.4629 -0.9219  0.0970
   18PET     H8  532   2.450   1.916   3.402  0.8809  1.0540 -1.7626
   18PET     H9  533   2.577   1.914   3.534  1.7526 -2.1768 -0.1376
   18PET    C11  534   2.583   1.771   3.367  0.4066  0.2656 -0.2059
   18PET    H10  535   2.512   1.706   3.418  1.6474 -1.6444 -0.8659
   18PET    H11  536   2.681   1.733   3.399  1.0052  0.5316 -1.7029
   18PET    C12  537   2.581   1.768   3.217  0.3721 -0.4223 -0.0992
   18PET    H13  538   2.496   1.825   3.179  0.3831  0.2942  0.9245
   18PET    H14  539   2.559   1.664   3.192 -2.3813 -0.0889  0.7704
   19PET     C9  540   2.700   1.807   3.125 -0.5009  0.3670  0.2253
   19PET     H6  541   2.789   1.751   3.157 -1.8292 -2.7097 -1.1891
   19PET     H7  542   2.715   1.915   3.114  2.4644  0.2531  2.5676
   19PET     O2  543   2.665   1.771   2.991 -0.4330  0.4055 -0.4882
   19PET     C8  544   2.765   1.802   2.899  1.0528 -0.2157 -1.0008
   19PET     O1  545   2.859   1.876   2.921 -0.4566  0.4172 -0.0784
   19PET     C4  546   2.745   1.730   2.772 -0.4750  0.6290  0.3442
   19PET     C5  547   2.627   1.642   2.746 -0.5287  0.0693  0.0975
   19PET     C6  548   2.622   1.576   2.627  0.1830 -0.1619  0.3394
   19PET     H4  549   2.543   1.502   2.618  0.7629 -0.6650 -0.5985
   19PET     H3  550   2.552   1.620   2.821 -0.7242 -0.0308 -0.1291
   19PET     C3  551   2.838   1.749   2.664 -0.4362  0.1545  0.8301
   19PET     H2  552   2.928   1.811   2.666 -1.5782  1.8296  1.5667
   19PET     C2  553   2.817   1.683   2.538 -0.4554  0.3113  0.6971
   19PET     H1  554   2.886   1.704   2.456 -3.8331 -0.2929 -2.4447
   19PET     C1  555   2.717   1.589   2.527 -0.1828 -0.5218 -0.4493
   19PET     C7  556   2.710   1.503   2.402  0.4319 -0.3846 -0.1624
   19PET     O3  557   2.638   1.411   2.384 -0.1725 -1.0428  0.2658
   19PET     O4  558   2.797   1.545   2.307  0.0595 -0.3963 -0.4434
   19PET    C10  559   2.816   1.458   2.191 -0.1964 -0.2968  0.6007
   19PET     H8  560   2.725   1.418   2.144  0.1085  1.0270 -1.1783
   19PET     H9  561   2.871   1.366   2.209  0.3132 -0.0765  0.1876
   19PET    C11  562   2.884   1.547   2.076  0.6365 -0.4058 -0.3496
   19PET    H10  563   2.869   1.654   2.094 -3.9870 -0.5696 -2.5329
   19PET    H11  564   2.843   1.527   1.976  0.5674 -3.1640  0.1950
   19PET    C12  565   3.040   1.523   2.061 -0.1130 -0.2507  0.3896
   19PET    H13  566   3.066   1.610   1.999  1.7057  1.3567  3.2907
   19PET    H14  567   3.066   1.426   2.016  0.1219 -0.2928  0.6149
   20PET     C9  568   3.105   1.535   2.200  0.2736 -0.3404 -1.2014
   20PET     H6  569   3.210   1.506   2.207  0.0961 -0.7976 -0.2998
   20PET     H7  570   3.053   1.469   2.270  1.7104 -1.1269 -0.8576
   20PET     O2  571   3.118   1.668   2.255 -0.1314 -0.1030 -0.1542
   20PET     C8  572   3.136   1.684   2.391  0.5902 -0.0764  0.2618
   20PET     O1  573   3.118   1.599   2.480 -0.5382  0.2329 -0.1521
   20PET     C4  574   3.146   1.829   2.425  0.2577 -0.4863 -0.0899
   20PET     C5  575   3.142   1.871   2.553 -0.3779  0.0994 -1.0494
   20PET     C6  576   3.175   2.004   2.588 -0.1767 -0.2430 -0.2219
   20PET     H4  577   3.206   2.020   2.691  1.2912  0.0939 -0.7143
   20PET     H3  578   3.137   1.797   2.632 -2.4215  0.8468 -0.4287
   20PET     C3  579   3.167   1.923   2.318  0.1722 -0.3918  0.4130
   20PET     H2  580   3.158   1.906   2.212  0.4802  0.7819  0.1948
   20PET     C2  581   3.190   2.050   2.348  0.0995 -0.2410 -0.2457
   20PET     H1  582   3.196   2.129   2.273  0.2467  0.1707  0.1940
   20PET     C1  583   3.192   2.101   2.487  0.0924  0.0516  0.7599
   20PET     C7  584   3.218   2.249   2.523 -0.3189  0.1783  0.0847
   20PET     O3  585   3.219   2.290   2.637 -0.0858 -0.8715  0.5629
   20PET     O4  586   3.211   2.323   2.414  0.2265  1.0911 -1.0921
   20PET    C10  587   3.214   2.464   2.413  1.2011  0.0591  0.2251
   20PET     H8  588   3.307   2.498   2.461  1.1321  1.4116 -0.5650
   20PET     H9  589   3.136   2.505   2.478 -1.0868 -1.1254 -1.6732
   20PET    C11  590   3.187   2.518   2.271 -0.8071  0.5828 -0.9469
   20PET    H10  591   3.211   2.625   2.269  1.5024  0.1123 -0.7196
   20PET    H11  592   3.085   2.494   2.238 -1.3021 -0.7811  1.4296
   20PET    C12  593   3.281   2.456   2.163  0.1624  1.1978 -0.4666
   20PET    H13  594   3.275   2.347   2.170  1.1387  1.2278  1.0923
   20PET    H14  595   3.378   2.488   2.203  0.0007 -1.2013  2.0237
   21PET     C9  596   3.274   2.488   2.019 -0.5680  0.3153 -0.6787
   21PET     H6  597   3.174   2.458   1.985 -1.2798 -1.2617  2.5888
   21PET     H7  598   3.340   2.424   1.959 -0.2195  0.5175 -0.5138
   21PET     O2  599   3.302   2.619   1.997 -0.2554 -0.4009  0.2604
   21PET     C8  600   3.435   2.654   1.957 -0.5323 -0.4733 -0.8194
   21PET     O1  601   3.524   2.574   1.944  0.3530  0.1591 -0.8143
   21PET     C4  602   3.456   2.807   1.940  1.0407 -0.5638  1.3439
   21PET     C5  603   3.356   2.902   1.925  0.0216  0.5464 -0.0173
   21PET     C6  604   3.386   3.034   1.884 -0.4919 -0.3872  0.7922
   21PET     H4  605   3.303   3.104   1.876  0.2466  0.3813 -0.3662
   21PET     H3  606   3.251   2.881   1.944 -0.5015  3.3305  0.4345
   21PET     C3  607   3.591   2.839   1.911 -0.5200  0.1379 -0.1835
   21PET     H2  608   3.665   2.760   1.900 -0.1902  0.3837  0.2631
   21PET     C2  609   3.622   2.977   1.870  0.3438  0.6062  0.0454
   21PET     H1  610   3.728   2.992   1.854  0.3666 -0.2705 -0.6661
   21PET     C1  611   3.525   3.073   1.868 -0.7593 -0.4428 -0.0546
   21PET     C7  612   3.552   3.208   1.807  0.5141 -0.2282  0.3676
   21PET     O3  613   3.671   3.230   1.782  0.1939 -0.3784 -0.1960
   21PET     O4  614   3.451   3.298   1.781  0.1804  0.2730 -0.1031
   21PET    C10  615   3.473   3.422   1.708 -0.1899  0.5631 -0.0376
   21PET     H8  616   3.574   3.459   1.730 -0.3128  1.3233 -0.7406
   21PET     H9  617   3.414   3.496   1.764 -1.0393  0.0472 -0.2352
   21PET    C11  618   3.458   3.406   1.555 -0.1541  0.5376  0.8180
   21PET    H10  619   3.518   3.320   1.522 -2.8650 -1.0455 -0.1773
   21PET    H11  620   3.487   3.502   1.510 -2.2192  1.0576  0.5688
   21PET    C12  621   3.311   3.388   1.515 -0.4836 -0.4999  0.4808
   21PET    H13  622   3.266   3.485   1.493 -3.3995 -1.4679  1.9968
   21PET    H14  623   3.242   3.374   1.599 -0.3563  3.2738  1.2966
   22PET     C9  624   3.285   3.284   1.401  0.0642 -0.1831 -0.1978
   22PET     H6  625   3.328   3.315   1.305  0.3638  1.8953  0.5932
   22PET     H7  626   3.177   3.295   1.387  0.1022 -0.3959 -0.6790
   22PET     O2  627   3.324   3.152   1.434  0.6178 -0.0683 -0.3274
   22PET     C8  628   3.258   3.084   1.534 -0.4062 -0.1868  0.1293
   22PET     O1  629   3.169   3.137   1.604  0.0401 -0.1158  0.3685
   22PET     C4  630   3.294   2.941   1.548 -0.3831  0.9369  0.1369
   22PET     C5  631   3.413   2.888   1.502 -0.4600 -0.1591  0.5054
   22PET     C6  632   3.436   2.743   1.497  0.5144 -0.3375 -0.3745
   22PET     H4  633   3.520   2.706   1.440  2.4380  3.6233 -0.2612
   22PET     H3  634   3.483   2.957   1.454 -3.1765  1.0931 -1.7772
   22PET     C3  635   3.201   2.857   1.605  0.3630 -0.5824  0.9177
   22PET     H2  636   3.110   2.897   1.650  0.1726  0.5311 -0.4412
   22PET     C2  637   3.225   2.718   1.616  0.6323 -0.0258 -0.5076
   22PET     H1  638   3.167   2.658   1.686 -1.6599  0.5988 -1.8349
   22PET     C1  639   3.336   2.657   1.555  0.4542 -0.0691  0.0001
   22PET     C7  640   3.363   2.515   1.563 -0.9104  0.6564  0.6461
   22PET     O3  641   3.475   2.469   1.530  0.4024 -0.8287  0.0017
   22PET     O4  642   3.253   2.444   1.606 -0.2037 -0.5088 -0.1116
   22PET    C10  643   3.261   2.298   1.602  0.1066  0.7703  0.3119
   22PET     H8  644   3.187   2.248   1.665  1.7213  1.1047  2.5234
   22PET     H9  645   3.359   2.267   1.640 -0.9489  0.7841  3.1507
   22PET    C11  646   3.244   2.243   1.462  0.4674 -0.1223 -0.8135
   22PET    H10  647   3.235   2.134   1.453  2.9242 -0.7030  2.7612
   22PET    H11  648   3.333   2.260   1.401 -0.2786  1.0360 -1.6171
   22PET    C12  649   3.117   2.311   1.402  0.3792  0.4404 -0.0415
   22PET    H13  650   3.108   2.297   1.294  2.6786  0.1501 -0.2266
   22PET    H14  651   3.123   2.420   1.405  1.2093  0.3550  2.0816
   23PET     C9  652   2.982   2.264   1.458 -0.4193 -0.4928 -0.0725
   23PET     H6  653   2.982   2.161   1.495 -0.2975 -0.3772  0.2499
   23PET     H7  654   2.922   2.272   1.366 -0.7223 -2.0439 -0.0186
   23PET     O2  655   2.948   2.356   1.555 -0.5881  0.1135  0.7343
   23PET     C8  656   2.895   2.311   1.676 -0.3138 -0.4466  0.4331
   23PET     O1  657   2.866   2.197   1.693 -0.5821  0.0040 -0.3450
   23PET     C4  658   2.883   2.417   1.782 -0.4732 -0.8331 -0.2090
   23PET     C5  659   2.899   2.561   1.751 -0.3811  0.3690 -0.3885
   23PET     C6  660   2.920   2.646   1.861  0.4864  0.8431  0.7474
   23PET     H4  661   2.938   2.752   1.841  1.9264  0.2413 -1.2936
   23PET     H3  662   2.913   2.606   1.654  0.6155 -0.7332 -0.7663
   23PET     C3  663   2.865   2.377   1.914 -0.0096 -0.8542  0.0321
   23PET     H2  664   2.845   2.272   1.936 -0.2423 -0.9480 -0.6377
   23PET     C2  665   2.883   2.469   2.021  0.1939 -0.4912  1.2677
   23PET     H1  666   2.874   2.439   2.124  1.8307 -2.1844  0.9476
   23PET     C1  667   2.915   2.611   2.000 -0.6818  0.0514 -1.1179
   23PET     C7  668   2.933   2.707   2.118 -0.4706  0.8891 -0.3586
   23PET     O3  669   2.901   2.677   2.234  0.2454 -0.1730  0.2574
   23PET     O4  670   2.973   2.831   2.073  0.1976  0.0826  0.0848
   23PET    C10  671   3.001   2.929   2.167  0.0729 -0.3853 -0.2261
   23PET     H8  672   3.069   2.884   2.240  0.5781 -0.9906 -1.0614
   23PET     H9  673   2.916   2.961   2.229 -0.5254 -1.6208 -0.3873
   23PET    C11  674   3.073   3.053   2.096 -0.0728 -0.2554  0.6259
   23PET    H10  675   2.988   3.113   2.059  0.4923  0.5168  0.5811
   23PET    H11  676   3.136   3.046   2.007 -0.9144  0.5148 -0.0355
   23PET    C12  677   3.163   3.136   2.201 -0.1567 -0.3570  0.5783
   23PET    H13  678   3.231   3.083   2.269 -1.4607 -2.2115  0.4680
   23PET    H14  679   3.089   3.196   2.255 -0.0434  1.0131 -0.7372
   24PET     C9  680   3.256   3.238   2.128  0.6721  0.6399  0.2159
   24PET     H6  681   3.334   3.178   2.079  1.9147  0.0932  2.7721
   24PET     H7  682   3.304   3.304   2.202  0.5925 -2.0872  2.8203
   24PET     O2  683   3.183   3.318   2.027  0.1487  0.0755  0.2931
   24PET     C8  684   3.224   3.449   1.995  0.0562  0.4906 -0.4422
   24PET     O1  685   3.326   3.502   2.035 -0.7644 -0.1861  0.0323
   24PET     C4  686   3.143   3.514   1.885 -0.0376 -0.4146 -0.5246
   24PET     C5  687   3.022   3.462   1.830  0.4899 -0.1675  0.3418
   24PET     C6  688   2.953   3.529   1.728 -0.9848 -0.4120  0.6686
   24PET     H4  689   2.859   3.488   1.692 -0.6383  0.0825 -0.8166
   24PET     H3  690   2.980   3.369   1.865  1.1505 -0.9767 -0.9802
   24PET     C3  691   3.186   3.642   1.841  0.0037 -1.0399 -0.4630
   24PET     H2  692   3.275   3.682   1.889  1.0581 -5.4532  1.5395
   24PET     C2  693   3.108   3.721   1.755  0.0700  0.1185  0.1178
   24PET     H1  694   3.138   3.822   1.728  1.2577 -1.2462 -4.0433
   24PET     C1  695   2.989   3.673   1.702  0.1478  0.1122  0.2649
   24PET     C7  696   2.896   3.752   1.623  0.6354  0.3254 -0.0153
   24PET     O3  697   2.785   3.717   1.600 -0.4028 -0.1438 -0.4873
   24PET     O4  698   2.950   3.871   1.573 -0.2749  0.3421 -0.0328
   24PET    C10  699   2.864   3.957   1.492  0.3193  0.6676  0.8002
   24PET     H8  700   2.825   3.895   1.411  1.3633 -0.9547  1.5153
   24PET     H9  701   2.925   4.026   1.433  0.3770  0.8812  1.1097
   24PET    C11  702   2.760   4.019   1.576 -0.6177  0.4635  0.3109
   24PET    H10  703   2.725   3.936   1.638 -2.6966  3.8561  3.9416
   24PET    H11  704   2.672   4.056   1.522  1.6826  2.9051 -1.9585
   24PET    C12  705   2.794   4.146   1.655  1.0248  0.3403 -0.3673
   24PET    H13  706   2.708   4.179   1.713 -0.0600 -0.3843 -1.5321
   24PET    H14  707   2.801   4.230   1.584  1.0908 -0.4111 -1.2579
   25PET     C9  708   2.909   4.137   1.757 -0.7736 -0.4628 -0.5998
   25PET     H6  709   2.924   4.233   1.807  0.7235 -0.7477 -0.4912
   25PET     H7  710   3.004   4.111   1.708  0.9813  3.3763  0.6121
   25PET     O2  711   2.872   4.037   1.845  0.2139  0.0599 -0.2122
   25PET     C8  712   2.959   3.982   1.936  0.3395 -0.6659 -0.1571
   25PET     O1  713   3.075   4.023   1.949 -0.1338 -0.2380  0.2980
   25PET     C4  714   2.900   3.858   2.005 -0.0443  0.7618 -1.1192
   25PET     C5  715   2.769   3.819   1.976  0.1464  0.7875  0.6220
   25PET     C6  716   2.714   3.696   2.030  0.5645 -0.1239 -0.6199
   25PET     H4  717   2.610   3.672   2.009 -0.8642  0.1808  5.3503
   25PET     H3  718   2.701   3.872   1.909  0.6210  2.0878  1.1430
   25PET     C3  719   2.976   3.775   2.085  0.0754  0.6595 -0.8876
   25PET     H2  720   3.080   3.796   2.107  1.0012 -3.0742 -1.2774
   25PET     C2  721   2.924   3.648   2.144 -0.3194  0.3483  0.1823
   25PET     H1  722   2.994   3.579   2.189  0.9258  1.6745  0.3014
   25PET     C1  723   2.789   3.609   2.115 -0.8694 -0.9543 -0.3124
   25PET     C7  724   2.740   3.477   2.138  0.2777  1.3186  0.8211
   25PET     O3  725   2.766   3.379   2.071 -0.0593 -0.2094  0.8462
   25PET     O4  726   2.665   3.466   2.250 -0.3532  0.0017  0.2687
   25PET    C10  727   2.619   3.338   2.288 -0.8311  0.0377  0.1119
   25PET     H8  728   2.701   3.287   2.339 -1.5060 -0.7009  0.4785
   25PET     H9  729   2.584   3.293   2.195  1.5695 -0.7031 -0.4512
   25PET    C11  730   2.520   3.360   2.395 -0.0690  0.3663 -0.1980
   25PET    H10  731   2.546   3.438   2.468  2.2821 -0.3450 -0.2563
   25PET    H11  732   2.495   3.271   2.454 -1.6379  1.6093  1.0668
   25PET    C12  733   2.387   3.406   2.316  0.1112  0.3017 -0.1112
   25PET    H13  734   2.414   3.488   2.248  0.2548 -0.5730 -1.1253
   25PET    H14  735   2.320   3.470   2.374 -3.2428 -1.4219 -1.9221
   26PET     C9  736   2.305   3.317   2.227  0.5197 -0.0260  0.0764
   26PET     H6  737   2.340   3.329   2.124  4.1628 -0.5291  1.1794
   26PET     H7  738   2.208   3.367   2.217 -0.3884 -1.9374 -0.9100
   26PET     O2  739   2.313   3.178   2.268  0.2318  0.3434 -0.3210
   26PET     C8  740   2.231   3.135   2.364 -1.1046 -0.3056 -0.0058
   26PET     O1  741   2.167   3.203   2.436 -0.2093 -0.0802  0.3602
   26PET     C4  742   2.223   2.974   2.375  0.4779  0.0027  0.4507
   26PET     C5  743   2.149   2.915   2.481 -0.5720  0.3375 -0.5247
   26PET     C6  744   2.143   2.770   2.489 -0.2960  0.5173  0.4600
   26PET     H4  745   2.082   2.737   2.572  1.2643  5.6047  3.8583
   26PET     H3  746   2.099   2.972   2.557  0.0966 -0.7327  0.7387
   26PET     C3  747   2.281   2.894   2.279 -0.0445 -0.0249  0.2417
   26PET     H2  748   2.334   2.928   2.190  2.1791 -0.1640  1.4909
   26PET     C2  749   2.279   2.753   2.291  0.1131 -0.5798  0.5814
   26PET     H1  750   2.332   2.701   2.211  0.1821 -0.9077  0.8370
   26PET     C1  751   2.210   2.690   2.394 -0.0052 -0.0383 -0.0674
   26PET     C7  752   2.214   2.537   2.420  0.8129 -0.1671  1.0017
   26PET     O3  753   2.271   2.450   2.355  0.1731 -0.0290  0.3235
   26PET     O4  754   2.148   2.507   2.540  1.0381  0.1081  0.1693
   26PET    C10  755   2.153   2.373   2.588 -0.2061  0.4593  0.0423
   26PET     H8  756   2.260   2.351   2.599 -0.2886 -0.1228 -0.2554
   26PET     H9  757   2.117   2.292   2.524  1.3213 -0.7741  0.7106
   26PET    C11  758   2.069   2.357   2.719 -0.2495 -0.0588 -0.4014
   26PET    H10  759   1.967   2.360   2.680 -0.2012  6.6518 -0.6107
   26PET    H11  760   2.089   2.437   2.792  1.0924 -0.8352  0.0982
   26PET    C12  761   2.106   2.233   2.811 -1.1432  0.8158 -0.0891
   26PET    H13  762   2.058   2.247   2.908 -0.9472  0.2640  0.0922
   26PET    H14  763   2.211   2.244   2.839 -0.4842 -1.0878 -1.6477
   27PET     C9  764   2.068   2.093   2.762 -0.1861  0.2338  0.2546
   27PET     H6  765   1.963   2.099   2.730 -0.1109  0.9243  0.1340
   27PET     H7  766   2.067   2.034   2.854  1.6452  3.5490  2.5093
   27PET     O2  767   2.155   2.053   2.658 -0.0161 -0.1383  0.6010
   27PET     C8  768   2.118   1.993   2.541 -0.0571 -0.4560 -0.3501
   27PET     O1  769   2.009   1.947   2.524  0.8383  0.0350 -0.2907
   27PET     C4  770   2.218   2.010   2.418 -0.8894 -0.4615 -0.0049
   27PET     C5  771   2.322   2.105   2.438  0.1245 -0.0150 -0.5919
   27PET     C6  772   2.403   2.140   2.328  0.5402  0.1649  0.4807
   27PET     H4  773   2.487   2.207   2.341  1.0303 -0.2305 -0.5368
   27PET     H3  774   2.347   2.152   2.532 -1.9513  1.0378 -0.5309
   27PET     C3  775   2.200   1.959   2.290  0.3330 -0.0254 -0.7922
   27PET     H2  776   2.129   1.876   2.287  1.6505 -1.3159  2.0651
   27PET     C2  777   2.280   1.997   2.180  0.4802 -0.2256 -1.1238
   27PET     H1  778   2.262   1.946   2.085  0.2936 -2.3783  0.0307
   27PET     C1  779   2.382   2.089   2.197  0.1206 -0.0244  0.6211
   27PET     C7  780   2.475   2.128   2.089 -0.1567 -0.0061  0.1366
   27PET     O3  781   2.570   2.200   2.113  0.0163  0.1253  0.2669
   27PET     O4  782   2.432   2.086   1.961 -0.3723 -0.1300 -0.7917
   27PET    C10  783   2.488   2.136   1.843 -0.2608  0.2594 -0.3523
   27PET     H8  784   2.448   2.086   1.754 -0.4870  0.3815 -0.3204
   27PET     H9  785   2.597   2.129   1.846 -0.4522 -2.6742  2.4742
   27PET    C11  786   2.451   2.281   1.842  0.0243 -0.5711  0.6763
   27PET    H10  787   2.504   2.329   1.925  1.1070 -0.4958 -0.0558
   27PET    H11  788   2.344   2.302   1.851 -0.4157 -2.3996 -0.1544
   27PET    C12  789   2.497   2.351   1.709 -0.3207 -0.4971  0.2683
   27PET    H13  790   2.426   2.315   1.634  0.5103 -1.5133 -0.0515
   27PET    H14  791   2.601   2.317   1.697  0.1210  0.2748  1.7460
   28PET     C9  792   2.517   2.502   1.717  1.1776 -0.1850  0.0787
   28PET     H6  793   2.418   2.544   1.695  1.2507  0.0885  0.2798
   28PET     H7  794   2.600   2.534   1.653  0.9733 -2.5173 -1.4221
   28PET     O2  795   2.541   2.541   1.849 -0.9205  0.3919  0.3928
   28PET     C8  796   2.566   2.675   1.863 -1.2181  0.4435  1.0197
   28PET     O1  797   2.562   2.755   1.772  0.1775 -0.2177 -0.0867
   28PET     C4  798   2.583   2.714   2.009  0.0675  0.4051  0.4351
   28PET     C5  799   2.580   2.614   2.120 -0.6297 -0.4850  1.0937
   28PET     C6  800   2.585   2.659   2.261 -0.0202  0.2888  0.5303
   28PET     H4  801   2.584   2.591   2.345  2.1223  1.1970  1.3237
   28PET     H3  802   2.555   2.509   2.109  0.1108 -0.3807 -1.8545
   28PET     C3  803   2.599   2.849   2.040 -0.4591  0.0132 -0.6823
   28PET     H2  804   2.587   2.914   1.955  0.6906  0.4556 -0.5195
   28PET     C2  805   2.603   2.890   2.179  0.0514  0.3777 -0.5705
   28PET     H1  806   2.610   2.994   2.209 -1.3342  0.9837 -2.2505
   28PET     C1  807   2.594   2.798   2.290  0.4634 -0.2218 -0.9696
   28PET     C7  808   2.566   2.854   2.423 -0.0856  0.4014 -1.0967
   28PET     O3  809   2.577   2.972   2.447 -0.4115 -0.4435  0.0768
   28PET     O4  810   2.529   2.765   2.517 -0.0868  0.5028  0.0595
   28PET    C10  811   2.538   2.808   2.650  0.4107  0.2080 -0.0081
   28PET     H8  812   2.532   2.917   2.651 -0.4764  0.1688 -0.4126
   28PET     H9  813   2.634   2.784   2.699 -0.2931  1.9797  2.2988
   28PET    C11  814   2.429   2.726   2.723  0.4510  0.1640 -0.5937
   28PET    H10  815   2.332   2.729   2.672 -0.4323  0.5933  1.1039
   28PET    H11  816   2.418   2.766   2.824 -0.0513 -4.9185  1.5406
   28PET    C12  817   2.467   2.568   2.740 -0.5456  0.3354 -0.1397
   28PET    H13  818   2.509   2.522   2.650 -2.1540 -0.4807 -0.4893
   28PET    H14  819   2.372   2.514   2.752 -1.5599  1.6482 -1.9427
   29PET     C9  820   2.561   2.546   2.859  0.3821  0.8340 -0.2306
   29PET     H6  821   2.539   2.622   2.935  0.5509  1.3272 -0.6795
   29PET     H7  822   2.663   2.558   2.821  2.2424 -1.8209  3.5432
   29PET     O2  823   2.551   2.419   2.912  0.7864  0.5735  0.3790
   29PET     C8  824   2.462   2.390   3.009 -0.2333 -0.0206  0.4644
   29PET     O1  825   2.407   2.474   3.083 -0.3857 -0.7030 -0.2083
   29PET     C4  826   2.427   2.243   3.032 -0.4870 -0.6268  0.2568
   29PET     C5  827   2.449   2.137   2.933  0.1340 -0.3059  0.1028
   29PET     C6  828   2.416   2.007   2.965 -0.4470 -0.1305  1.3062
   29PET     H4  829   2.454   1.932   2.897 -1.9649 -0.5685  0.9292
   29PET     H3  830   2.486   2.165   2.835  0.8964 -2.5633 -0.2769
   29PET     C3  831   2.355   2.205   3.142  0.6440 -0.7355  0.3613
   29PET     H2  832   2.332   2.280   3.217  2.5206  0.5426 -0.2884
   29PET     C2  833   2.296   2.079   3.154  0.3398  1.8977  0.6500
   29PET     H1  834   2.224   2.061   3.233  2.0435 -0.5504  1.6974
   29PET     C1  835   2.327   1.973   3.065 -0.0213 -1.0403 -0.4038
   29PET     C7  836   2.258   1.841   3.072  0.1123  0.3978 -0.2597
   29PET     O3  837   2.202   1.799   3.171  0.8735  0.3978 -0.2477
   29PET     O4  838   2.281   1.769   2.957  0.5319  0.2323 -0.4666
   29PET    C10  839   2.240   1.629   2.961 -0.5790 -0.7110  1.4707
   29PET     H8  840   2.139   1.622   3.003 -0.5896 -0.8895  1.4146
   29PET     H9  841   2.310   1.579   3.030  2.1437 -0.1830 -0.8235
   29PET    C11  842   2.245   1.564   2.819 -0.7666 -0.0144  0.0501
   29PET    H10  843   2.246   1.456   2.833  2.8719  0.5016  5.1945
   29PET    H11  844   2.347   1.570   2.779 -0.5128  1.3270  0.8550
   29PET    C12  845   2.139   1.610   2.718  0.4110 -0.1158  0.2710
   29PET    H13  846   2.133   1.720   2.715  2.8283  0.1541  3.0560
   29PET    H14  847   2.043   1.583   2.763  0.2661 -2.6463 -1.4300
   30PET     C9  848   2.159   1.556   2.584  0.1989 -0.0760  0.2685
   30PET     H6  849   2.074   1.574   2.517 -0.2750 -2.2433  0.2245
   30PET     H7  850   2.171   1.447   2.586  2.9988  0.1132 -2.5081
   30PET     O2  851   2.277   1.622   2.526  0.0697  0.0734 -0.0488
   30PET     C8  852   2.309   1.587   2.396  0.4022 -1.0162 -1.3303
   30PET     O1  853   2.251   1.499   2.338 -0.3084 -0.3884 -0.5170
   30PET     C4  854   2.409   1.679   2.331  0.1550 -0.2491 -0.1673
   30PET     C5  855   2.453   1.653   2.200  0.0784  0.7060 -0.0503
   30PET     C6  856   2.568   1.725   2.144 -0.0735 -0.2451 -0.6070
   30PET     H4  857   2.598   1.697   2.044  4.6969  1.0599  0.3464
   30PET     H3  858   2.398   1.586   2.136 -1.5651  1.7751  0.1902
   30PET     C3  859   2.466   1.791   2.401  0.6933  0.0691  0.1096
   30PET     H2  860   2.427   1.827   2.496  1.6942  2.0167 -0.2079
   30PET     C2  861   2.572   1.866   2.343  0.5236 -0.2126  0.3414
   30PET     H1  862   2.606   1.944   2.411 -1.7681  1.8237 -0.7830
   30PET     C1  863   2.633   1.830   2.216  0.4645 -0.6730 -0.6557
   30PET     C7  864   2.742   1.922   2.165 -0.1550 -0.4976 -0.0356
   30PET     O3  865   2.810   1.914   2.063 -0.3125  0.2150  0.3274
   30PET     O4  866   2.747   2.034   2.250 -0.2616 -0.2910  0.1899
   30PET    C10  867   2.844   2.133   2.230  0.4752 -0.1572 -0.5729
   30PET     H8  868   2.815   2.182   2.136 -2.0672 -0.3568  0.0606
   30PET     H9  869   2.938   2.077   2.220  0.5813 -0.2187  0.6251
   30PET    C11  870   2.853   2.220   2.358  0.0713 -0.6203  0.0810
   30PET    H10  871   2.932   2.296   2.349 -1.3664  1.0313  0.9345
   30PET    H11  872   2.855   2.156   2.447 -4.4001  0.8932  1.4351
   30PET    C12  873   2.717   2.292   2.391  1.0139  0.2312 -0.8013
   30PET    H13  874   2.645   2.299   2.309 -1.8511  0.2005  1.6141
   30PET    H14  875   2.738   2.389   2.438  1.9809  0.9658 -2.6903
   31SOL     OW  876   4.329   1.459   1.628  0.4957  0.9520  0.2217
   31SOL    HW1  877   4.372   1.405   1.695 -0.9354 -0.4556  0.0566
   31SOL    HW2  878   4.371   1.433   1.546 -0.9038 -0.7734 -0.0042
   32SOL     OW  879   2.361   3.322   2.907 -0.0918  0.0634  0.2209
   32SOL    HW1  880   2.379   3.269   2.829  1.1751 -0.4265  0.8395
   32SOL    HW2  881   2.444   3.364   2.927 -1.3495  3.2989 -0.9775
   33SOL     OW  882   5.432   0.492   3.095 -0.2894  0.5914  0.0368
   33SOL    HW1  883   5.443   0.398   3.076 -1.6946  0.5701 -0.7004
   33SOL    HW2  884   5.471   0.536   3.020 -0.8367  0.5763 -0.2585
   34SOL     OW  885   5.429   1.830   2.617  0.2252  0.4641 -0.2357
   34SOL    HW1  886   5.504   1.832   2.557 -0.5142  1.3677 -1.1565
   34SOL    HW2  887   5.456   1.882   2.692  0.5377  0.7505 -0.5467
   35SOL     OW  888   5.083   0.465   3.276  0.1707 -0.7312 -0.0663
   35SOL    HW1  889   5.086   0.510   3.192 -2.0654  0.6513  0.5477
   35SOL    HW2  890   5.143   0.514   3.331 -0.8631  0.4344  0.0628
   36SOL     OW  891   4.552   4.237   1.736 -0.1576  0.4434 -1.0025
   36SOL    HW1  892   4.564   4.281   1.820  3.4864 -1.4315 -0.4314
   36SOL    HW2  893   4.486   4.170   1.753 -0.8501  1.3259 -0.1616
   37SOL     OW  894   3.021   4.704   3.468  0.0463 -0.5510 -0.1600
   37SOL    HW1  895   3.056   4.653   3.395 -0.3567 -2.9254  1.2636
   37SOL    HW2  896   3.099   4.738   3.513  0.3049  0.5105 -1.3705
   38SOL     OW  897   3.241   0.460   2.381  0.5660 -0.3303  0.1910
   38SOL    HW1  898   3.223   0.548   2.348 -4.2361 -0.4583  2.0211
   38SOL    HW2  899   3.219   0.465   2.474 -1.8879 -3.9600 -0.1097
   39SOL     OW  900   5.055   2.158   2.847 -0.3408  0.3566  0.2747
   39SOL    HW1  901   5.126   2.213   2.814 -0.3863 -0.3100 -0.9541
   39SOL    HW2  902   5.096   2.103   2.914  0.3201 -0.0772 -0.4824
   40SOL     OW  903   5.170   2.182   2.140 -0.4654 -0.1607 -0.6375
   40SOL    HW1  904   5.075   2.172   2.141 -0.5463  0.6183  0.7785
   40SOL    HW2  905   5.185   2.266   2.184  0.8760 -0.3401 -0.7542
   41SOL     OW  906   2.713   4.693   2.642 -0.1849  0.1318  0.7965
   41SOL    HW1  907   2.693   4.600   2.642  2.5879 -0.5224  0.9887
   41SOL    HW2  908   2.650   4.732   2.582 -1.2991 -1.8715  0.6272
   42SOL     OW  909   3.656   5.354   3.691 -0.7982  0.3149 -0.3889
   42SOL    HW1  910   3.748   5.330   3.690 -0.5438  1.2505  0.0336
   42SOL    HW2  911   3.649   5.425   3.626 -0.7713  1.8256  1.2191
   43SOL     OW  912   5.678   1.664   3.062  0.4212  0.0394 -0.2636
   43SOL    HW1  913   5.611   1.602   3.033  0.3990 -1.4914  2.8440
   43SOL    HW2  914   5.759   1.613   3.064  0.5449  0.2764  1.6463
   44SOL     OW  915   3.017   1.057   3.049  0.3082  0.2515 -0.5154
   44SOL    HW1  916   3.049   0.985   2.995  0.2711 -0.7856  0.8151
   44SOL    HW2  917   2.923   1.058   3.034  0.2552 -0.2454 -0.2143
   45SOL     OW  918   4.854   2.769   3.921 -0.2283  0.0011 -0.2773
   45SOL    HW1  919   4.944   2.770   3.890  0.3008  0.0461  1.2330
   45SOL    HW2  920   4.832   2.861   3.935 -0.5040 -0.0092 -0.6299
   46SOL     OW  921   4.240   4.121   1.550  0.5721  0.0679  0.2762
   46SOL    HW1  922   4.310   4.092   1.491 -0.5925  0.3923 -1.3027
   46SOL    HW2  923   4.241   4.216   1.543  0.7020  0.1341  1.1283
   47SOL     OW  924   4.968   4.097   1.352 -0.1631  0.2558 -0.7704
   47SOL    HW1  925   4.917   4.019   1.333 -0.0706  0.0953 -0.3759
   47SOL    HW2  926   4.916   4.169   1.319 -1.9381  0.3382  2.0855
   48SOL     OW  927   4.685   0.947   2.946 -0.5209 -0.1799 -0.2023
   48SOL    HW1  928   4.592   0.949   2.927 -0.7779  0.9781  1.0843
   48SOL    HW2  929   4.705   1.035   2.977  0.8007 -0.6942  0.4663
   49SOL     OW  930   3.325   5.252   2.664 -0.2530 -0.0363 -0.0711
   49SOL    HW1  931   3.398   5.237   2.724 -1.1159 -3.3677  0.2569
   49SOL    HW2  932   3.273   5.321   2.706 -0.8839 -2.3377  3.1689
   50SOL     OW  933   5.663   3.720   2.985 -0.0501 -0.0267  0.1602
   50SOL    HW1  934   5.610   3.657   2.936 -1.4432  1.5037 -0.3585
   50SOL    HW2  935   5.733   3.668   3.024 -0.3341 -1.6627 -1.4433
   51SOL     OW  936   5.479   2.390   2.456  0.1165  0.3580  0.3343
   51SOL    HW1  937   5.515   2.342   2.531 -0.5098 -0.6175  0.0141
   51SOL    HW2  938   5.394   2.350   2.440 -0.7463  2.0483  0.4982
   52SOL     OW  939   3.511   3.983   1.512  0.7780 -0.8259 -0.3229
   52SOL    HW1  940   3.566   4.039   1.567 -1.3079  0.7776  0.2171
   52SOL    HW2  941   3.568   3.956   1.441  1.9662  1.7394 -0.4246
   53SOL     OW  942   4.682   5.454   1.731  0.1422 -0.0493  0.8303
   53SOL    HW1  943   4.735   5.505   1.669 -0.0168 -2.2501 -1.1735
   53SOL    HW2  944   4.745   5.427   1.798  1.1901 -0.9814 -0.4866
   54SOL     OW  945   3.529   2.073   3.152 -0.5269 -0.6473  0.0028
   54SOL    HW1  946   3.461   2.009   3.132  1.1646 -2.2050 -0.8197
   54SOL    HW2  947   3.489   2.157   3.129 -3.4027 -1.1352  2.7342
   55SOL     OW  948   3.978   2.423   1.090 -0.1132  0.2338 -0.2428
   55SOL    HW1  949   4.002   2.461   1.005 -1.3212 -0.6788 -1.0152
   55SOL    HW2  950   4.054   2.441   1.146  1.1544 -0.0617 -1.8022
   56SOL     OW  951   5.521   3.467   2.871 -0.5634 -0.2671  0.0728
   56SOL    HW1  952   5.473   3.409   2.930 -1.0354  0.4676  0.4178
   56SOL    HW2  953   5.468   3.470   2.792  1.5349 -3.6243 -1.5927
   57SOL     OW  954   4.824   1.101   2.130  0.5583 -0.8194  0.0414
   57SOL    HW1  955   4.799   1.024   2.080  0.1066 -1.0702  0.6446
   57SOL    HW2  956   4.814   1.074   2.222  1.6886 -0.4834  0.2763
   58SOL     OW  957   3.487   1.218   3.686  0.2412  0.4598 -0.0202
   58SOL    HW1  958   3.487   1.291   3.624 -0.1393  1.0010  0.6041
   58SOL    HW2  959   3.526   1.255   3.766 -0.7520  0.2285  0.5792
   59SOL     OW  960   4.328   1.327   1.326  0.1565  0.1613  0.5633
   59SOL    HW1  961   4.356   1.237   1.309 -1.5228 -0.6123  1.7742
   59SOL    HW2  962   4.272   1.350   1.252  0.8575  0.3454  0.0843
   60SOL     OW  963   3.934   2.630   1.962 -0.6000 -0.7118  0.6089
   60SOL    HW1  964   3.920   2.724   1.947  2.4452 -0.1174  0.9970
   60SOL    HW2  965   3.917   2.589   1.878 -1.3330  0.2662  0.2667
   61SOL     OW  966   3.021   5.648   3.348  0.1620 -0.0139 -0.0250
   61SOL    HW1  967   3.090   5.661   3.413  0.3992 -2.3335  0.2112
   61SOL    HW2  968   3.031   5.721   3.287  2.6261 -0.1625  0.1689
   62SOL     OW  969   3.075   1.091   3.919 -0.0365 -0.6488  0.3348
   62SOL    HW1  970   3.142   1.025   3.904 -0.8778 -1.7225  1.2014
   62SOL    HW2  971   2.996   1.041   3.942 -1.0568  0.5948 -0.3560
   63SOL     OW  972   4.316   0.428   3.883 -0.4017  0.5210 -0.0129
   63SOL    HW1  973   4.292   0.376   3.806  1.7552 -1.0131  0.3116
   63SOL    HW2  974   4.410   0.444   3.873 -0.5197  2.1170  1.2443
   64SOL     OW  975   5.547   2.515   2.191 -0.3385 -0.4739  0.7045
   64SOL    HW1  976   5.548   2.423   2.163 -1.3033 -1.1342  2.7695
   64SOL    HW2  977   5.633   2.529   2.230 -0.3380 -0.6056  0.7499
   65SOL     OW  978   4.684   3.165   2.290 -0.2281  0.2663  0.4111
   65SOL    HW1  979   4.689   3.172   2.195  2.8425 -0.8017  0.4365
   65SOL    HW2  980   4.655   3.075   2.306  1.4251 -0.2642  0.4860
   66SOL     OW  981   4.155   0.644   3.498  0.4122 -0.2812 -0.4041
   66SOL    HW1  982   4.154   0.581   3.427  1.5455  1.2567 -1.8324
   66SOL    HW2  983   4.227   0.616   3.554  0.7352 -0.4119 -0.8824
   67SOL     OW  984   4.319   2.720   1.535  0.0227 -0.3577  0.6738
   67SOL    HW1  985   4.413   2.703   1.536  0.1867  0.4541 -0.2954
   67SOL    HW2  986   4.311   2.809   1.502 -1.0787 -0.3175  1.0256
   68SOL     OW  987   4.990   4.919   2.054  0.1551  1.0867 -0.5905
   68SOL    HW1  988   5.073   4.962   2.074 -0.8069  2.7490 -0.1145
   68SOL    HW2  989   4.968   4.870   2.134  1.1106 -0.1071 -1.0386
   69SOL     OW  990   4.553   1.750   1.549  0.0180 -0.3390 -0.3826
   69SOL    HW1  991   4.551   1.663   1.508  1.2361 -0.5272 -0.0614
   69SOL    HW2  992   4.587   1.808   1.482  2.3205 -0.7037  0.4243
   70SOL     OW  993   4.422   1.827   1.098  0.1803 -0.3091  0.1832
   70SOL    HW1  994   4.450   1.746   1.142 -0.0052 -0.8239 -0.6266
   70SOL    HW2  995   4.424   1.805   1.005  0.3512  0.6997 -0.0572
   71SOL     OW  996   4.738   4.728   1.421 -0.6315 -0.2124 -0.1012
   71SOL    HW1  997   4.697   4.642   1.426  1.1423 -0.9297  3.6299
   71SOL    HW2  998   4.665   4.789   1.411 -2.1644 -1.9015  0.5177
   72SOL     OW  999   4.129   4.775   1.225 -0.3709  0.0289  0.1021
   72SOL    HW1 1000   4.103   4.752   1.314 -0.7115  0.2904  0.0723
   72SOL    HW2 1001   4.100   4.701   1.171 -0.4312  0.0055  0.1672
   73SOL     OW 1002   3.840   4.665   1.338  0.5888  0.1220  0.5678
   73SOL    HW1 1003   3.847   4.749   1.293  0.5063  0.3084  0.9006
   73SOL    HW2 1004   3.889   4.678   1.419 -1.5249  0.6687  1.8139
   74SOL     OW 1005   3.987   4.295   1.351 -0.3252  0.1081  0.4983
   74SOL    HW1 1006   4.053   4.332   1.409  0.4210  1.9381 -1.4809
   74SOL    HW2 1007   3.919   4.362   1.346 -0.5411 -0.1840 -0.5013
   75SOL     OW 1008   4.287   2.633   3.598 -0.1888 -1.1531 -0.3657
   75SOL    HW1 1009   4.357   2.581   3.559 -0.5368 -2.1957  0.3748
   75SOL    HW2 1010   4.332   2.699   3.651  0.2373 -2.1970  0.5904
   76SOL     OW 1011   3.070   0.121   2.260  0.0033  0.5154 -1.2574
   76SOL    HW1 1012   3.030   0.088   2.179  2.9871 -1.8789 -1.8704
   76SOL    HW2 1013   3.007   0.099   2.328 -1.3728  0.1359 -2.6013
   77SOL     OW 1014   5.027   4.214   1.928 -0.0751 -0.1584 -0.3668
   77SOL    HW1 1015   5.048   4.131   1.886 -2.5424 -0.8648 -0.2704
   77SOL    HW2 1016   4.987   4.266   1.859  1.0288  0.7939 -0.3042
   78SOL     OW 1017   5.161   0.520   2.535  0.4304  0.2387 -0.3412
   78SOL    HW1 1018   5.175   0.524   2.630 -2.5317 -0.3311  0.1869
   78SOL    HW2 1019   5.166   0.427   2.514 -1.8329  0.0499 -0.1892
   79SOL     OW 1020   4.811   3.013   1.049  0.3370  0.6478  0.0522
   79SOL    HW1 1021   4.721   3.041   1.033  0.8872  1.6665 -1.4154
   79SOL    HW2 1022   4.812   2.986   1.140 -1.5200  0.3749  0.0064
   80SOL     OW 1023   5.614   4.348   3.044 -0.0839  0.5655 -0.0693
   80SOL    HW1 1024   5.637   4.406   2.971  1.2655  0.6370  0.3914
   80SOL    HW2 1025   5.694   4.343   3.096 -0.5518 -0.7566  0.5454
   81SOL     OW 1026   3.831   1.708   2.912  0.4300  0.4007 -0.3407
   81SOL    HW1 1027   3.864   1.621   2.892  0.7719  0.1807  1.1443
   81SOL    HW2 1028   3.738   1.704   2.891  0.2371 -0.6269  0.7052
   82SOL     OW 1029   5.267   4.600   2.516  0.1574  0.6599  0.3805
   82SOL    HW1 1030   5.325   4.652   2.461  1.1584 -0.8947 -0.0521
   82SOL    HW2 1031   5.303   4.512   2.512 -1.5670 -0.0852  1.0514
   83SOL     OW 1032   4.785   4.951   3.600  0.5914  0.3185 -0.4487
   83SOL    HW1 1033   4.779   4.866   3.642 -1.3958  0.8263  0.3779
   83SOL    HW2 1034   4.732   4.943   3.520  1.6717  0.3309 -1.1820
   84SOL     OW 1035   4.281   5.196   3.961 -0.1642  0.0944  0.3938
   84SOL    HW1 1036   4.318   5.211   4.048 -2.1882  3.1905  0.8002
   84SOL    HW2 1037   4.194   5.236   3.965 -0.1765  0.5677 -3.1301
   85SOL     OW 1038   3.916   2.850   1.410 -0.6563  0.4670 -0.5209
   85SOL    HW1 1039   3.895   2.886   1.497 -0.8659 -0.0201 -0.3642
   85SOL    HW2 1040   3.934   2.926   1.356  0.1512  0.7405  0.1295
   86SOL     OW 1041   5.045   1.734   1.945  0.2369 -0.1691  0.2809
   86SOL    HW1 1042   5.076   1.656   1.990  0.2390 -1.6614 -2.2302
   86SOL    HW2 1043   5.006   1.702   1.864  1.1904  2.4997 -1.3113
   87SOL     OW 1044   3.803   2.268   1.725 -0.6930  0.2996  0.0437
   87SOL    HW1 1045   3.809   2.237   1.635 -0.0903  1.4379 -0.3186
   87SOL    HW2 1046   3.849   2.352   1.725  0.6320 -0.3966  1.7441
   88SOL     OW 1047   4.268   3.245   2.206  0.3757 -1.0382  0.2687
   88SOL    HW1 1048   4.209   3.278   2.138  0.6583  0.9548  0.9478
   88SOL    HW2 1049   4.274   3.151   2.190 -1.0510 -0.8758 -1.2989
   89SOL     OW 1050   3.614   2.114   2.394  0.4557 -0.0133 -0.2568
   89SOL    HW1 1051   3.634   2.029   2.432  1.0128 -0.7234 -2.1253
   89SOL    HW2 1052   3.647   2.110   2.305 -0.1192  1.9262 -0.5926
   90SOL     OW 1053   5.185   5.021   3.370 -0.1149  0.0825 -0.3134
   90SOL    HW1 1054   5.159   5.103   3.328 -0.5288  0.0628 -0.0991
   90SOL    HW2 1055   5.163   5.034   3.463 -1.0498 -0.6215 -0.4328
   91SOL     OW 1056   5.215   4.724   3.025 -0.5081 -1.2727 -0.6245
   91SOL    HW1 1057   5.256   4.716   3.111 -0.8145 -0.9486 -0.4468
   91SOL    HW2 1058   5.133   4.675   3.033 -1.1116 -0.2386 -0.3588
   92SOL     OW 1059   4.815   0.390   4.041 -0.5608  0.5181  0.1188
   92SOL    HW1 1060   4.732   0.355   4.010  0.8086 -1.7641 -1.1571
   92SOL    HW2 1061   4.853   0.318   4.092  1.6499  0.6672 -1.2587
   93SOL     OW 1062   3.676   5.632   1.948  0.6371 -0.6141 -0.5541
   93SOL    HW1 1063   3.725   5.713   1.967 -1.4714 -0.1070  3.0240
   93SOL    HW2 1064   3.585   5.661   1.939  0.1676 -2.3255 -1.4209
   94SOL     OW 1065   4.837   5.286   2.192  0.6458 -0.0398  0.1432
   94SOL    HW1 1066   4.771   5.290   2.262  0.9193  0.2810  0.3793
   94SOL    HW2 1067   4.909   5.341   2.223  1.0869 -0.5020 -0.0545
   95SOL     OW 1068   4.682   4.734   1.774  0.2610 -0.3202  0.3012
   95SOL    HW1 1069   4.742   4.661   1.760 -0.5385 -0.9100 -0.1280
   95SOL    HW2 1070   4.737   4.812   1.768  0.7324 -0.7772 -1.6199
   96SOL     OW 1071   5.517   3.773   2.632 -0.7610 -0.7967  0.1831
   96SOL    HW1 1072   5.488   3.760   2.542  0.9620  0.5263 -0.5807
   96SOL    HW2 1073   5.567   3.694   2.652  2.8134  0.9005 -1.6613
   97SOL     OW 1074   3.462   1.750   1.622 -0.0727  0.2262 -0.1298
   97SOL    HW1 1075   3.386   1.780   1.672 -1.0899  0.1862 -1.6144
   97SOL    HW2 1076   3.487   1.826   1.569 -0.0805 -0.2537 -0.8279
   98SOL     OW 1077   4.045   4.251   3.154 -0.3028 -0.5502 -0.6587
   98SOL    HW1 1078   4.032   4.176   3.096  0.0195 -0.9232 -0.2561
   98SOL    HW2 1079   3.996   4.322   3.113 -1.7840 -1.3589 -0.3072
   99SOL     OW 1080   4.036   2.156   1.223  0.0624  0.4946 -0.2167
   99SOL    HW1 1081   4.089   2.107   1.160 -0.3534  0.5366 -0.6052
   99SOL    HW2 1082   4.010   2.235   1.176 -2.7073 -0.8293 -1.0398
  100SOL     OW 1083   5.135   4.769   2.762 -0.1524  0.2858  0.0581
  100SOL    HW1 1084   5.181   4.737   2.840 -1.6061  0.3408  0.9548
  100SOL    HW2 1085   5.160   4.861   2.756  0.0944  0.2416  0.3581
  101SOL     OW 1086   5.114   4.459   3.270 -0.5799  0.0783 -0.2092
  101SOL    HW1 1087   5.168   4.510   3.330  1.2396 -0.0540 -1.6991
  101SOL    HW2 1088   5.072   4.394   3.326 -0.0547  0.8794  1.1467
  102SOL     OW 1089   4.454   1.943   3.303 -1.2286 -0.2914  0.1877
  102SOL    HW1 1090   4.397   2.001   3.352 -0.8869 -0.2874  0.5889
  102SOL    HW2 1091   4.453   1.860   3.352 -1.3521 -0.4770 -0.1247
  103SOL     OW 1092   3.947   0.946   2.311 -0.3077 -0.1543 -0.6306
  103SOL    HW1 1093   3.975   0.866   2.267  0.0237 -0.7942  0.7226
  103SOL    HW2 1094   3.963   1.015   2.247  2.0395 -0.8252 -0.8117
  104SOL     OW 1095   4.174   3.320   2.880 -0.0243  0.1658 -0.0541
  104SOL    HW1 1096   4.116   3.319   2.956  0.4793 -1.3256  0.3317
  104SOL    HW2 1097   4.133   3.382   2.819 -1.5583 -0.2285  0.5562
  105SOL     OW 1098   3.521   1.661   2.324  0.1101 -0.0705 -1.2438
  105SOL    HW1 1099   3.496   1.568   2.329  0.2168 -0.0818 -0.8572
  105SOL    HW2 1100   3.519   1.682   2.231  0.4721 -0.5696 -1.3661
  106SOL     OW 1101   3.310   1.607   3.313 -1.0782  1.0622  0.1268
  106SOL    HW1 1102   3.347   1.520   3.329 -1.7755  1.0655  1.8795
  106SOL    HW2 1103   3.358   1.640   3.237  1.4298  0.4453  1.3882
  107SOL     OW 1104   5.271   1.143   3.388 -0.0948  0.2210 -1.1395
  107SOL    HW1 1105   5.335   1.083   3.350 -0.4723 -0.7719 -0.2616
  107SOL    HW2 1106   5.313   1.177   3.466 -0.1898  0.4675 -1.1963
  108SOL     OW 1107   4.402   3.958   1.162  0.3067 -0.2123  0.4484
  108SOL    HW1 1108   4.316   3.984   1.130 -0.0720 -0.6511  1.0741
  108SOL    HW2 1109   4.409   3.999   1.249  2.0092  2.3532 -0.8313
  109SOL     OW 1110   4.593   5.347   3.784 -0.0954 -0.3399 -0.8104
  109SOL    HW1 1111   4.653   5.276   3.806  0.8887  0.3043 -1.3424
  109SOL    HW2 1112   4.650   5.418   3.753 -1.1325  0.2924 -1.3218
  110SOL     OW 1113   5.201   0.057   2.204 -0.1619  0.2790  0.0893
  110SOL    HW1 1114   5.241   0.111   2.136  1.5201 -1.1994 -0.1395
  110SOL    HW2 1115   5.275   0.017   2.250 -1.3289 -0.8888  1.0191
  111SOL     OW 1116   5.236   5.015   2.207  0.3375 -0.4535  0.4769
  111SOL    HW1 1117   5.301   4.959   2.250  1.7988  0.1296 -0.8740
  111SOL    HW2 1118   5.174   5.039   2.276  1.3647 -1.3320  1.7242
  112SOL     OW 1119   4.667   2.222   1.396  0.0103 -0.0698  0.1533
  112SOL    HW1 1120   4.751   2.228   1.440 -0.4057  1.1806  0.8054
  112SOL    HW2 1121   4.603   2.243   1.464 -0.5689  3.1273 -1.2969
  113SOL     OW 1122   3.251   0.951   4.234  0.1658 -0.3799 -0.3945
  113SOL    HW1 1123   3.284   0.930   4.322  1.5642 -0.3026 -0.8966
  113SOL    HW2 1124   3.285   0.881   4.178  0.3484  0.2778 -1.1086
  114SOL     OW 1125   4.751   0.047   2.626 -0.4574 -0.0111  0.3912
  114SOL    HW1 1126   4.833  -0.002   2.620 -0.6811 -0.5951  1.9319
  114SOL    HW2 1127   4.756   0.111   2.555  2.0775  1.0875  1.5043
  115SOL     OW 1128   4.103   5.699   2.160  0.2877 -0.1704  0.0241
  115SOL    HW1 1129   4.074   5.638   2.228  1.2836  0.0342  0.6338
  115SOL    HW2 1130   4.139   5.773   2.208  0.6683  0.1392 -0.7327
  116SOL     OW 1131   4.450   4.955   1.681 -0.5263  0.2193 -0.4974
  116SOL    HW1 1132   4.510   4.954   1.607 -2.2784 -2.1418 -1.9473
  116SOL    HW2 1133   4.495   4.904   1.749  1.0498  2.3287  0.0770
  117SOL     OW 1134   2.806   5.450   3.279  0.1981 -0.5876  0.1451
  117SOL    HW1 1135   2.858   5.521   3.318 -0.8139 -0.0419  0.5086
  117SOL    HW2 1136   2.789   5.391   3.352  1.0277 -1.2042 -0.1548
  118SOL     OW 1137   4.644   3.965   3.812 -0.1204  0.0077  0.7987
  118SOL    HW1 1138   4.694   3.890   3.779  0.7947  0.3661  1.3483
  118SOL    HW2 1139   4.569   3.971   3.753  0.7962 -0.1689 -0.4157
  119SOL     OW 1140   3.848   3.086   1.639 -0.2238  0.8301 -0.2881
  119SOL    HW1 1141   3.794   3.158   1.672  2.1606  2.3159  0.4723
  119SOL    HW2 1142   3.928   3.089   1.691  0.8837 -0.9464 -1.7930
  120SOL     OW 1143   5.308   5.485   3.269  0.3302 -0.0768 -0.2808
  120SOL    HW1 1144   5.301   5.480   3.173 -0.2386  1.6859 -0.3508
  120SOL    HW2 1145   5.234   5.433   3.301 -0.9245  1.3293 -0.8397
  121SOL     OW 1146   4.339   5.380   3.576  0.4388 -0.5159  0.1633
  121SOL    HW1 1147   4.399   5.414   3.509  0.7813  2.9252  2.1047
  121SOL    HW2 1148   4.270   5.447   3.582  0.5502 -0.6304  3.3878
  122SOL     OW 1149   4.114   2.760   1.141 -0.3395  0.6080 -0.0299
  122SOL    HW1 1150   4.192   2.704   1.149 -0.9070 -0.2655 -0.5077
  122SOL    HW2 1151   4.051   2.721   1.201 -0.3257  1.4588  0.5354
  123SOL     OW 1152   0.192   2.409   2.029  0.0066 -0.9962  0.1294
  123SOL    HW1 1153   0.121   2.417   1.966  2.9563 -1.4457 -3.4173
  123SOL    HW2 1154   0.193   2.316   2.053 -1.8491 -0.6174  1.8400
  124SOL     OW 1155   3.210   1.339   2.457 -0.1901 -0.1084 -0.0126
  124SOL    HW1 1156   3.303   1.322   2.440  0.0516  0.2828  0.9289
  124SOL    HW2 1157   3.199   1.432   2.439 -0.5875 -0.3114 -0.9070
  125SOL     OW 1158   4.078   1.278   3.620  0.5864  0.9483 -0.0354
  125SOL    HW1 1159   4.064   1.282   3.525  1.9704  1.3396 -0.2412
  125SOL    HW2 1160   4.061   1.187   3.643 -1.5977  1.2521 -0.3405
  126SOL     OW 1161   4.622   1.307   3.375 -0.0170 -0.8209 -0.0750
  126SOL    HW1 1162   4.558   1.285   3.307 -0.7496 -1.9334  0.9496
  126SOL    HW2 1163   4.703   1.264   3.347 -0.9612 -3.3619  0.9655
  127SOL     OW 1164   3.806   2.349   2.362 -0.5351 -0.2744 -0.9821
  127SOL    HW1 1165   3.722   2.317   2.393 -1.6694 -0.8244 -4.4091
  127SOL    HW2 1166   3.791   2.440   2.339  0.6915  0.5823  1.4410
  128SOL     OW 1167   3.460   4.716   1.665 -0.0482 -0.1423 -0.4126
  128SOL    HW1 1168   3.521   4.758   1.726  0.7594 -0.7966 -0.7591
  128SOL    HW2 1169   3.461   4.624   1.690  0.7252 -0.5069 -1.7741
  129SOL     OW 1170   4.102   0.589   1.902  0.0786 -0.2795 -0.5060
  129SOL    HW1 1171   4.108   0.508   1.953  1.0985  0.2453  0.2319
  129SOL    HW2 1172   4.191   0.625   1.904 -0.9019  2.1323  1.2775
  130SOL     OW 1173   4.652   5.542   2.031  0.1523  1.0557  0.3534
  130SOL    HW1 1174   4.666   5.585   2.116 -0.7045  2.6328 -0.2693
  130SOL    HW2 1175   4.570   5.580   1.999 -1.4716 -2.1698  0.4336
  131SOL     OW 1176   4.551   1.352   1.766 -0.7164 -0.8193 -0.3254
  131SOL    HW1 1177   4.606   1.397   1.830 -0.8041 -1.9968  0.5994
  131SOL    HW2 1178   4.559   1.260   1.789 -1.8762 -1.1277 -1.1353
  132SOL     OW 1179   4.075   1.428   1.504 -0.0481  0.3491 -0.6126
  132SOL    HW1 1180   4.103   1.469   1.422  0.9810  2.6502  0.8494
  132SOL    HW2 1181   4.157   1.406   1.549 -0.5893  1.4314  0.9277
  133SOL     OW 1182   3.925   3.086   2.719  0.1817  0.4761  0.2663
  133SOL    HW1 1183   3.841   3.132   2.713  1.6413  3.4490  1.5482
  133SOL    HW2 1184   3.930   3.058   2.811  1.2499  1.6223  0.5602
  134SOL     OW 1185   2.750   3.254   1.377  0.5627  0.0756 -0.3923
  134SOL    HW1 1186   2.776   3.186   1.314 -2.0912 -2.1143  0.8009
  134SOL    HW2 1187   2.765   3.215   1.462 -1.7489  0.6782  0.3177
  135SOL     OW 1188   2.944   5.593   2.887  0.1112  0.7201  0.4265
  135SOL    HW1 1189   2.939   5.633   2.974  1.1803  2.6406 -0.3592
  135SOL    HW2 1190   2.984   5.508   2.901  0.3084  1.0355  1.8180
  136SOL     OW 1191   4.659   4.506   2.949  0.0666  0.1009 -0.5171
  136SOL    HW1 1192   4.596   4.541   3.011  0.9991 -1.5869  1.4438
  136SOL    HW2 1193   4.744   4.538   2.980  0.4728 -0.1270 -1.3622
  137SOL     OW 1194   4.995   4.621   1.652  0.0173  0.1637  0.3922
  137SOL    HW1 1195   5.015   4.694   1.710  2.3597 -0.5103  0.5212
  137SOL    HW2 1196   4.946   4.660   1.580  0.5613  1.7187  0.8467
  138SOL     OW 1197   3.284   0.522   3.735 -0.3581  0.3125  0.5576
  138SOL    HW1 1198   3.260   0.429   3.743  0.3146  0.1709  1.0377
  138SOL    HW2 1199   3.337   0.539   3.813  2.1111  0.2914 -1.0571
  139SOL     OW 1200   5.713   2.644   2.357 -0.0495  0.3383 -0.5846
  139SOL    HW1 1201   5.789   2.619   2.409  0.2998  2.0110 -0.2607
  139SOL    HW2 1202   5.744   2.717   2.303 -0.8831 -0.2495 -1.8887
  140SOL     OW 1203   4.729   3.892   1.223  0.3100  0.4378 -0.4521
  140SOL    HW1 1204   4.639   3.901   1.193  0.5237 -2.0103 -1.9271
  140SOL    HW2 1205   4.723   3.898   1.318 -1.2977  1.0926 -0.5756
  141SOL     OW 1206   3.873   4.059   2.100 -0.2134  0.2030 -0.1112
  141SOL    HW1 1207   3.951   4.050   2.155 -0.5929  1.4993  0.6570
  141SOL    HW2 1208   3.906   4.088   2.015  0.4175 -2.2385 -0.7395
  142SOL     OW 1209   3.753   4.464   1.699  0.1035  0.1411  0.2279
  142SOL    HW1 1210   3.828   4.426   1.746  0.9711  1.5750  0.0631
  142SOL    HW2 1211   3.678   4.445   1.754  0.8885  0.3982  1.4212
  143SOL     OW 1212   2.266   2.472   2.069 -0.4080 -0.1524  0.1193
  143SOL    HW1 1213   2.305   2.463   2.156 -0.6930 -1.2160  0.1536
  143SOL    HW2 1214   2.172   2.464   2.084 -0.3377 -2.8070 -0.5394
  144SOL     OW 1215   4.653   4.998   3.370  0.3887 -0.6267 -0.0082
  144SOL    HW1 1216   4.728   5.038   3.328  0.1761 -2.0243 -1.7660
  144SOL    HW2 1217   4.622   4.932   3.308 -2.0392 -0.3589  0.8575
  145SOL     OW 1218   3.532   0.874   1.316  0.3132  0.1017 -0.1244
  145SOL    HW1 1219   3.452   0.912   1.280  0.0243  0.3932  0.8229
  145SOL    HW2 1220   3.517   0.868   1.410  1.5338  0.4822  0.1124
  146SOL     OW 1221   3.968   0.325   2.101  1.0884  0.2825  0.5126
  146SOL    HW1 1222   4.060   0.301   2.094  1.3999  1.2218  1.2804
  146SOL    HW2 1223   3.956   0.346   2.194 -0.0688 -0.5011  0.5536
  147SOL     OW 1224   3.551   2.326   2.010 -0.3583 -0.2025 -0.3184
  147SOL    HW1 1225   3.646   2.309   2.009 -0.1581  0.7732 -3.2097
  147SOL    HW2 1226   3.544   2.421   2.000 -1.6631 -0.1747  0.7354
  148SOL     OW 1227   4.859   3.205   1.835  0.3223 -0.6621  0.3212
  148SOL    HW1 1228   4.938   3.165   1.799  1.7898  1.3753  1.1739
  148SOL    HW2 1229   4.879   3.217   1.928 -1.5644 -1.4163  0.8459
  149SOL     OW 1230   5.066   2.332   1.628 -0.4846 -0.4309 -0.3218
  149SOL    HW1 1231   4.972   2.351   1.633 -0.6976 -1.7551  0.9471
  149SOL    HW2 1232   5.073   2.240   1.651  1.0921 -0.4579 -0.8799
  150SOL     OW 1233   4.822   2.498   3.223  0.3452 -0.4659 -0.0451
  150SOL    HW1 1234   4.889   2.430   3.210 -0.5698 -1.1303 -1.4020
  150SOL    HW2 1235   4.799   2.490   3.316  2.1334 -0.2276  0.4447
  151SOL     OW 1236   4.997   1.425   3.490 -0.0767  0.6564  0.3625
  151SOL    HW1 1237   5.088   1.402   3.470 -0.5797 -1.5672  0.4275
  151SOL    HW2 1238   4.979   1.502   3.436  1.3439  0.1198 -0.9099
  152SOL     OW 1239   4.880   3.650   2.457  0.1081 -0.1302  0.4339
  152SOL    HW1 1240   4.891   3.728   2.402  2.9758  0.2988  1.5137
  152SOL    HW2 1241   4.958   3.597   2.439  0.1268 -0.9012  2.6565
  153SOL     OW 1242   4.478   2.171   1.608 -0.6009 -0.1115 -0.2271
  153SOL    HW1 1243   4.530   2.107   1.656  2.2371  3.4016  1.5764
  153SOL    HW2 1244   4.397   2.178   1.658  0.1059 -0.4543  0.9823
  154SOL     OW 1245   2.949   1.257   3.663  0.9160 -0.4427 -0.0075
  154SOL    HW1 1246   2.992   1.186   3.712  1.8935  0.4170  0.3851
  154SOL    HW2 1247   3.001   1.335   3.682  0.3700  0.2173 -1.1569
  155SOL     OW 1248   5.179   3.204   2.218 -1.0010 -0.5271 -0.0530
  155SOL    HW1 1249   5.222   3.282   2.252 -2.0560  0.3376 -0.6545
  155SOL    HW2 1250   5.215   3.132   2.269  0.6990  0.2414 -0.1494
  156SOL     OW 1251   3.730   1.002   2.001 -0.1091  0.7588 -0.3223
  156SOL    HW1 1252   3.751   1.077   1.946  2.2397  0.7772  0.5645
  156SOL    HW2 1253   3.780   0.929   1.965  1.1320  0.6737  1.4846
  157SOL     OW 1254   4.167   1.365   4.262  0.4560  0.1200 -0.3838
  157SOL    HW1 1255   4.185   1.377   4.169  3.2426  0.6601  0.1743
  157SOL    HW2 1256   4.228   1.296   4.289 -1.5193 -1.2608  0.7074
  158SOL     OW 1257   0.319   3.037   2.057  0.0817 -0.4149  0.1798
  158SOL    HW1 1258   0.245   3.092   2.083 -0.4471 -1.2889  0.5609
  158SOL    HW2 1259   0.389   3.062   2.117  0.3736  1.0079 -0.7164
  159SOL     OW 1260   4.401   2.129   3.715  0.1317  0.2858  0.5719
  159SOL    HW1 1261   4.454   2.129   3.794  1.6497  0.7778 -0.4196
  159SOL    HW2 1262   4.341   2.203   3.726  0.6465  0.6342  1.0667
  160SOL     OW 1263   1.802   0.471   3.644  0.6911  0.2771  0.2475
  160SOL    HW1 1264   1.890   0.491   3.612  1.2467  1.1862  2.2800
  160SOL    HW2 1265   1.744   0.512   3.580  1.4857 -5.6119 -4.6841
  161SOL     OW 1266   3.489   0.902   1.619 -0.5658  0.5703  0.0240
  161SOL    HW1 1267   3.460   0.917   1.709 -0.5353  1.2209 -0.0731
  161SOL    HW2 1268   3.575   0.861   1.629 -0.8413  0.0610  0.2985
  162SOL     OW 1269   5.744   3.446   1.668 -0.2423  0.4538  0.2531
  162SOL    HW1 1270   5.690   3.502   1.612 -0.2586  0.8376  0.6570
  162SOL    HW2 1271   5.696   3.441   1.750 -1.2282 -1.6992 -0.3956
  163SOL     OW 1272   5.056   3.242   3.611 -0.1569  0.7823 -0.0862
  163SOL    HW1 1273   5.055   3.246   3.515 -1.0812  2.6210 -0.0245
  163SOL    HW2 1274   4.965   3.222   3.634 -0.5419  2.9593  0.4548
  164SOL     OW 1275   4.320   1.909   3.620  0.5894 -0.2360 -0.1517
  164SOL    HW1 1276   4.354   1.983   3.671  2.2759 -1.6983  0.9420
  164SOL    HW2 1277   4.388   1.842   3.629 -0.9818 -1.9673 -0.9737
  165SOL     OW 1278   4.078   5.233   1.683 -0.0543  0.6481  0.3905
  165SOL    HW1 1279   3.984   5.242   1.670  0.0358 -0.1794 -0.9392
  165SOL    HW2 1280   4.091   5.143   1.712  0.1969  1.1818  1.9612
  166SOL     OW 1281   4.919   2.648   2.867  0.8531  0.1082  0.1116
  166SOL    HW1 1282   4.923   2.693   2.783  0.4429  0.9233  0.5227
  166SOL    HW2 1283   4.841   2.593   2.862  0.9944 -0.0669 -0.1500
  167SOL     OW 1284   5.245   4.283   2.603 -0.6534 -0.5715  0.3171
  167SOL    HW1 1285   5.338   4.296   2.620 -0.8379 -0.8601  1.5925
  167SOL    HW2 1286   5.240   4.196   2.563 -0.1071  0.5400 -2.2916
  168SOL     OW 1287   4.526   2.819   3.656 -0.4551  0.2598  0.0132
  168SOL    HW1 1288   4.580   2.896   3.640 -0.7348 -0.0305 -2.6919
  168SOL    HW2 1289   4.588   2.749   3.677 -0.1703  1.0893  2.0149
  169SOL     OW 1290   0.140   2.153   2.010  0.4889 -0.6462  0.5981
  169SOL    HW1 1291   0.212   2.120   1.958  0.1510 -1.4091  0.6119
  169SOL    HW2 1292   0.063   2.105   1.980 -0.4273  1.6466 -0.9048
  170SOL     OW 1293   4.294   1.836   1.499  0.2739  0.3414  0.2479
  170SOL    HW1 1294   4.389   1.821   1.504  0.2580 -0.6543 -1.6380
  170SOL    HW2 1295   4.285   1.931   1.488  1.0519  0.4637  0.6597
  171SOL     OW 1296   3.642   1.839   2.570  0.6160  0.1575  0.1335
  171SOL    HW1 1297   3.621   1.753   2.534  1.7123 -0.9603  2.1230
  171SOL    HW2 1298   3.670   1.822   2.660  0.5753  2.6233  0.6521
  172SOL     OW 1299   4.798   1.504   2.611 -0.2210 -0.8112 -0.0792
  172SOL    HW1 1300   4.878   1.510   2.664  0.4124 -1.5459 -0.9483
  172SOL    HW2 1301   4.828   1.515   2.521 -1.1352 -0.8288 -0.3900
  173SOL     OW 1302   4.814   3.682   3.498  0.5318 -0.4952  0.5463
  173SOL    HW1 1303   4.879   3.752   3.491  0.0311 -0.2189 -2.3369
  173SOL    HW2 1304   4.819   3.637   3.413 -2.7793 -0.6464  0.3505
  174SOL     OW 1305   4.773   3.666   3.803  0.0946 -0.6820 -0.3775
  174SOL    HW1 1306   4.807   3.673   3.714  0.1477  0.1669 -0.2944
  174SOL    HW2 1307   4.828   3.600   3.844  2.9074  1.9923  0.3121
  175SOL     OW 1308   5.606   3.087   2.965 -0.2933  0.3393 -0.2021
  175SOL    HW1 1309   5.530   3.094   3.024 -1.1277 -1.5039 -1.0385
  175SOL    HW2 1310   5.601   3.166   2.912 -1.2945  0.5235  0.1473
  176SOL     OW 1311   3.766   3.752   1.713  0.2652  0.0833  0.1508
  176SOL    HW1 1312   3.677   3.782   1.732  0.4426 -0.3445  1.7968
  176SOL    HW2 1313   3.760   3.713   1.626 -0.3474  3.2230 -1.2613
  177SOL     OW 1314   4.837   3.059   2.579 -0.8319  0.1453  0.5211
  177SOL    HW1 1315   4.847   3.086   2.671  0.0011  0.8310  0.2335
  177SOL    HW2 1316   4.878   3.129   2.529 -3.8340  1.2423 -0.5327
  178SOL     OW 1317   3.232   4.993   3.729 -0.7012  0.4893 -0.1847
  178SOL    HW1 1318   3.212   5.028   3.816  2.1159 -1.0930  1.1724
  178SOL    HW2 1319   3.202   5.060   3.669 -0.9139  2.5205  2.0923
  179SOL     OW 1320   4.987   3.563   2.068  0.0299  0.2840  0.6756
  179SOL    HW1 1321   5.010   3.570   2.160  1.3601 -0.2404  0.3919
  179SOL    HW2 1322   5.025   3.641   2.027 -1.9498  1.3550  0.8332
  180SOL     OW 1323   4.575   3.158   2.710 -0.5431 -1.0321 -0.3017
  180SOL    HW1 1324   4.660   3.200   2.720 -0.1287 -1.4242 -1.8727
  180SOL    HW2 1325   4.558   3.161   2.615 -2.6593 -0.2267  0.0828
  181SOL     OW 1326   3.874   1.275   2.926 -0.6285  0.1848 -0.3533
  181SOL    HW1 1327   3.968   1.260   2.914 -0.3060  1.2399  0.6944
  181SOL    HW2 1328   3.832   1.219   2.861  0.7465  0.1495 -1.2372
  182SOL     OW 1329   3.950   0.677   2.194 -0.4428 -0.0370  0.0357
  182SOL    HW1 1330   4.043   0.672   2.218 -0.3867 -0.0253 -0.1731
  182SOL    HW2 1331   3.906   0.617   2.254 -0.0074 -1.7292 -1.2843
  183SOL     OW 1332   2.809   3.137   1.622  0.9525 -0.0521  0.1200
  183SOL    HW1 1333   2.809   3.150   1.717 -1.1522 -0.3834  0.1938
  183SOL    HW2 1334   2.855   3.053   1.610 -1.1206 -1.3665  1.0913
  184SOL     OW 1335   4.455   2.038   2.438 -0.6513  0.3790  0.4176
  184SOL    HW1 1336   4.456   2.117   2.384  0.1540 -1.9101 -3.0852
  184SOL    HW2 1337   4.542   2.036   2.479 -1.1987  2.0491  1.6828
  185SOL     OW 1338   5.501   3.243   2.454 -0.0211  0.5053 -0.3001
  185SOL    HW1 1339   5.420   3.227   2.502 -0.1187  1.8091 -0.0126
  185SOL    HW2 1340   5.556   3.292   2.516  1.5871 -1.6834  0.0618
  186SOL     OW 1341   4.884   1.952   2.995 -0.3067 -0.4889  0.1167
  186SOL    HW1 1342   4.970   1.912   3.009  0.7376  2.1549  1.4691
  186SOL    HW2 1343   4.845   1.957   3.082 -0.3781  1.4894 -0.0044
  187SOL     OW 1344   3.312   0.860   2.058  0.4618 -0.2597  0.0760
  187SOL    HW1 1345   3.241   0.807   2.094 -0.1513  0.5898  0.1378
  187SOL    HW2 1346   3.372   0.872   2.131  2.0920 -3.2895 -0.6760
  188SOL     OW 1347   4.264   1.310   1.902  0.3099  0.0734 -0.0934
  188SOL    HW1 1348   4.282   1.354   1.819 -1.4205 -2.2482 -1.7962
  188SOL    HW2 1349   4.334   1.246   1.911 -1.1468 -1.7349 -1.3371
  189SOL     OW 1350   4.233   4.022   2.641 -0.0294  0.1481 -0.0420
  189SOL    HW1 1351   4.216   3.995   2.551  1.4953 -1.8843  0.2347
  189SOL    HW2 1352   4.315   4.071   2.637  0.1681 -0.1522  0.2671
  190SOL     OW 1353   4.827   2.921   1.297 -0.2121 -0.7174 -0.3554
  190SOL    HW1 1354   4.917   2.899   1.321 -0.3054  0.0541  0.7666
  190SOL    HW2 1355   4.774   2.876   1.363 -0.6060 -0.6377 -0.6233
  191SOL     OW 1356   5.102   0.078   2.837  0.5550 -0.0979 -0.3192
  191SOL    HW1 1357   5.020   0.056   2.882  0.2759  0.8227 -0.3650
  191SOL    HW2 1358   5.088   0.052   2.746  0.5273 -0.4778 -0.2064
  192SOL     OW 1359   3.803   1.054   3.496 -0.0424  0.1920 -0.8172
  192SOL    HW1 1360   3.847   1.121   3.548  0.6328 -0.1925 -0.8864
  192SOL    HW2 1361   3.784   0.985   3.560 -1.2263  0.6778 -0.6353
  193SOL     OW 1362   4.135   1.268   2.811  0.5572  0.1175  0.3582
  193SOL    HW1 1363   4.190   1.254   2.887  2.2410  0.0697 -0.8542
  193SOL    HW2 1364   4.184   1.232   2.737 -0.6727  0.8923 -0.8828
  194SOL     OW 1365   3.340   1.841   1.868  0.5333 -0.5354  0.0282
  194SOL    HW1 1366   3.383   1.924   1.890  0.1912 -0.0111 -1.2506
  194SOL    HW2 1367   3.247   1.860   1.871  0.4183 -1.1925  0.9156
  195SOL     OW 1368   0.405   2.827   1.830 -0.4171 -0.2669 -0.4022
  195SOL    HW1 1369   0.486   2.776   1.838  0.1289  0.5734 -0.5511
  195SOL    HW2 1370   0.362   2.816   1.915  0.4658  0.3077  0.1284
  196SOL     OW 1371   5.132   5.548   2.995  0.6597  0.4171  0.1031
  196SOL    HW1 1372   5.162   5.628   2.951  1.9139  0.4050  0.9163
  196SOL    HW2 1373   5.100   5.493   2.923  0.7818  1.2186 -0.5790
  197SOL     OW 1374   3.777   0.764   3.717  0.4804  0.5672  0.2073
  197SOL    HW1 1375   3.697   0.746   3.766 -0.4554  1.2294 -1.0528
  197SOL    HW2 1376   3.815   0.841   3.760  1.0160 -0.3864  1.4669
  198SOL     OW 1377   4.471   4.096   1.403  0.3154  0.2993 -0.3684
  198SOL    HW1 1378   4.518   4.023   1.443  0.1863  0.1096 -0.5602
  198SOL    HW2 1379   4.539   4.162   1.388  0.3663  0.3669  0.1440
  199SOL     OW 1380   3.668   4.038   1.818 -0.1560 -0.2189  0.8521
  199SOL    HW1 1381   3.749   4.018   1.772  0.8230 -0.3633  2.5897
  199SOL    HW2 1382   3.687   4.119   1.865 -1.9189  1.2496 -0.8630
  200SOL     OW 1383   3.384   4.029   2.034  0.2783 -0.1672 -1.0013
  200SOL    HW1 1384   3.454   4.080   1.993  0.0443  0.7743 -0.2521
  200SOL    HW2 1385   3.306   4.049   1.982 -0.7680  3.7142  1.8319
  201SOL     OW 1386   3.079   5.440   2.255 -0.1112 -0.4615  0.0519
  201SOL    HW1 1387   3.145   5.380   2.291  0.7001 -1.2395 -2.5925
  201SOL    HW2 1388   2.998   5.389   2.254 -0.5165  0.0784  2.1239
  202SOL     OW 1389   4.676   3.717   2.680  0.1786  0.4082  0.2715
  202SOL    HW1 1390   4.670   3.800   2.728  2.1010 -0.1313  1.4944
  202SOL    HW2 1391   4.621   3.731   2.602 -0.0128  2.6141  0.7484
  203SOL     OW 1392   3.640   2.351   1.379  0.4438 -0.2834 -0.0100
  203SOL    HW1 1393   3.591   2.353   1.461 -1.9300 -2.0047 -1.3340
  203SOL    HW2 1394   3.614   2.430   1.332 -0.4368 -0.7649 -0.3418
  204SOL     OW 1395   3.591   1.572   3.134  0.5219 -1.5196 -0.5901
  204SOL    HW1 1396   3.664   1.543   3.190  0.3177 -1.7801 -0.4542
  204SOL    HW2 1397   3.583   1.503   3.068  1.2005 -0.8724 -1.3481
  205SOL     OW 1398   4.053   1.111   1.213 -0.6354 -0.5369  0.0900
  205SOL    HW1 1399   4.139   1.075   1.191 -0.4666  0.8776 -1.6631
  205SOL    HW2 1400   4.005   1.037   1.249  0.9599 -1.6079  0.0749
  206SOL     OW 1401   4.670   2.591   3.816 -0.2126  0.2768  0.8947
  206SOL    HW1 1402   4.611   2.579   3.890 -1.4500 -1.6484 -0.3627
  206SOL    HW2 1403   4.730   2.661   3.843 -1.0672  0.0464  3.4275
  207SOL     OW 1404   4.153   2.080   2.602 -0.2694  0.4190 -0.3298
  207SOL    HW1 1405   4.108   2.162   2.582 -0.5508  0.0522 -1.1942
  207SOL    HW2 1406   4.119   2.055   2.688  0.3361  1.5637  0.2598
  208SOL     OW 1407   5.126   2.763   1.719 -0.0999  0.0930  0.1299
  208SOL    HW1 1408   5.104   2.756   1.812  2.1577  1.0901  0.7526
  208SOL    HW2 1409   5.144   2.856   1.705  0.3789 -0.1770 -1.1228
  209SOL     OW 1410   5.442   3.469   2.079  0.3478 -0.2455  0.5702
  209SOL    HW1 1411   5.394   3.511   2.149 -0.5839 -1.1202  0.4636
  209SOL    HW2 1412   5.375   3.430   2.024  1.1804 -1.4717  0.4143
  210SOL     OW 1413   3.902   4.988   3.208 -0.9681 -0.1054  0.3930
  210SOL    HW1 1414   3.838   4.936   3.257 -1.0908 -0.9366 -0.6431
  210SOL    HW2 1415   3.880   4.973   3.116  1.4292 -1.3643 -0.0218
  211SOL     OW 1416   4.259   4.988   1.323  0.1590 -0.4206  0.1436
  211SOL    HW1 1417   4.198   5.024   1.387  1.0730  0.7264  0.3778
  211SOL    HW2 1418   4.206   4.927   1.271 -1.3787  1.1600 -0.1937
  212SOL     OW 1419   5.461   1.558   2.215 -0.2730 -0.4767  0.6719
  212SOL    HW1 1420   5.429   1.569   2.305  3.1845  1.0262  1.8243
  212SOL    HW2 1421   5.501   1.643   2.193  0.0072 -1.2127 -1.8278
  213SOL     OW 1422   4.715   2.683   2.657 -0.0024 -0.3327 -0.0596
  213SOL    HW1 1423   4.622   2.705   2.653 -0.2843 -1.1639  1.3978
  213SOL    HW2 1424   4.715   2.587   2.668  1.0645 -0.5350 -1.7527
  214SOL     OW 1425   3.489   5.139   1.581  0.0595  0.4276 -0.5497
  214SOL    HW1 1426   3.527   5.214   1.537  1.4725  0.8761  1.3763
  214SOL    HW2 1427   3.485   5.165   1.673 -1.2554 -1.1150 -0.1519
  215SOL     OW 1428   5.339   4.197   3.439 -0.3509  0.3768 -0.2485
  215SOL    HW1 1429   5.419   4.232   3.479  0.8003 -0.9304 -1.3467
  215SOL    HW2 1430   5.364   4.178   3.349 -2.0857  0.4989 -0.7657
  216SOL     OW 1431   5.612   3.541   1.134  0.1578 -0.0002  0.1179
  216SOL    HW1 1432   5.683   3.580   1.185  1.3906 -1.1463 -0.6623
  216SOL    HW2 1433   5.613   3.448   1.159  0.7622 -0.5682 -1.9382
  217SOL     OW 1434   3.867   1.780   1.117  0.5616 -0.4163  0.4255
  217SOL    HW1 1435   3.955   1.747   1.129  1.8365  1.9797 -1.8980
  217SOL    HW2 1436   3.842   1.752   1.029  0.2334  1.5247 -0.1249
  218SOL     OW 1437   4.522   2.922   1.158 -0.4865  0.0454  0.5289
  218SOL    HW1 1438   4.496   2.859   1.091  0.6586 -1.5855  1.5716
  218SOL    HW2 1439   4.617   2.918   1.160 -0.3606  2.1249  0.3542
  219SOL     OW 1440   4.198   5.601   3.580  0.0760 -0.4369  0.5581
  219SOL    HW1 1441   4.189   5.659   3.505  0.2869 -0.9442  0.1370
  219SOL    HW2 1442   4.289   5.611   3.608 -0.6025  1.4345  2.1347
  220SOL     OW 1443   3.939   5.120   3.663  0.6496  0.0472 -0.0772
  220SOL    HW1 1444   3.966   5.181   3.594  1.9699  0.0227  0.4036
  220SOL    HW2 1445   3.871   5.066   3.622 -1.3621  2.5688 -0.1615
  221SOL     OW 1446   5.503   1.567   2.865  0.4387  0.1061 -0.0533
  221SOL    HW1 1447   5.410   1.560   2.885  0.7136 -0.5485  1.0090
  221SOL    HW2 1448   5.516   1.658   2.839 -0.7415 -0.1062 -1.4612
  222SOL     OW 1449   3.570   1.395   1.931 -0.0181 -0.2483 -0.0649
  222SOL    HW1 1450   3.480   1.392   1.963 -0.0301  1.8174  0.1402
  222SOL    HW2 1451   3.618   1.446   1.997  1.2325 -1.0017 -0.3597
  223SOL     OW 1452   4.752   1.617   3.517  0.5556 -0.1073 -0.2831
  223SOL    HW1 1453   4.777   1.700   3.476  1.5168  1.0310  2.4884
  223SOL    HW2 1454   4.798   1.550   3.465  0.1515  1.1117 -2.2508
  224SOL     OW 1455   0.213   3.659   1.781  0.4728 -0.4561  0.3889
  224SOL    HW1 1456   0.143   3.594   1.777 -0.2136  0.3538 -1.7383
  224SOL    HW2 1457   0.197   3.707   1.862  0.0611 -1.9152  1.1859
  225SOL     OW 1458   3.931   3.190   2.044  0.1088  0.2523  0.3835
  225SOL    HW1 1459   3.930   3.218   2.136 -2.2439 -1.4276  0.9193
  225SOL    HW2 1460   3.878   3.254   1.998 -0.4555 -0.0823  0.5697
  226SOL     OW 1461   4.179   5.305   2.711  0.0002 -0.7372  0.4472
  226SOL    HW1 1462   4.180   5.293   2.806 -1.1795 -1.7257  0.3598
  226SOL    HW2 1463   4.088   5.290   2.687  0.3159 -0.5854 -0.8564
  227SOL     OW 1464   5.415   3.823   1.243  0.0004  0.0569  0.9474
  227SOL    HW1 1465   5.438   3.907   1.202 -2.8897  0.9498  1.0765
  227SOL    HW2 1466   5.498   3.789   1.275  2.1509  0.2552 -3.9320
  228SOL     OW 1467   3.855   2.587   2.258 -0.1355  0.9273 -0.1548
  228SOL    HW1 1468   3.831   2.611   2.169 -0.7325 -0.2513 -0.3204
  228SOL    HW2 1469   3.920   2.653   2.284 -1.0324  2.1349 -0.9180
  229SOL     OW 1470   3.503   1.494   3.587 -0.0188  0.1346 -0.3526
  229SOL    HW1 1471   3.493   1.546   3.667  1.3488  0.8090 -0.5937
  229SOL    HW2 1472   3.587   1.523   3.550  1.2053 -2.8627 -0.0528
  230SOL     OW 1473   4.056   3.647   1.305  0.1031 -0.5338  0.1160
  230SOL    HW1 1474   4.102   3.608   1.231  1.1456 -0.0690  0.5035
  230SOL    HW2 1475   4.126   3.683   1.360 -0.7007 -0.2436  0.9607
  231SOL     OW 1476   2.510   4.320   2.427 -0.6807  0.0201  0.1042
  231SOL    HW1 1477   2.591   4.357   2.393 -0.5544 -1.0736 -0.8210
  231SOL    HW2 1478   2.538   4.243   2.478 -1.0016  0.6571  1.2733
  232SOL     OW 1479   3.523   4.828   3.247 -0.1523  0.5321 -0.0241
  232SOL    HW1 1480   3.554   4.778   3.171 -2.1925  1.9276 -1.8124
  232SOL    HW2 1481   3.556   4.917   3.233  1.0834  0.3962  1.7358
  233SOL     OW 1482   3.261   4.755   3.635  1.1959  0.5698  0.6846
  233SOL    HW1 1483   3.255   4.849   3.654 -0.3999  1.1274 -2.2032
  233SOL    HW2 1484   3.348   4.745   3.596 -0.6924  2.0360 -4.3307
  234SOL     OW 1485   4.902   4.370   1.747 -0.2548 -0.6166  0.5549
  234SOL    HW1 1486   4.950   4.410   1.675 -1.4416 -1.1427 -0.5484
  234SOL    HW2 1487   4.909   4.433   1.819 -2.5001  1.8236 -1.2961
  235SOL     OW 1488   5.346   3.421   3.179 -0.2499  0.3773  0.1706
  235SOL    HW1 1489   5.280   3.369   3.224  1.1100 -1.8881 -0.3531
  235SOL    HW2 1490   5.412   3.440   3.245  0.4981 -0.7846 -0.2137
  236SOL     OW 1491   3.934   0.548   4.132 -0.1215 -0.0419  0.2275
  236SOL    HW1 1492   3.884   0.629   4.133 -0.7914 -0.4493  0.0035
  236SOL    HW2 1493   4.026   0.576   4.124 -0.0988  0.7921  3.1006
  237SOL     OW 1494   4.801   2.354   1.652  0.5366  1.0325  0.9243
  237SOL    HW1 1495   4.733   2.335   1.716 -0.2566 -0.4205 -0.2939
  237SOL    HW2 1496   4.822   2.446   1.665 -1.6874  1.5158  1.3141
  238SOL     OW 1497   4.401   2.318   1.321  0.2610  0.0846  1.0947
  238SOL    HW1 1498   4.377   2.252   1.257  0.0154  1.0492  0.1777
  238SOL    HW2 1499   4.493   2.301   1.340  1.2931  1.8209 -2.0083
  239SOL     OW 1500   2.665   4.828   2.877  0.1495 -0.1492  0.2500
  239SOL    HW1 1501   2.572   4.834   2.900 -0.2098 -0.7944 -1.0391
  239SOL    HW2 1502   2.667   4.783   2.793  1.5489  0.9585 -0.3441
  240SOL     OW 1503   3.564   0.616   3.834  0.8321  0.0409  1.0784
  240SOL    HW1 1504   3.566   0.522   3.814  0.3206 -0.0384  1.3766
  240SOL    HW2 1505   3.565   0.619   3.930 -1.6020  0.2494  1.1361
  241SOL     OW 1506   3.512   4.429   1.778  0.3291 -0.4072 -0.4123
  241SOL    HW1 1507   3.520   4.365   1.849  0.6342  1.2019  1.0266
  241SOL    HW2 1508   3.452   4.388   1.716 -2.3159 -0.6554  2.1687
  242SOL     OW 1509   3.164   0.747   2.291 -0.5326  0.2836 -0.2798
  242SOL    HW1 1510   3.211   0.779   2.368 -0.3548  1.8862 -1.0472
  242SOL    HW2 1511   3.072   0.762   2.311 -0.6660 -1.6175  0.6561
  243SOL     OW 1512   4.244   4.771   3.653  0.0400 -0.4157 -0.5616
  243SOL    HW1 1513   4.189   4.740   3.580 -1.8617  0.4073  0.4793
  243SOL    HW2 1514   4.233   4.866   3.651  0.4549 -0.3518  0.4273
  244SOL     OW 1515   3.573   0.172   3.595  0.0606  0.1200 -0.2082
  244SOL    HW1 1516   3.497   0.118   3.617  0.6490 -0.8788 -0.5935
  244SOL    HW2 1517   3.619   0.185   3.679 -0.4771  0.6576  0.0097
  245SOL     OW 1518   4.916   3.902   3.152 -0.5464 -0.6825 -0.5406
  245SOL    HW1 1519   4.916   3.819   3.103 -0.0623 -1.3902  0.6222
  245SOL    HW2 1520   4.999   3.902   3.199 -2.0823 -1.2697  2.3191
  246SOL     OW 1521   3.616   1.820   2.101  0.1922 -0.8752 -0.0480
  246SOL    HW1 1522   3.683   1.842   2.166  1.2141 -0.9191 -1.0592
  246SOL    HW2 1523   3.577   1.904   2.077  0.2412 -0.7917  0.1669
  247SOL     OW 1524   3.800   2.140   1.477 -0.3735  0.1026 -0.0110
  247SOL    HW1 1525   3.872   2.143   1.415  0.6327 -0.0362  1.1416
  247SOL    HW2 1526   3.735   2.200   1.441  0.6220  0.7965 -0.6691
  248SOL     OW 1527   5.412   0.252   2.705  0.2569  0.1408  0.1940
  248SOL    HW1 1528   5.393   0.172   2.753  0.9847  0.9457  1.8426
  248SOL    HW2 1529   5.397   0.322   2.768 -1.0994  1.3705 -1.4483
  249SOL     OW 1530   3.721   2.123   3.775  0.0399  0.0184 -0.3644
  249SOL    HW1 1531   3.654   2.055   3.774  0.8321 -0.7801 -0.6375
  249SOL    HW2 1532   3.738   2.141   3.682 -0.1248  0.5427 -0.2931
  250SOL     OW 1533   3.883   4.043   1.443 -0.4965 -0.2449  0.4045
  250SOL    HW1 1534   3.921   4.110   1.386 -2.5779 -0.5956 -1.4747
  250SOL    HW2 1535   3.808   4.087   1.485 -1.3411 -1.1019 -0.1711
  251SOL     OW 1536   5.147   5.046   2.771 -0.1092  0.6294  0.5615
  251SOL    HW1 1537   5.068   5.092   2.741  1.0016  2.4640  0.4187
  251SOL    HW2 1538   5.172   5.090   2.852 -0.6908 -1.6339  2.0210
  252SOL     OW 1539   4.904   3.395   2.686  0.0117  0.2393 -0.7615
  252SOL    HW1 1540   4.903   3.322   2.748  0.2327  1.1188  0.2849
  252SOL    HW2 1541   4.953   3.362   2.611 -0.2483 -0.8296 -0.4727
  253SOL     OW 1542   3.558   4.421   3.859 -0.2167  0.5815 -0.1680
  253SOL    HW1 1543   3.629   4.361   3.881  0.7918  1.0555 -2.0217
  253SOL    HW2 1544   3.487   4.397   3.919  1.1988 -0.4583  1.1338
  254SOL     OW 1545   4.047   2.617   1.504  0.2429 -0.6349 -0.0543
  254SOL    HW1 1546   3.991   2.668   1.446  0.4090 -1.8532 -1.2987
  254SOL    HW2 1547   4.131   2.663   1.504 -0.7177  1.1988  1.8187
  255SOL     OW 1548   3.270   5.715   3.463 -0.1400 -0.0567  0.4837
  255SOL    HW1 1549   3.343   5.735   3.404 -0.4696  2.7814  0.9705
  255SOL    HW2 1550   3.310   5.711   3.550 -0.0503 -1.8720  0.3852
  256SOL     OW 1551   4.430   1.646   1.877 -0.7134  0.9462  0.3546
  256SOL    HW1 1552   4.492   1.574   1.886 -0.1163  1.2318 -1.2287
  256SOL    HW2 1553   4.450   1.705   1.950 -2.8608 -1.6312  3.1680
  257SOL     OW 1554   5.234   2.355   2.732  0.4689  0.2679 -0.1954
  257SOL    HW1 1555   5.258   2.290   2.666 -0.9684 -0.2052 -0.2729
  257SOL    HW2 1556   5.318   2.387   2.765  1.2413 -2.2484  0.4605
  258SOL     OW 1557   3.646   1.493   4.191  0.0190  0.4045  1.0334
  258SOL    HW1 1558   3.593   1.426   4.234 -3.2169  1.9829 -0.3452
  258SOL    HW2 1559   3.705   1.525   4.259 -1.4101 -0.7767  2.8645
  259SOL     OW 1560   4.587   1.305   2.661  0.1690 -0.6319  0.0397
  259SOL    HW1 1561   4.660   1.356   2.625 -0.1511 -0.7736 -0.8310
  259SOL    HW2 1562   4.569   1.239   2.594 -0.7641 -0.5892  0.2437
  260SOL     OW 1563   4.018   2.483   1.733 -0.1367  0.2961  0.0518
  260SOL    HW1 1564   4.083   2.413   1.728  0.7101  1.0004  1.0566
  260SOL    HW2 1565   4.012   2.517   1.644 -0.2633 -0.7794 -0.3628
  261SOL     OW 1566   5.169   3.281   1.482 -0.1455  0.2041 -0.4973
  261SOL    HW1 1567   5.092   3.236   1.448  1.2412 -1.3452 -1.7374
  261SOL    HW2 1568   5.233   3.276   1.410  0.7349  2.3987  0.1035
  262SOL     OW 1569   5.561   1.833   2.241 -0.5402 -0.0938 -0.4996
  262SOL    HW1 1570   5.524   1.918   2.266 -0.5369  0.2391 -1.6040
  262SOL    HW2 1571   5.655   1.848   2.233 -0.7027  0.1414 -2.0544
  263SOL     OW 1572   4.652   3.471   2.383  0.5539 -0.0241  0.5745
  263SOL    HW1 1573   4.687   3.410   2.448  0.8434 -2.6210 -1.8867
  263SOL    HW2 1574   4.700   3.552   2.396  0.3722 -0.3778  3.7715
  264SOL     OW 1575   5.121   1.827   3.103 -0.1839 -0.1667  0.0743
  264SOL    HW1 1576   5.171   1.758   3.146  0.5894  0.2155 -0.2006
  264SOL    HW2 1577   5.030   1.799   3.111 -0.0692 -0.0633  2.0346
  265SOL     OW 1578   4.845   4.544   1.962  0.3749  0.9690  0.3726
  265SOL    HW1 1579   4.863   4.579   2.049 -0.6612  3.5664 -0.3846
  265SOL    HW2 1580   4.754   4.513   1.967  0.2078  1.4147  0.1438
  266SOL     OW 1581   4.158   4.942   2.208  0.5052  0.6667 -0.3526
  266SOL    HW1 1582   4.089   4.995   2.168  0.7884  0.3087 -1.3283
  266SOL    HW2 1583   4.233   4.953   2.150  0.7136 -0.4221 -0.3012
  267SOL     OW 1584   4.571   3.362   2.912 -0.3870 -0.2580  0.1833
  267SOL    HW1 1585   4.572   3.350   3.007  0.4173  1.4709  0.4086
  267SOL    HW2 1586   4.662   3.373   2.888 -0.4725 -1.9013 -0.9852
  268SOL     OW 1587   4.487   1.903   3.043 -0.1455  0.2990  0.3257
  268SOL    HW1 1588   4.471   1.908   3.137  1.3784  2.2487  0.5181
  268SOL    HW2 1589   4.404   1.874   3.005 -2.0048  3.4693  1.8625
  269SOL     OW 1590   4.641   4.893   3.072 -0.5103  0.3189 -0.3748
  269SOL    HW1 1591   4.650   4.905   2.978 -3.3116 -1.9410 -0.9881
  269SOL    HW2 1592   4.695   4.816   3.091  1.1435  1.5709  0.1436
  270SOL     OW 1593   5.677   1.973   1.872 -0.1886 -0.2335  0.0251
  270SOL    HW1 1594   5.651   1.945   1.784  0.6275  0.4094 -0.4296
  270SOL    HW2 1595   5.596   1.973   1.922 -1.0919  1.7281 -1.3536
  271SOL     OW 1596   4.482   1.716   2.157  0.2494 -0.1569  1.4498
  271SOL    HW1 1597   4.561   1.764   2.182 -0.0696 -0.1927  2.5791
  271SOL    HW2 1598   4.422   1.730   2.230 -1.3045  1.0231 -0.0404
  272SOL     OW 1599   2.877   5.060   3.019  0.2776  0.1025  0.1277
  272SOL    HW1 1600   2.807   5.118   3.051  2.0207  2.3321 -0.0134
  272SOL    HW2 1601   2.833   4.976   3.004 -1.7330  0.5486  3.0660
  273SOL     OW 1602   4.950   3.256   2.067 -0.2804 -0.4545 -0.0459
  273SOL    HW1 1603   4.965   3.343   2.103 -0.9257 -0.3366 -0.0612
  273SOL    HW2 1604   5.036   3.227   2.038 -0.2409  0.6213 -1.0219
  274SOL     OW 1605   4.576   0.091   2.176  0.2711  0.9189 -0.7173
  274SOL    HW1 1606   4.542   0.137   2.100  0.7929  0.0232 -1.5139
  274SOL    HW2 1607   4.618   0.159   2.229  0.8172  1.3940 -1.7484
  275SOL     OW 1608   3.829   3.467   2.091 -0.2422  0.3272 -0.3304
  275SOL    HW1 1609   3.745   3.507   2.066 -1.4589 -1.1998  1.1868
  275SOL    HW2 1610   3.850   3.508   2.175 -0.2572 -0.4301  0.0424
  276SOL     OW 1611   5.243   0.076   3.238 -0.5624  0.2556 -0.5323
  276SOL    HW1 1612   5.317   0.015   3.230 -0.3538  0.4155  0.1464
  276SOL    HW2 1613   5.248   0.107   3.328 -0.8326  1.0763 -0.8005
  277SOL     OW 1614   3.043   4.736   3.833 -0.1980  0.0819  0.3652
  277SOL    HW1 1615   3.103   4.662   3.829 -0.7497 -0.3228 -0.6833
  277SOL    HW2 1616   3.056   4.782   3.750 -0.5685  0.6000  0.5880
  278SOL     OW 1617   3.501   1.658   3.837 -0.5741  0.0645  0.0079
  278SOL    HW1 1618   3.575   1.625   3.889  0.7420  0.9345 -1.2569
  278SOL    HW2 1619   3.424   1.624   3.882  0.5401  0.0663  2.0276
  279SOL     OW 1620   3.256   0.256   3.732 -0.4528  0.1044 -0.6613
  279SOL    HW1 1621   3.247   0.161   3.727  0.4229  0.0198 -0.7350
  279SOL    HW2 1622   3.213   0.289   3.653  0.4422 -0.3182 -1.3316
  280SOL     OW 1623   5.008   3.835   2.687  0.7239 -0.3700 -0.4911
  280SOL    HW1 1624   5.074   3.838   2.756 -0.8879 -0.0803  1.0801
  280SOL    HW2 1625   4.971   3.923   2.685 -0.9008 -1.0185 -0.0554
  281SOL     OW 1626   5.535   2.108   2.307 -0.2986  0.5614 -0.0140
  281SOL    HW1 1627   5.498   2.158   2.234  2.2510  1.7277 -0.5674
  281SOL    HW2 1628   5.531   2.169   2.381 -0.4369  0.3188  0.1778
  282SOL     OW 1629   5.455   3.602   3.389 -0.2968 -0.0414 -0.0667
  282SOL    HW1 1630   5.366   3.586   3.422 -0.7791 -0.7580 -1.6695
  282SOL    HW2 1631   5.454   3.695   3.363 -0.6213 -0.0778 -0.1890
  283SOL     OW 1632   3.569   2.106   1.692 -0.6776 -0.0838 -0.1388
  283SOL    HW1 1633   3.650   2.156   1.701 -1.0345  0.1600  2.2193
  283SOL    HW2 1634   3.597   2.021   1.657  0.9687 -0.8418  2.7928
  284SOL     OW 1635   5.097   4.123   3.008  0.1316 -0.1209 -0.0637
  284SOL    HW1 1636   5.131   4.061   3.073 -0.3950 -0.8916 -0.5015
  284SOL    HW2 1637   5.170   4.181   2.988 -0.1355  1.1038  2.3520
  285SOL     OW 1638   4.016   2.895   2.552 -0.5602  0.8983  0.5242
  285SOL    HW1 1639   3.968   2.950   2.614 -2.6160 -0.4694  0.1675
  285SOL    HW2 1640   4.088   2.951   2.522 -1.7280  2.8757  1.3097
  286SOL     OW 1641   5.365   5.701   2.374  0.2694  0.1835  0.6740
  286SOL    HW1 1642   5.422   5.661   2.440 -0.9828 -0.9338  1.0899
  286SOL    HW2 1643   5.286   5.726   2.422 -0.5057 -0.3104 -0.3158
  287SOL     OW 1644   5.222   3.944   3.251  0.3435  0.5248  0.1990
  287SOL    HW1 1645   5.300   3.999   3.256 -0.0368  0.9578  1.5362
  287SOL    HW2 1646   5.256   3.857   3.231  0.9309  1.2575 -2.1748
  288SOL     OW 1647   2.674   5.532   3.043 -0.5916  0.5269 -0.1903
  288SOL    HW1 1648   2.759   5.489   3.055  0.2529  2.0980 -0.3813
  288SOL    HW2 1649   2.650   5.563   3.130 -0.0644  1.7263 -0.4683
  289SOL     OW 1650   5.291   2.160   2.526 -0.0638  0.3042 -0.1887
  289SOL    HW1 1651   5.331   2.075   2.546 -0.4390  0.4140  1.0563
  289SOL    HW2 1652   5.260   2.151   2.436 -0.1399 -0.8879 -0.0508
  290SOL     OW 1653   3.076   5.213   3.210  0.3631  0.0681  0.1630
  290SOL    HW1 1654   2.993   5.207   3.162  0.3276 -1.4483  0.3839
  290SOL    HW2 1655   3.143   5.196   3.145  0.5272  1.6036 -0.0785
  291SOL     OW 1656   4.668   3.170   2.027  0.2948 -0.3733 -0.4554
  291SOL    HW1 1657   4.712   3.169   1.942  2.5484  1.7306  0.5996
  291SOL    HW2 1658   4.596   3.232   2.016  0.4595 -0.2565 -0.9091
  292SOL     OW 1659   3.872   4.390   2.223  0.1202 -0.9383  0.7060
  292SOL    HW1 1660   3.792   4.442   2.209  1.9923  1.8851  0.1113
  292SOL    HW2 1661   3.841   4.300   2.228 -3.0514  0.0373 -0.0900
  293SOL     OW 1662   5.422   2.258   2.045 -0.3864  0.9666  0.1317
  293SOL    HW1 1663   5.411   2.330   1.983 -0.7983 -0.6350 -1.6953
  293SOL    HW2 1664   5.339   2.210   2.042 -1.0375  1.8038  3.1992
  294SOL     OW 1665   3.384   0.171   2.786  0.3716  0.2364  0.2300
  294SOL    HW1 1666   3.385   0.199   2.694 -0.3651 -1.6866 -0.3810
  294SOL    HW2 1667   3.385   0.253   2.835 -1.9294  1.3681 -1.5211
  295SOL     OW 1668   2.796   0.550   2.617 -0.1920 -0.0996  0.0117
  295SOL    HW1 1669   2.782   0.457   2.598 -1.5579  0.3129 -1.1533
  295SOL    HW2 1670   2.738   0.595   2.555  0.1932  1.5111  0.8097
  296SOL     OW 1671   4.611   5.324   3.118 -0.3162  0.3352 -0.0742
  296SOL    HW1 1672   4.700   5.322   3.083  0.5615  1.2696  2.0153
  296SOL    HW2 1673   4.605   5.408   3.164 -1.6860 -0.4996  1.3049
  297SOL     OW 1674   2.853   4.504   3.548 -0.3931 -0.0604  0.7312
  297SOL    HW1 1675   2.902   4.568   3.497 -0.9046  0.2438  0.6266
  297SOL    HW2 1676   2.912   4.481   3.620 -0.1376  0.3885  0.6682
  298SOL     OW 1677   5.260   0.506   2.805 -0.0624  0.5295  0.4561
  298SOL    HW1 1678   5.302   0.522   2.890  0.9264  2.4411 -0.3473
  298SOL    HW2 1679   5.172   0.541   2.815  0.6043  2.3731  0.1998
  299SOL     OW 1680   2.912   0.048   2.473  0.4653 -0.0398  0.5866
  299SOL    HW1 1681   2.915   0.046   2.569  0.2728 -0.9988  0.5827
  299SOL    HW2 1682   2.869  -0.034   2.449  1.2572 -0.1902 -0.3478
  300SOL     OW 1683   3.398   4.653   1.980  0.4771  0.3984 -0.4413
  300SOL    HW1 1684   3.353   4.734   1.957  1.6795  1.3586  0.5429
  300SOL    HW2 1685   3.491   4.671   1.961  0.6956 -0.8886 -0.6298
  301SOL     OW 1686   3.990   1.096   2.538  0.0822  0.0024  0.5609
  301SOL    HW1 1687   3.964   1.052   2.456  1.3214  2.1599 -1.0373
  301SOL    HW2 1688   3.909   1.133   2.572  0.2379  3.0012 -2.1337
  302SOL     OW 1689   4.902   4.555   1.244 -0.1091 -1.1514 -0.5471
  302SOL    HW1 1690   4.829   4.617   1.236  0.6825  0.0430  1.1350
  302SOL    HW2 1691   4.903   4.531   1.337  1.9804 -0.7514 -0.4460
  303SOL     OW 1692   3.892   1.072   3.828  0.1433  0.1475 -0.3989
  303SOL    HW1 1693   3.796   1.079   3.832  0.0931  0.5413 -2.1937
  303SOL    HW2 1694   3.922   1.157   3.862 -0.1272  0.0352  0.1427
  304SOL     OW 1695   4.370   1.016   2.878  0.0115  0.4460 -0.0834
  304SOL    HW1 1696   4.365   1.064   2.795 -2.3748  0.7000  0.1854
  304SOL    HW2 1697   4.290   0.964   2.880  1.5466 -1.9367  0.6424
  305SOL     OW 1698   3.067   0.576   2.657  0.4049  0.6567 -0.2986
  305SOL    HW1 1699   2.976   0.548   2.641 -0.3366  1.7384  1.7955
  305SOL    HW2 1700   3.063   0.672   2.654  0.5305  0.8863  4.2536
  306SOL     OW 1701   4.033   5.268   3.893  0.2076 -0.2685 -0.8690
  306SOL    HW1 1702   3.994   5.208   3.829 -1.4450  1.5736 -1.6266
  306SOL    HW2 1703   4.053   5.347   3.844 -3.3199  2.1026  1.2788
  307SOL     OW 1704   4.145   0.253   3.016 -0.3650 -0.1615  0.4683
  307SOL    HW1 1705   4.173   0.293   3.099  2.2912 -2.0305  0.5538
  307SOL    HW2 1706   4.186   0.166   3.017  0.7149  0.2164 -3.3199
  308SOL     OW 1707   3.043   2.978   1.303  0.3832 -0.4169  0.5031
  308SOL    HW1 1708   3.128   3.018   1.319  0.3560 -0.4103  0.6366
  308SOL    HW2 1709   3.053   2.933   1.219 -0.7561  3.1454 -1.6391
  309SOL     OW 1710   4.730   4.232   3.525 -0.0134 -0.1763 -0.0383
  309SOL    HW1 1711   4.697   4.182   3.450  2.5491  1.2473 -2.2124
  309SOL    HW2 1712   4.655   4.285   3.554 -1.0377 -0.7273 -1.6206
  310SOL     OW 1713   0.073   2.830   2.167 -0.7544  0.0626  0.5866
  310SOL    HW1 1714   0.009   2.852   2.100 -0.8647 -2.2600 -0.1248
  310SOL    HW2 1715   0.062   2.897   2.234 -2.5543  0.8208 -0.4417
  311SOL     OW 1716   3.482   5.287   3.904  0.3404  0.2809  0.5657
  311SOL    HW1 1717   3.523   5.273   3.989  0.5900 -0.0543  0.3909
  311SOL    HW2 1718   3.554   5.318   3.848  0.3071 -0.1017  0.3133
  312SOL     OW 1719   2.721   0.303   2.569 -0.1652 -0.1334  0.3775
  312SOL    HW1 1720   2.638   0.266   2.600 -0.1773  0.4395  1.0469
  312SOL    HW2 1721   2.770   0.228   2.534 -0.8358 -0.5209  0.2622
  313SOL     OW 1722   5.339   4.415   2.198  0.1221  0.6399 -0.1965
  313SOL    HW1 1723   5.382   4.335   2.168  0.1041  1.0933 -1.4776
  313SOL    HW2 1724   5.246   4.401   2.179  0.4401  2.0650 -3.0640
  314SOL     OW 1725   3.834   2.297   3.561  0.3125 -0.1126  0.0317
  314SOL    HW1 1726   3.862   2.250   3.483 -0.2561 -1.0435  0.3813
  314SOL    HW2 1727   3.914   2.338   3.595  0.1572  2.2870 -2.3644
  315SOL     OW 1728   5.277   3.309   1.184 -0.3427  0.2898  0.9662
  315SOL    HW1 1729   5.213   3.380   1.175  1.3980  1.5852 -1.6910
  315SOL    HW2 1730   5.250   3.245   1.119  1.3852  1.1199 -0.5895
  316SOL     OW 1731   3.590   3.033   2.649  0.2754 -0.0430  0.2571
  316SOL    HW1 1732   3.616   3.090   2.722  0.0829  1.3259 -0.7238
  316SOL    HW2 1733   3.501   3.062   2.627 -1.1146 -2.8838  1.8207
  317SOL     OW 1734   3.586   3.594   2.025  0.4153  0.4513  0.9782
  317SOL    HW1 1735   3.493   3.572   2.029 -0.1274  2.8808  2.1058
  317SOL    HW2 1736   3.597   3.635   1.939  0.9546 -1.8848 -0.1230
  318SOL     OW 1737   3.295   1.089   2.793 -0.5893 -0.0880  0.6042
  318SOL    HW1 1738   3.279   1.181   2.813  0.8872  0.2732  0.1584
  318SOL    HW2 1739   3.215   1.060   2.749 -0.8493  1.1191  0.2610
  319SOL     OW 1740   2.806   0.111   3.141 -0.6515 -0.0622 -0.5956
  319SOL    HW1 1741   2.799   0.088   3.234 -3.6394  1.9285 -0.2410
  319SOL    HW2 1742   2.891   0.155   3.133 -1.2396  1.5928  1.6883
  320SOL     OW 1743   3.482   0.315   3.945 -0.2108 -0.0685 -0.2355
  320SOL    HW1 1744   3.449   0.351   4.027 -1.1898  0.5165 -0.8634
  320SOL    HW2 1745   3.411   0.258   3.914 -0.7758  1.4142 -1.7410
  321SOL     OW 1746   4.188   2.724   1.803 -0.1397  0.3093 -0.2247
  321SOL    HW1 1747   4.128   2.651   1.817  0.6826 -0.5164 -0.9255
  321SOL    HW2 1748   4.209   2.720   1.710 -1.1991  2.3236 -0.5938
  322SOL     OW 1749   3.415   0.561   3.174 -0.0849  0.6114  0.6435
  322SOL    HW1 1750   3.386   0.515   3.095 -1.1545  1.2538  0.6637
  322SOL    HW2 1751   3.431   0.492   3.238 -1.6107  0.2610  0.6458
  323SOL     OW 1752   3.903   0.795   1.915  0.0633 -0.2749 -0.1436
  323SOL    HW1 1753   3.851   0.730   1.867  0.2155 -0.7637  0.3582
  323SOL    HW2 1754   3.970   0.744   1.960  0.6292  0.2998 -0.3223
  324SOL     OW 1755   4.463   5.682   3.571  0.0382  0.7767 -0.6025
  324SOL    HW1 1756   4.466   5.774   3.544  1.2531  0.3877 -1.9410
  324SOL    HW2 1757   4.510   5.636   3.501  0.6660 -0.6857  0.7445
  325SOL     OW 1758   4.301   0.442   2.127  0.5098 -0.3137  0.3046
  325SOL    HW1 1759   4.394   0.464   2.123  0.1626  0.8783 -2.0313
  325SOL    HW2 1760   4.268   0.495   2.200  0.7885  2.9034 -1.8068
  326SOL     OW 1761   4.906   2.254   2.200 -0.5694  0.0270  0.3588
  326SOL    HW1 1762   4.941   2.229   2.285  1.2446 -1.3541 -0.7534
  326SOL    HW2 1763   4.811   2.249   2.211 -0.3398 -1.6120  1.8770
  327SOL     OW 1764   4.433   1.373   2.252  0.1324 -0.0451  0.1112
  327SOL    HW1 1765   4.387   1.457   2.252  1.6549  0.8096 -0.3290
  327SOL    HW2 1766   4.364   1.307   2.258 -1.1582  1.2003 -0.9005
  328SOL     OW 1767   2.742   3.137   1.931 -0.5487  0.2075 -0.6664
  328SOL    HW1 1768   2.743   3.224   1.973  0.4827  0.2392 -0.7365
  328SOL    HW2 1769   2.668   3.140   1.871 -2.3133  0.0211  1.4375
  329SOL     OW 1770   2.689   4.170   3.443 -0.2090 -0.1767  0.4710
  329SOL    HW1 1771   2.636   4.092   3.455 -1.3436  0.4708 -0.2916
  329SOL    HW2 1772   2.713   4.196   3.533  1.7957 -2.4570  0.6441
  330SOL     OW 1773   5.009   4.572   3.771  0.2552 -0.7492 -0.2056
  330SOL    HW1 1774   5.052   4.500   3.817 -0.3089 -1.4294 -0.7350
  330SOL    HW2 1775   4.959   4.618   3.839  0.8728 -0.6549  0.1911
  331SOL     OW 1776   3.357   1.217   3.096 -0.4289  0.5526  0.2604
  331SOL    HW1 1777   3.323   1.208   3.185  0.7705  1.5625  0.8374
  331SOL    HW2 1778   3.305   1.288   3.057  0.3420  1.4381  0.8197
  332SOL     OW 1779   5.481   2.965   1.984  0.1980 -0.1893  0.6286
  332SOL    HW1 1780   5.535   2.914   2.044  1.6727  1.6179  0.8844
  332SOL    HW2 1781   5.539   2.985   1.910 -0.8917 -0.4027 -0.2927
  333SOL     OW 1782   5.419   5.275   2.940 -0.2847 -0.0132 -0.1250
  333SOL    HW1 1783   5.376   5.215   2.878  2.7389  1.6646 -4.0892
  333SOL    HW2 1784   5.488   5.223   2.980  0.8654  0.1113 -1.8679
  334SOL     OW 1785   3.434   0.162   1.987 -0.2186  0.3431  0.0436
  334SOL    HW1 1786   3.512   0.150   2.042 -1.1268 -2.4178  0.8147
  334SOL    HW2 1787   3.369   0.200   2.047 -0.2568  0.2777  0.0431
  335SOL     OW 1788   2.520   3.165   1.792  0.2873  0.0143  0.1718
  335SOL    HW1 1789   2.486   3.201   1.710  0.7815  0.3806  0.1260
  335SOL    HW2 1790   2.458   3.096   1.815 -1.0180  1.2605  0.5476
  336SOL     OW 1791   4.619   2.836   3.258 -0.8059  0.1926  0.2262
  336SOL    HW1 1792   4.530   2.804   3.242 -0.9625 -0.2239  1.9094
  336SOL    HW2 1793   4.676   2.761   3.236 -0.6719  1.1506 -3.0579
  337SOL     OW 1794   4.797   0.645   2.300 -0.0273  0.2565 -0.1787
  337SOL    HW1 1795   4.797   0.669   2.393  4.4757 -0.6026  0.1223
  337SOL    HW2 1796   4.761   0.556   2.299  1.6945 -0.4811  0.9950
  338SOL     OW 1797   3.210   0.868   3.860  0.2329  0.3715  0.6818
  338SOL    HW1 1798   3.187   0.781   3.827 -0.7727  0.5060  0.9840
  338SOL    HW2 1799   3.285   0.895   3.808 -0.3523 -0.0746 -0.4065
  339SOL     OW 1800   3.115   0.804   2.926  0.2138  0.0776  0.0517
  339SOL    HW1 1801   3.079   0.822   2.839  1.1038 -0.8102 -0.5077
  339SOL    HW2 1802   3.209   0.820   2.916  0.4390 -0.8897  0.6146
  340SOL     OW 1803   4.414   0.327   2.427 -0.0228  0.1235  0.0803
  340SOL    HW1 1804   4.347   0.270   2.390 -1.5458  2.5507 -1.0348
  340SOL    HW2 1805   4.477   0.268   2.467 -1.9140 -2.2850 -0.4191
  341SOL     OW 1806   2.612   4.894   2.470  0.2990  0.4468  0.6717
  341SOL    HW1 1807   2.583   4.960   2.407  2.6321  0.0386 -0.8636
  341SOL    HW2 1808   2.706   4.890   2.459  0.6312 -0.5183  3.3656
  342SOL     OW 1809   4.170   0.101   3.932 -0.7108  0.2528 -0.2064
  342SOL    HW1 1810   4.103   0.117   3.999  0.2259  0.1649  0.7551
  342SOL    HW2 1811   4.232   0.173   3.943  0.5215 -0.8895  0.3653
  343SOL     OW 1812   2.957   0.040   1.981 -0.2386  0.3464  0.1361
  343SOL    HW1 1813   3.011   0.054   1.903  0.0319 -0.1293  0.2358
  343SOL    HW2 1814   2.910   0.123   1.993 -0.2951  0.4140 -0.5422
  344SOL     OW 1815   3.304   4.916   1.557 -0.4125  0.1581 -0.6216
  344SOL    HW1 1816   3.366   4.845   1.537 -0.4668 -0.3652  0.9702
  344SOL    HW2 1817   3.358   4.995   1.557  0.0431 -0.1487 -0.3979
  345SOL     OW 1818   4.783   2.226   1.929 -0.2228  0.1821 -0.1139
  345SOL    HW1 1819   4.848   2.295   1.913  0.3249 -0.8723 -2.6968
  345SOL    HW2 1820   4.836   2.149   1.952 -0.4793 -0.8417 -2.8282
  346SOL     OW 1821   3.565   1.728   2.831 -0.0680  0.0516 -0.2459
  346SOL    HW1 1822   3.512   1.757   2.904  0.2022  0.4312 -0.1985
  346SOL    HW2 1823   3.535   1.639   2.813  0.1797 -0.2038  0.6119
  347SOL     OW 1824   3.217   0.089   1.775 -0.1907 -0.0586  0.5069
  347SOL    HW1 1825   3.258   0.137   1.847  2.8125 -3.1096  0.9539
  347SOL    HW2 1826   3.280   0.020   1.753 -2.2502 -0.8900 -3.2446
  348SOL     OW 1827   4.929   0.208   3.258  0.2345 -0.1173  0.7523
  348SOL    HW1 1828   5.021   0.194   3.276  0.3763  0.3319  0.3844
  348SOL    HW2 1829   4.924   0.297   3.224 -0.2389 -0.3866  0.1013
  349SOL     OW 1830   4.731   4.627   3.681 -0.0540 -0.5442 -0.4092
  349SOL    HW1 1831   4.657   4.577   3.716 -1.3619  3.0211  2.1832
  349SOL    HW2 1832   4.806   4.597   3.731 -0.5736 -0.8690  0.1758
  350SOL     OW 1833   4.204   4.836   3.105 -0.2391  0.4311 -0.6001
  350SOL    HW1 1834   4.140   4.870   3.043 -2.3194 -4.0603 -1.1148
  350SOL    HW2 1835   4.264   4.785   3.052  0.2353 -0.2847  0.6018
  351SOL     OW 1836   4.871   4.933   1.802  0.2306  0.6761 -0.8542
  351SOL    HW1 1837   4.913   4.909   1.884 -0.9394 -4.7820 -1.6298
  351SOL    HW2 1838   4.943   4.949   1.741  1.0734  2.0807  0.4702
  352SOL     OW 1839   3.601   0.135   2.186 -0.5865  0.7054  0.2690
  352SOL    HW1 1840   3.553   0.215   2.208 -0.7695  0.1094  2.1461
  352SOL    HW2 1841   3.687   0.147   2.227  0.1078  0.7984 -1.1756
  353SOL     OW 1842   5.190   1.871   2.426  0.1882 -0.4295  0.4401
  353SOL    HW1 1843   5.117   1.863   2.486 -0.7915  0.0174 -0.6704
  353SOL    HW2 1844   5.268   1.854   2.480 -0.6093  0.6953  1.9627
  354SOL     OW 1845   3.475   1.393   3.333 -0.3041  1.1339  0.0826
  354SOL    HW1 1846   3.462   1.430   3.420 -1.5799 -0.0927  0.4373
  354SOL    HW2 1847   3.570   1.387   3.322 -0.1396  1.6565  1.2154
  355SOL     OW 1848   4.493   2.462   2.591 -0.5622 -0.2752  0.1410
  355SOL    HW1 1849   4.425   2.529   2.601  1.5568  1.5478  2.8689
  355SOL    HW2 1850   4.466   2.392   2.651 -1.1447 -0.5679 -0.4406
  356SOL     OW 1851   0.261   2.656   2.572 -0.3188  0.2553 -0.3386
  356SOL    HW1 1852   0.235   2.721   2.638 -1.9009  1.1283 -1.7738
  356SOL    HW2 1853   0.357   2.656   2.575 -0.2096  3.4991 -1.0167
  357SOL     OW 1854   4.598   5.066   3.777  0.2254  0.8244 -0.2578
  357SOL    HW1 1855   4.671   5.042   3.722  0.2955  1.7254 -0.5664
  357SOL    HW2 1856   4.595   4.998   3.845  1.0253  0.5172 -0.5318
  358SOL     OW 1857   2.887   3.484   4.097  0.9270 -0.4457 -0.1743
  358SOL    HW1 1858   2.978   3.501   4.123  0.8368 -0.5966  0.2382
  358SOL    HW2 1859   2.836   3.550   4.145  0.7634 -0.7029  0.0031
  359SOL     OW 1860   3.605   1.884   3.720  0.4758  0.1932 -0.4400
  359SOL    HW1 1861   3.578   1.803   3.762  0.9449 -0.8050 -2.0110
  359SOL    HW2 1862   3.541   1.897   3.649 -0.9119  2.3881  1.1543
  360SOL     OW 1863   4.288   2.059   1.124  0.0300 -0.3338  0.3394
  360SOL    HW1 1864   4.316   1.969   1.109 -0.3468 -0.0155 -2.6041
  360SOL    HW2 1865   4.368   2.111   1.116 -0.2583 -0.1065 -1.3762
  361SOL     OW 1866   3.002   2.026   3.075  0.5103 -0.2785  0.1283
  361SOL    HW1 1867   2.972   1.957   3.016  1.1383  0.6297 -1.2953
  361SOL    HW2 1868   3.013   1.982   3.159  0.1472 -1.7349 -0.5555
  362SOL     OW 1869   4.334   0.375   3.602 -0.6572 -0.4919  0.1225
  362SOL    HW1 1870   4.398   0.446   3.607 -0.7845 -0.2119 -1.7328
  362SOL    HW2 1871   4.358   0.326   3.523 -1.0975 -1.9974  0.9079
  363SOL     OW 1872   3.690   4.822   3.450 -0.5774  0.1625  0.4055
  363SOL    HW1 1873   3.662   4.839   3.360 -0.4865  1.1497  0.5639
  363SOL    HW2 1874   3.641   4.743   3.475 -0.5940 -0.1245 -0.5075
  364SOL     OW 1875   4.407   2.898   1.851 -0.9623  0.1398 -0.7487
  364SOL    HW1 1876   4.337   2.838   1.827 -1.3848  1.0340 -1.7687
  364SOL    HW2 1877   4.392   2.916   1.944 -1.6030 -0.3053 -0.7636
  365SOL     OW 1878   3.397   2.546   3.901  0.5424  0.0588  0.2078
  365SOL    HW1 1879   3.348   2.549   3.819 -0.5163  0.3149  0.8360
  365SOL    HW2 1880   3.333   2.571   3.968  0.7601 -2.3925  1.3937
  366SOL     OW 1881   4.212   4.615   1.911 -0.0977  0.1969  0.5228
  366SOL    HW1 1882   4.170   4.529   1.910  0.9129 -0.3315 -3.6154
  366SOL    HW2 1883   4.150   4.672   1.865 -0.1104  1.3636  1.9683
  367SOL     OW 1884   3.868   1.257   1.582 -0.4674 -0.4418 -0.0812
  367SOL    HW1 1885   3.954   1.244   1.541 -1.6132 -0.4131 -2.5534
  367SOL    HW2 1886   3.806   1.220   1.519 -2.4889  2.1196  0.3765
  368SOL     OW 1887   5.035   4.711   3.517 -0.3571 -0.2757  0.2604
  368SOL    HW1 1888   5.045   4.640   3.580 -0.0578 -2.3185 -2.0611
  368SOL    HW2 1889   4.941   4.730   3.517 -0.7839 -2.2672 -0.8015
  369SOL     OW 1890   4.604   1.895   2.286 -0.2597  0.0516  0.4681
  369SOL    HW1 1891   4.563   1.928   2.366 -0.2958  0.8644  0.1176
  369SOL    HW2 1892   4.679   1.953   2.272 -0.5538  0.2333 -0.3688
  370SOL     OW 1893   4.817   2.237   3.414 -0.2182 -0.4956 -0.4171
  370SOL    HW1 1894   4.861   2.175   3.471  0.4665  0.9861  0.6993
  370SOL    HW2 1895   4.796   2.311   3.471 -3.4650 -0.8201 -1.0872
  371SOL     OW 1896   3.702   2.094   2.685  0.4261 -0.5209 -0.4708
  371SOL    HW1 1897   3.643   2.019   2.692 -0.1062 -0.0841 -0.2417
  371SOL    HW2 1898   3.694   2.123   2.594 -0.1143 -0.1298 -0.2948
  372SOL     OW 1899   4.588   1.428   1.489 -0.0046  0.9395 -0.0612
  372SOL    HW1 1900   4.566   1.339   1.516  1.0173 -0.1254 -2.5389
  372SOL    HW2 1901   4.646   1.461   1.558 -1.5478  0.2208  1.5870
  373SOL     OW 1902   5.281   2.980   3.738 -0.2551 -0.0262  0.3532
  373SOL    HW1 1903   5.244   3.068   3.743 -0.3662 -0.1412  1.9837
  373SOL    HW2 1904   5.374   2.991   3.756  0.0848 -0.0158 -1.3918
  374SOL     OW 1905   4.611   0.786   1.938 -0.1412  0.0664  0.4869
  374SOL    HW1 1906   4.594   0.880   1.940 -0.0831  0.0901 -0.0673
  374SOL    HW2 1907   4.706   0.779   1.931 -0.2493 -0.0123 -0.9908
  375SOL     OW 1908   5.033   3.040   1.503  0.2504  0.7095 -0.3998
  375SOL    HW1 1909   5.114   3.046   1.554 -2.2669  1.4630  3.6952
  375SOL    HW2 1910   5.045   2.962   1.449  1.5653 -2.4466  4.1668
  376SOL     OW 1911   4.476   0.634   3.486 -0.0029  0.1084 -0.7778
  376SOL    HW1 1912   4.424   0.659   3.410  0.3163 -0.7958 -1.3042
  376SOL    HW2 1913   4.507   0.717   3.524 -1.2378  0.6116 -0.8728
  377SOL     OW 1914   2.780   0.956   2.633 -0.8510  0.4634 -0.5336
  377SOL    HW1 1915   2.870   0.934   2.613 -1.1920  0.0916 -1.6913
  377SOL    HW2 1916   2.761   0.911   2.715 -0.2178 -0.0490 -0.6715
  378SOL     OW 1917   3.721   1.034   4.213 -0.1293  0.2392 -0.3912
  378SOL    HW1 1918   3.679   1.030   4.127  1.8479  1.0809 -1.4208
  378SOL    HW2 1919   3.757   1.122   4.218  0.2976 -0.0077  1.0515
  379SOL     OW 1920   4.967   5.652   3.148  0.9947  0.6623 -0.3329
  379SOL    HW1 1921   5.016   5.708   3.208  1.6751 -2.5121  2.2468
  379SOL    HW2 1922   5.034   5.600   3.103  0.2820  0.1237 -0.7927
  380SOL     OW 1923   4.743   5.530   3.674 -0.8959  1.0438  0.3687
  380SOL    HW1 1924   4.676   5.598   3.676 -0.7168  1.1896  1.4824
  380SOL    HW2 1925   4.728   5.484   3.591 -1.6110  1.8379  0.0559
  381SOL     OW 1926   4.223   3.034   2.470 -0.0670  0.1667  0.4834
  381SOL    HW1 1927   4.250   3.123   2.446 -1.7197  0.4321 -0.4677
  381SOL    HW2 1928   4.260   2.978   2.403  0.5014  0.1930  0.7707
  382SOL     OW 1929   4.166   1.377   3.997  0.8850  0.3331 -0.2899
  382SOL    HW1 1930   4.163   1.353   3.904  0.1137  0.7495 -0.3747
  382SOL    HW2 1931   4.092   1.436   4.009 -0.1777 -1.2160  1.0266
  383SOL     OW 1932   4.746   5.045   2.134  0.0730 -0.2591 -0.0548
  383SOL    HW1 1933   4.790   5.126   2.158  1.2456 -0.0289 -2.8371
  383SOL    HW2 1934   4.817   4.985   2.110 -0.7902 -2.0151  1.6247
  384SOL     OW 1935   3.638   5.264   0.056  0.5738 -0.3766  0.3005
  384SOL    HW1 1936   3.635   5.271  -0.040  1.8112  1.3879  0.3803
  384SOL    HW2 1937   3.729   5.284   0.079  0.1085 -0.0276  1.8995
  385SOL     OW 1938   4.840   5.671   2.906 -0.0866  0.0372 -0.0819
  385SOL    HW1 1939   4.820   5.590   2.859 -0.0294 -0.0327  0.0129
  385SOL    HW2 1940   4.870   5.641   2.992  1.2145  0.0972 -0.5001
  386SOL     OW 1941   4.454   3.413   1.300 -0.6139  0.0249  0.5590
  386SOL    HW1 1942   4.536   3.412   1.349 -0.9697 -1.8223  1.1886
  386SOL    HW2 1943   4.435   3.505   1.285  0.4046  0.5568  2.4004
  387SOL     OW 1944   4.524   4.801   3.622  0.5340  0.4134  0.1243
  387SOL    HW1 1945   4.593   4.736   3.630  0.3127  0.1973  0.2880
  387SOL    HW2 1946   4.455   4.771   3.681  0.3794  0.7296  0.1080
  388SOL     OW 1947   2.947   1.547   2.910  0.2850  0.3914  0.3001
  388SOL    HW1 1948   3.027   1.599   2.903  0.8950 -0.7498 -1.9589
  388SOL    HW2 1949   2.970   1.477   2.971  0.4015  1.1273  1.1066
  389SOL     OW 1950   3.613   1.514   1.638 -0.2467  0.0365  0.3817
  389SOL    HW1 1951   3.551   1.588   1.632  0.9011  1.0126  0.2939
  389SOL    HW2 1952   3.583   1.464   1.714 -1.4762  0.1844  0.0109
  390SOL     OW 1953   2.973   4.922   2.511 -0.3140 -0.3630 -0.1659
  390SOL    HW1 1954   3.006   4.857   2.573  0.7954  0.5467  0.2134
  390SOL    HW2 1955   2.957   5.000   2.563 -0.4578  0.0581 -0.8295
  391SOL     OW 1956   4.203   0.664   4.048 -0.5200  0.0324 -0.2609
  391SOL    HW1 1957   4.224   0.723   3.976  2.2224 -1.2297 -0.5594
  391SOL    HW2 1958   4.224   0.577   4.014 -4.0618 -1.1366  0.3187
  392SOL     OW 1959   4.964   0.995   3.126  0.3449  0.2399  0.0928
  392SOL    HW1 1960   5.055   0.965   3.135  0.5894  0.9158 -0.0711
  392SOL    HW2 1961   4.922   0.927   3.073  1.2105  0.7798 -1.3345
  393SOL     OW 1962   4.773   2.093   2.411  0.3148  0.9635  0.2872
  393SOL    HW1 1963   4.773   2.009   2.457 -2.0504 -0.2749 -1.8708
  393SOL    HW2 1964   4.770   2.159   2.481  2.4283 -0.6978  1.9979
  394SOL     OW 1965   4.618   1.564   2.393 -0.0024  0.6942  0.4515
  394SOL    HW1 1966   4.637   1.476   2.362 -1.0652  0.1078  1.4439
  394SOL    HW2 1967   4.662   1.622   2.330 -2.1627 -0.4419 -2.1904
  395SOL     OW 1968   5.122   1.487   2.134  0.1862  0.5095  0.3725
  395SOL    HW1 1969   5.215   1.492   2.158 -0.0729 -0.7484  1.6631
  395SOL    HW2 1970   5.112   1.400   2.096 -0.3115  0.9366 -0.4775
  396SOL     OW 1971   4.145   1.743   1.275 -0.4321  0.2604 -0.5172
  396SOL    HW1 1972   4.216   1.771   1.217 -0.1260  2.1037  0.7225
  396SOL    HW2 1973   4.170   1.776   1.362  0.8311 -5.2489  1.4606
  397SOL     OW 1974   3.548   5.587   2.847  0.1875 -0.7825  0.0857
  397SOL    HW1 1975   3.522   5.623   2.932  2.6653 -0.0447  0.5616
  397SOL    HW2 1976   3.501   5.504   2.841 -1.5426  0.0654  1.2888
  398SOL     OW 1977   4.345   3.325   3.576  0.2900 -0.4476  0.4285
  398SOL    HW1 1978   4.361   3.248   3.631 -1.2702 -2.2382 -1.5183
  398SOL    HW2 1979   4.283   3.378   3.626 -0.5696 -1.7106  0.7234
  399SOL     OW 1980   5.531   2.860   1.634 -0.2853 -0.3249 -0.4611
  399SOL    HW1 1981   5.618   2.842   1.670 -1.1331  1.2002  2.5288
  399SOL    HW2 1982   5.478   2.785   1.661 -0.1518 -0.7381 -1.3483
  400SOL     OW 1983   5.252   4.365   3.006 -0.7315 -0.0667  0.1848
  400SOL    HW1 1984   5.169   4.385   3.050  0.1268  3.1999  0.4230
  400SOL    HW2 1985   5.274   4.446   2.960  0.8853 -1.8359 -2.2570
  401SOL     OW 1986   2.629   4.214   2.871 -0.6672  0.2148  0.2532
  401SOL    HW1 1987   2.608   4.220   2.964  0.4335 -0.3765  0.5457
  401SOL    HW2 1988   2.705   4.156   2.867  0.3473  1.5873 -0.8602
  402SOL     OW 1989   1.657   5.651   5.261  0.5435 -1.0313  0.0686
  402SOL    HW1 1990   1.622   5.691   5.181  1.5171 -1.2482 -0.4698
  402SOL    HW2 1991   1.582   5.650   5.322 -0.1924 -0.8368 -0.8205
  403SOL     OW 1992   4.465   2.779   2.710  0.6786  0.4323  0.6490
  403SOL    HW1 1993   4.420   2.776   2.626 -0.3302  0.6513  1.1697
  403SOL    HW2 1994   4.456   2.870   2.739  2.0507  0.6447  0.4486
  404SOL     OW 1995   4.350   2.639   1.993 -0.3996  0.2564  0.4501
  404SOL    HW1 1996   4.281   2.676   1.937  1.3560  1.4706 -0.9577
  404SOL    HW2 1997   4.375   2.711   2.051 -1.7220 -0.7937  2.3752
  405SOL     OW 1998   2.533   2.878   1.528  0.3266 -0.0178 -0.1755
  405SOL    HW1 1999   2.440   2.899   1.528  0.6372  1.4464  0.7689
  405SOL    HW2 2000   2.548   2.838   1.614  0.3960 -1.1165 -0.6892
  406SOL     OW 2001   4.521   4.768   2.382  0.1578  0.5767  0.1913
  406SOL    HW1 2002   4.494   4.777   2.474  1.7087  0.2370  0.6912
  406SOL    HW2 2003   4.480   4.686   2.354  1.5942 -0.5514  1.2951
  407SOL     OW 2004   3.495   0.526   1.804  0.0508  0.3695  0.0015
  407SOL    HW1 2005   3.455   0.488   1.882  0.1040 -2.1209 -1.1353
  407SOL    HW2 2006   3.588   0.501   1.810  0.3587  1.4520 -0.1186
  408SOL     OW 2007   3.034   5.026   5.268  0.3253 -0.1718 -0.0527
  408SOL    HW1 2008   3.122   5.003   5.239  0.9589  1.7096  0.3527
  408SOL    HW2 2009   3.039   5.027   5.363  0.8752  3.6571 -0.0707
  409SOL     OW 2010   4.963   1.510   1.814 -0.0841  0.1390 -0.3722
  409SOL    HW1 2011   4.892   1.543   1.869 -0.3691 -0.2219 -0.5275
  409SOL    HW2 2012   4.955   1.415   1.819  1.2174  0.0604  0.7216
  410SOL     OW 2013   5.115   1.802   3.421 -0.2198  0.3602 -0.3820
  410SOL    HW1 2014   5.139   1.887   3.385  0.6201  0.5084  0.5268
  410SOL    HW2 2015   5.020   1.796   3.408 -0.1532  1.0641 -1.2087
  411SOL     OW 2016   5.043   3.196   1.028 -0.3538 -0.1859  1.2794
  411SOL    HW1 2017   4.988   3.267   0.994 -1.8061 -1.4717  0.8620
  411SOL    HW2 2018   4.987   3.118   1.023  2.2900 -2.0023 -1.2886
  412SOL     OW 2019   3.048   0.657   3.138  0.3346 -0.5199  0.0918
  412SOL    HW1 2020   3.042   0.730   3.075 -2.4950  1.7488  2.8176
  412SOL    HW2 2021   3.111   0.687   3.203 -2.0152  0.2926  2.0829
  413SOL     OW 2022   4.191   3.982   2.929  0.3771  0.2836 -0.3595
  413SOL    HW1 2023   4.218   4.000   2.839 -0.0178 -0.7714 -0.7029
  413SOL    HW2 2024   4.103   4.019   2.937  0.2199 -0.0469 -0.5582
  414SOL     OW 2025   4.328   1.138   2.631 -0.6170 -0.1561 -0.0201
  414SOL    HW1 2026   4.258   1.075   2.617  0.3144 -1.5703  1.5671
  414SOL    HW2 2027   4.325   1.194   2.553 -2.3728 -1.2511 -0.7785
  415SOL     OW 2028   2.885   5.158   2.622 -1.2222  0.2731 -0.3447
  415SOL    HW1 2029   2.793   5.170   2.645 -0.8239  0.5453  1.1489
  415SOL    HW2 2030   2.932   5.214   2.683  0.1409 -2.2841  1.0247
  416SOL     OW 2031   5.472   1.794   3.251  0.2166  0.0980  0.2093
  416SOL    HW1 2032   5.426   1.714   3.274  0.0663  0.2087  0.2962
  416SOL    HW2 2033   5.547   1.765   3.199 -1.4782  0.0974 -2.3220
  417SOL     OW 2034   3.598   0.928   3.901 -0.3877 -0.2604  0.1436
  417SOL    HW1 2035   3.567   0.888   3.983  1.5921 -1.4669  0.3373
  417SOL    HW2 2036   3.519   0.937   3.848 -1.1365 -3.1149  0.6684
  418SOL     OW 2037   0.236   3.662   1.504  0.2133  0.0372 -0.5445
  418SOL    HW1 2038   0.224   3.757   1.497  1.4737  0.1630 -1.0918
  418SOL    HW2 2039   0.227   3.644   1.598 -0.3666  0.6407 -0.4763
  419SOL     OW 2040   4.653   0.811   3.285 -0.0493  0.6070 -0.1897
  419SOL    HW1 2041   4.560   0.829   3.274 -0.2054 -0.3947 -0.5940
  419SOL    HW2 2042   4.692   0.831   3.200  0.4950  3.2593  0.6474
  420SOL     OW 2043   4.589   3.082   1.424 -0.5872  0.1178  0.6129
  420SOL    HW1 2044   4.557   3.009   1.478  0.4952  0.2812  1.4919
  420SOL    HW2 2045   4.547   3.069   1.339 -0.9428 -1.1379  0.9715
  421SOL     OW 2046   3.844   0.088   2.035 -0.6052  0.3142 -0.0431
  421SOL    HW1 2047   3.914   0.038   2.078 -1.7831 -0.0435  1.4791
  421SOL    HW2 2048   3.876   0.178   2.034  0.1359  0.0575  0.1056
  422SOL     OW 2049   5.727   3.187   1.417  0.3028 -0.7977 -0.6606
  422SOL    HW1 2050   5.791   3.258   1.423 -1.9780  1.1839  1.1172
  422SOL    HW2 2051   5.671   3.212   1.343 -0.0039 -1.1960 -0.5648
  423SOL     OW 2052   4.393   4.093   2.221 -0.2474 -0.3420  0.3403
  423SOL    HW1 2053   4.394   4.039   2.141  2.0313 -2.5850  1.8354
  423SOL    HW2 2054   4.317   4.061   2.270  0.3473 -1.3364  0.6275
  424SOL     OW 2055   2.815   2.127   2.761  0.6339  0.0770 -0.2558
  424SOL    HW1 2056   2.845   2.075   2.836  2.7333  2.9123  1.0032
  424SOL    HW2 2057   2.770   2.202   2.801  3.4254  2.6285 -1.6813
  425SOL     OW 2058   4.765   3.385   1.631  0.6554 -0.0030 -0.8730
  425SOL    HW1 2059   4.757   3.324   1.558  0.6375 -2.5688  1.1970
  425SOL    HW2 2060   4.821   3.340   1.695  2.0719  2.8622  0.0256
  426SOL     OW 2061   3.536   1.812   3.265  0.7459 -0.2206  0.1725
  426SOL    HW1 2062   3.630   1.828   3.270  0.6572  1.0476 -1.6545
  426SOL    HW2 2063   3.527   1.731   3.214  0.8251  0.3235 -0.7196
  427SOL     OW 2064   4.664   2.114   1.123 -0.0521 -0.0580  0.4642
  427SOL    HW1 2065   4.708   2.163   1.191 -0.3398  1.4879 -0.4418
  427SOL    HW2 2066   4.618   2.180   1.071 -0.5804 -1.2899 -0.6780
  428SOL     OW 2067   5.236   5.020   1.852 -0.0005 -0.1781 -0.1795
  428SOL    HW1 2068   5.301   5.043   1.919  0.3926  1.4674 -1.1010
  428SOL    HW2 2069   5.153   5.053   1.887  0.0194 -0.3568  0.0326
  429SOL     OW 2070   3.185   5.179   2.120 -0.2034  1.1851 -0.4911
  429SOL    HW1 2071   3.109   5.158   2.174  1.0754 -0.6475  0.6633
  429SOL    HW2 2072   3.163   5.147   2.033 -0.0766 -0.9869  0.2403
  430SOL     OW 2073   4.045   1.919   3.530  0.0649 -0.0463 -0.3446
  430SOL    HW1 2074   4.140   1.929   3.527  0.1274 -0.8910 -1.6576
  430SOL    HW2 2075   4.031   1.825   3.518 -0.9946  0.2955 -1.8949
  431SOL     OW 2076   3.479   4.558   2.626  0.0957 -0.3527  1.4061
  431SOL    HW1 2077   3.531   4.635   2.652 -0.6135  0.2080  1.1618
  431SOL    HW2 2078   3.391   4.578   2.657 -0.1920 -0.8552  0.8928
  432SOL     OW 2079   4.669   3.561   1.088 -0.1817  0.6884 -0.1221
  432SOL    HW1 2080   4.597   3.505   1.058 -0.4164  0.5025  0.7672
  432SOL    HW2 2081   4.689   3.528   1.176  1.5743  0.1834 -0.6993
  433SOL     OW 2082   4.499   4.739   3.331 -0.2337 -0.3156 -0.5661
  433SOL    HW1 2083   4.463   4.651   3.336 -0.5510 -0.3051 -2.2407
  433SOL    HW2 2084   4.489   4.774   3.419 -0.5209 -1.7947  0.0012
  434SOL     OW 2085   4.106   4.931   3.419  0.2162  0.1298 -0.1826
  434SOL    HW1 2086   4.046   4.917   3.347 -1.6560  2.3157  0.8823
  434SOL    HW2 2087   4.148   5.015   3.400  2.5608 -1.1003 -0.6330
  435SOL     OW 2088   3.228   0.548   2.864  0.4106 -0.3964 -0.1707
  435SOL    HW1 2089   3.179   0.621   2.900 -0.0164 -0.9066  0.2905
  435SOL    HW2 2090   3.185   0.528   2.781 -1.1826 -1.8710  0.9677
  436SOL     OW 2091   4.520   5.280   2.040 -0.3215  0.2368 -0.4291
  436SOL    HW1 2092   4.485   5.290   2.129  1.6839 -0.8815  0.5359
  436SOL    HW2 2093   4.594   5.340   2.037  0.1161 -0.3266 -1.0526
  437SOL     OW 2094   4.483   2.184   3.442  0.1117 -0.2872  0.8203
  437SOL    HW1 2095   4.455   2.273   3.421 -1.3452 -0.9130  0.0297
  437SOL    HW2 2096   4.474   2.179   3.537 -2.8488 -0.5575  0.5723
  438SOL     OW 2097   2.749   4.435   2.767 -0.2922  0.3566 -0.1346
  438SOL    HW1 2098   2.757   4.345   2.798 -0.1430  1.0284  1.8890
  438SOL    HW2 2099   2.655   4.449   2.756 -0.1986 -0.6192 -2.2775
  439SOL     OW 2100   5.350   3.497   2.630  0.2577 -0.5366  0.7172
  439SOL    HW1 2101   5.333   3.559   2.559 -2.8938 -0.6369  1.3301
  439SOL    HW2 2102   5.306   3.416   2.602  0.5690 -1.1369  1.9492
  440SOL     OW 2103   5.413   2.581   1.671 -0.3972 -0.1628 -0.2011
  440SOL    HW1 2104   5.323   2.567   1.701  0.2158 -1.5254  1.0340
  440SOL    HW2 2105   5.405   2.590   1.576 -1.9168  0.4927 -0.0351
  441SOL     OW 2106   3.792   5.733   2.987 -0.6073  0.0719  0.4252
  441SOL    HW1 2107   3.744   5.756   2.908 -0.9274 -1.2445  0.2203
  441SOL    HW2 2108   3.726   5.734   3.057 -0.6544 -0.3652  0.3879
  442SOL     OW 2109   3.648   0.216   3.192  0.0162  0.1370 -0.2041
  442SOL    HW1 2110   3.629   0.262   3.274  3.4579 -1.5796  1.6636
  442SOL    HW2 2111   3.628   0.124   3.211 -2.3681  0.1632 -2.4148
  443SOL     OW 2112   3.836   5.637   3.412 -0.2529 -0.1810 -0.4231
  443SOL    HW1 2113   3.878   5.706   3.360  0.0119  0.1942  0.2795
  443SOL    HW2 2114   3.803   5.575   3.348  2.9450 -1.4135 -1.0079
  444SOL     OW 2115   3.107   5.255   3.877 -0.3039 -0.5868  0.2862
  444SOL    HW1 2116   3.091   5.204   3.956 -2.6087 -1.9376 -0.9940
  444SOL    HW2 2117   3.034   5.233   3.819  1.2899  0.4345 -2.1882
  445SOL     OW 2118   4.552   1.344   3.658 -0.1999 -0.2409  0.0456
  445SOL    HW1 2119   4.534   1.353   3.565  0.3566 -0.8259 -0.1214
  445SOL    HW2 2120   4.647   1.351   3.666  0.1506 -4.0265  0.0793
  446SOL     OW 2121   4.326   4.176   3.063 -0.5588  0.1165  0.1175
  446SOL    HW1 2122   4.279   4.095   3.043  1.4263 -0.9745 -0.1723
  446SOL    HW2 2123   4.335   4.220   2.979 -1.2447  0.4382  0.2079
  447SOL     OW 2124   2.524   5.327   2.912 -0.0084 -0.2703 -0.6291
  447SOL    HW1 2125   2.472   5.364   2.841  0.5019  1.3478 -0.1807
  447SOL    HW2 2126   2.542   5.401   2.970  4.0171 -0.4442 -1.5101
  448SOL     OW 2127   4.287   0.100   2.340 -0.2914 -0.8735 -0.0331
  448SOL    HW1 2128   4.381   0.095   2.323 -0.0646 -0.9386  1.1854
  448SOL    HW2 2129   4.268   0.022   2.393 -0.5923  0.3461  1.6900
  449SOL     OW 2130   3.593   0.934   4.420 -0.0623  0.3635 -0.5876
  449SOL    HW1 2131   3.574   1.019   4.460  3.9725  0.2499  1.8696
  449SOL    HW2 2132   3.634   0.955   4.336  0.6728  0.8751 -0.1088
  450SOL     OW 2133   5.090   5.333   3.381 -0.1676  0.3730 -0.2399
  450SOL    HW1 2134   5.009   5.369   3.343 -1.5559 -0.2068  2.0774
  450SOL    HW2 2135   5.068   5.317   3.472  2.2478 -0.9079  0.1425
  451SOL     OW 2136   5.274   5.023   3.076 -0.5027  0.1500  0.2449
  451SOL    HW1 2137   5.249   4.972   3.153 -0.2639  2.0914  1.6667
  451SOL    HW2 2138   5.287   4.958   3.007 -1.3687 -1.5828  1.6571
  452SOL     OW 2139   5.226   3.773   2.861  0.3247  0.7019  0.3992
  452SOL    HW1 2140   5.164   3.737   2.924 -0.2958  1.8685  0.4754
  452SOL    HW2 2141   5.292   3.705   2.850 -0.3012 -0.0556  1.2647
  453SOL     OW 2142   4.813   1.281   3.642 -0.0690  0.2720  0.4289
  453SOL    HW1 2143   4.882   1.311   3.583  0.9178 -0.3365  1.2580
  453SOL    HW2 2144   4.834   1.189   3.658 -1.4580 -0.1019  0.1551
  454SOL     OW 2145   4.510   3.800   2.488  0.4896 -0.3541 -0.0141
  454SOL    HW1 2146   4.515   3.786   2.393  2.0616 -1.1642  0.1760
  454SOL    HW2 2147   4.515   3.895   2.499 -0.1730 -0.2226 -0.7564
  455SOL     OW 2148   4.609   0.665   3.017 -0.1415 -0.9777 -0.6324
  455SOL    HW1 2149   4.619   0.745   2.965  1.0848 -0.8288 -0.1913
  455SOL    HW2 2150   4.523   0.674   3.057  0.3910  0.6259  0.2140
  456SOL     OW 2151   2.372   3.142   2.666  0.2481  0.0229  0.2385
  456SOL    HW1 2152   2.283   3.173   2.650  0.1367  0.4118  1.5303
  456SOL    HW2 2153   2.371   3.051   2.636 -0.7274 -0.1257  0.6837
  457SOL     OW 2154   3.688   4.583   2.211  0.9472 -0.5670  0.1935
  457SOL    HW1 2155   3.684   4.667   2.257  0.9242 -0.4174 -0.0813
  457SOL    HW2 2156   3.700   4.606   2.119  1.4561 -0.8724  0.1788
  458SOL     OW 2157   5.720   3.010   2.674  0.1347  0.1056 -0.0709
  458SOL    HW1 2158   5.754   3.008   2.763 -0.0658 -1.9401 -0.0160
  458SOL    HW2 2159   5.660   2.936   2.669 -0.6981  0.8522 -1.5834
  459SOL     OW 2160   2.846   4.061   2.811 -0.2566  0.1865 -0.1542
  459SOL    HW1 2161   2.819   3.986   2.758 -1.4335  0.7128 -0.3142
  459SOL    HW2 2162   2.883   4.123   2.747 -0.4578  0.2739 -0.1857
  460SOL     OW 2163   3.280   0.282   2.162  0.1036 -0.4827  0.1518
  460SOL    HW1 2164   3.191   0.260   2.190 -0.7029  1.5971 -0.6738
  460SOL    HW2 2165   3.303   0.359   2.214  0.7675 -0.0122 -0.8172
  461SOL     OW 2166   4.261   4.591   2.243  0.6792 -0.3495  0.1167
  461SOL    HW1 2167   4.238   4.583   2.151  1.0784 -1.4044  0.0982
  461SOL    HW2 2168   4.345   4.545   2.251 -0.1575 -1.7326  1.3058
  462SOL     OW 2169   3.097   4.474   2.485 -0.1706  0.3797  0.3859
  462SOL    HW1 2170   3.042   4.546   2.456 -0.9187 -0.3758 -0.1120
  462SOL    HW2 2171   3.172   4.516   2.527  0.9422  1.5199 -2.6131
  463SOL     OW 2172   3.993   2.565   2.569  0.0292  0.4598 -0.2647
  463SOL    HW1 2173   4.010   2.556   2.475  0.3030 -3.1114  0.0370
  463SOL    HW2 2174   3.958   2.653   2.579  0.2324  1.0017 -3.6839
  464SOL     OW 2175   4.207   0.935   3.659 -0.0767 -0.4789 -0.9107
  464SOL    HW1 2176   4.269   1.007   3.647  0.7492 -0.7830  1.3199
  464SOL    HW2 2177   4.227   0.901   3.746 -2.1635 -1.7742 -0.9223
  465SOL     OW 2178   4.524   4.972   1.413  0.0979 -0.5521  0.6973
  465SOL    HW1 2179   4.562   5.059   1.406 -0.9107 -0.2184 -0.8898
  465SOL    HW2 2180   4.432   4.985   1.390  0.0205 -2.0990  0.1051
  466SOL     OW 2181   3.734   4.402   2.481  0.1724 -0.2400 -0.0629
  466SOL    HW1 2182   3.817   4.449   2.478  0.7201 -1.2720 -2.9707
  466SOL    HW2 2183   3.758   4.310   2.488 -0.6255 -0.6885 -2.6654
  467SOL     OW 2184   5.416   4.817   2.257  0.0737 -0.0153  0.5939
  467SOL    HW1 2185   5.452   4.734   2.290 -1.8445 -2.0848 -2.2294
  467SOL    HW2 2186   5.478   4.845   2.189 -1.5265 -1.5409 -1.5581
  468SOL     OW 2187   4.331   2.245   2.737 -0.5903 -0.4727  0.1952
  468SOL    HW1 2188   4.265   2.304   2.774 -0.6931  1.0537 -2.2639
  468SOL    HW2 2189   4.284   2.195   2.670  0.1571 -1.3004  0.2777
  469SOL     OW 2190   3.740   1.890   1.715 -0.6270 -0.4178  0.0536
  469SOL    HW1 2191   3.806   1.904   1.783 -0.9717 -2.1468  0.7736
  469SOL    HW2 2192   3.761   1.804   1.678  0.3006  1.0180 -2.8975
  470SOL     OW 2193   4.797   4.901   2.788 -0.5001 -0.3973 -0.2358
  470SOL    HW1 2194   4.785   4.995   2.791 -1.0935 -0.4134 -1.6093
  470SOL    HW2 2195   4.892   4.889   2.787 -0.4184  0.2400 -1.1199
  471SOL     OW 2196   4.153   1.284   2.432  0.2291  0.0176 -0.1347
  471SOL    HW1 2197   4.205   1.235   2.369 -0.0426 -0.8005  0.2655
  471SOL    HW2 2198   4.098   1.218   2.474  1.8807  0.2023  2.4415
  472SOL     OW 2199   4.612   0.485   3.814  0.0880 -0.2234  0.2546
  472SOL    HW1 2200   4.659   0.496   3.732 -1.7729 -0.3789 -0.8674
  472SOL    HW2 2201   4.656   0.544   3.875  1.1122  0.3374 -1.0016
  473SOL     OW 2202   5.022   0.654   2.145  0.6565 -0.5098  0.1435
  473SOL    HW1 2203   4.929   0.674   2.148  1.2916  2.9456 -0.7404
  473SOL    HW2 2204   5.045   0.635   2.236 -0.2918  1.9537  0.9519
  474SOL     OW 2205   5.211   1.555   2.956 -0.4477  0.4343  0.6389
  474SOL    HW1 2206   5.172   1.636   2.924 -2.0554 -0.2066  0.9482
  474SOL    HW2 2207   5.212   1.565   3.051 -0.3908  0.2002  0.6631
  475SOL     OW 2208   4.302   0.548   2.927  0.2885  0.4156  0.1130
  475SOL    HW1 2209   4.367   0.492   2.971  0.3112  0.2967 -0.0703
  475SOL    HW2 2210   4.260   0.490   2.864  1.7661  1.1244 -1.5712
  476SOL     OW 2211   5.147   1.335   2.376 -0.4622 -0.4583  0.0278
  476SOL    HW1 2212   5.206   1.295   2.439 -1.6774 -0.6255  1.0950
  476SOL    HW2 2213   5.190   1.417   2.351 -0.1378 -0.2058  1.3663
  477SOL     OW 2214   5.108   3.550   2.316 -0.5265 -0.7253 -0.8541
  477SOL    HW1 2215   5.193   3.586   2.289  0.2965 -1.1111  1.1680
  477SOL    HW2 2216   5.130   3.471   2.365 -1.9638  0.2661  1.4408
  478SOL     OW 2217   5.188   0.752   3.219 -0.2706 -0.1155  0.5217
  478SOL    HW1 2218   5.280   0.749   3.194 -0.3218 -0.3387  0.3545
  478SOL    HW2 2219   5.142   0.712   3.145 -0.6685  1.6235 -0.2013
  479SOL     OW 2220   4.768   1.799   2.067 -0.3002 -0.1051  1.0311
  479SOL    HW1 2221   4.856   1.795   2.104 -0.1954 -2.2488  0.6151
  479SOL    HW2 2222   4.736   1.709   2.071 -2.0127  0.4294  0.0411
  480SOL     OW 2223   4.236   2.112   1.463  0.1665 -0.3413  1.1536
  480SOL    HW1 2224   4.159   2.132   1.410  1.3303 -0.4519 -0.6081
  480SOL    HW2 2225   4.291   2.190   1.456  0.1543 -0.1771  2.5864
  481SOL     OW 2226   3.135   1.687   3.463  0.4840  0.0945  0.4841
  481SOL    HW1 2227   3.190   1.718   3.535 -0.1804 -0.2387  1.1395
  481SOL    HW2 2228   3.197   1.660   3.395  1.1124  0.3336  0.9603
  482SOL     OW 2229   4.073   5.582   3.840  0.4749 -0.7403  0.2060
  482SOL    HW1 2230   4.098   5.658   3.892 -0.9215 -0.1778  0.0732
  482SOL    HW2 2231   4.114   5.597   3.755  1.8074 -1.1016  0.7636
  483SOL     OW 2232   3.554   4.808   2.945 -0.1550  0.0975 -0.0411
  483SOL    HW1 2233   3.471   4.833   2.904 -0.1427  0.3258  0.0709
  483SOL    HW2 2234   3.620   4.833   2.880 -0.3470 -2.8954 -1.4497
  484SOL     OW 2235   3.881   0.255   2.921  0.3059  0.5845  0.1914
  484SOL    HW1 2236   3.969   0.256   2.958  1.0496 -0.7002 -1.4409
  484SOL    HW2 2237   3.829   0.206   2.984  1.1328 -0.0335  0.3999
  485SOL     OW 2238   3.022   5.177   2.352 -0.1573  0.3728 -0.2832
  485SOL    HW1 2239   3.095   5.206   2.406  2.3622 -4.0424 -1.0157
  485SOL    HW2 2240   2.971   5.120   2.409 -0.3908 -0.2214 -1.0757
  486SOL     OW 2241   5.541   4.538   2.365  0.0335  0.2605  0.2816
  486SOL    HW1 2242   5.481   4.496   2.304 -0.0074  1.2557 -0.3678
  486SOL    HW2 2243   5.562   4.469   2.428  0.3117 -0.8819 -1.0156
  487SOL     OW 2244   3.630   4.747   2.423  0.2008  0.5413 -0.1289
  487SOL    HW1 2245   3.582   4.816   2.379  2.2583  1.1338 -1.5245
  487SOL    HW2 2246   3.719   4.782   2.432  0.1604 -0.0411  3.4218
  488SOL     OW 2247   5.432   3.666   1.850 -0.3080 -0.4474  0.2615
  488SOL    HW1 2248   5.459   3.757   1.865 -1.1400 -0.1830  0.1483
  488SOL    HW2 2249   5.429   3.627   1.937  2.1807 -0.9877  0.1605
  489SOL     OW 2250   3.565   0.057   1.530 -1.0408  0.8841 -0.1018
  489SOL    HW1 2251   3.577   0.138   1.480  4.0917  1.3855  1.6175
  489SOL    HW2 2252   3.554   0.087   1.620  0.3210 -0.2458  0.4642
  490SOL     OW 2253   4.780   4.136   4.059 -0.5759 -0.0884 -1.1511
  490SOL    HW1 2254   4.753   4.093   3.978 -0.4080 -3.5676  0.5100
  490SOL    HW2 2255   4.867   4.100   4.077 -0.0990  1.5573 -0.0527
  491SOL     OW 2256   4.200   2.309   3.296  0.0743 -0.4564 -0.0182
  491SOL    HW1 2257   4.272   2.364   3.326  1.6261 -2.4404 -0.0336
  491SOL    HW2 2258   4.203   2.231   3.352  0.4511 -2.3529 -2.5545
  492SOL     OW 2259   4.791   1.997   3.651 -0.1215 -0.5244 -0.0848
  492SOL    HW1 2260   4.826   1.983   3.563  1.4523 -0.8874  0.6021
  492SOL    HW2 2261   4.716   1.938   3.656  0.9343 -1.9306 -0.4954
  493SOL     OW 2262   2.895   2.759   1.437  0.2906 -0.5921  0.2431
  493SOL    HW1 2263   2.941   2.811   1.371 -0.1757 -1.4721 -0.7783
  493SOL    HW2 2264   2.804   2.791   1.433 -0.0197 -1.5377 -0.4535
  494SOL     OW 2265   3.270   5.135   3.013  0.2213  0.6370 -0.1073
  494SOL    HW1 2266   3.279   5.069   3.081 -0.5823  1.1388  0.4946
  494SOL    HW2 2267   3.360   5.158   2.989  0.5012 -0.0500  0.2811
  495SOL     OW 2268   3.423   2.101   1.960 -0.0253  0.3938 -0.7166
  495SOL    HW1 2269   3.472   2.175   1.995  0.6479  0.6827 -2.2047
  495SOL    HW2 2270   3.473   2.073   1.883 -0.1038 -1.8194  0.0113
  496SOL     OW 2271   5.524   3.324   1.284 -1.0244  0.2757  0.5259
  496SOL    HW1 2272   5.514   3.373   1.365  2.4633  4.4201 -1.3044
  496SOL    HW2 2273   5.437   3.325   1.243 -2.5165 -0.8363  3.5808
  497SOL     OW 2274   4.090   1.971   3.246  0.9436 -0.6284  0.2877
  497SOL    HW1 2275   4.071   1.965   3.340  1.0739 -3.2648  0.1833
  497SOL    HW2 2276   4.065   2.060   3.222 -0.2873 -0.3225  2.5734
  498SOL     OW 2277   3.633   1.927   1.408  0.0196  0.0079  0.0507
  498SOL    HW1 2278   3.706   1.984   1.434 -2.3169  1.5407  3.6479
  498SOL    HW2 2279   3.618   1.948   1.316  0.8647  3.4156  0.6226
  499SOL     OW 2280   5.416   2.043   2.858 -0.5182 -0.1522 -0.3115
  499SOL    HW1 2281   5.490   2.083   2.904  0.8136 -1.0678 -1.5871
  499SOL    HW2 2282   5.351   2.026   2.926 -0.0163  1.6852  0.6557
  500SOL     OW 2283   3.590   5.589   3.533 -0.1229  0.3233  0.8801
  500SOL    HW1 2284   3.683   5.591   3.511 -0.3865  0.5204 -0.2338
  500SOL    HW2 2285   3.546   5.573   3.450 -1.0635 -0.1952  1.4741
  501SOL     OW 2286   3.691   2.922   3.984 -0.5444 -0.1840  0.5155
  501SOL    HW1 2287   3.616   2.958   4.030 -1.4195 -0.6921 -0.4901
  501SOL    HW2 2288   3.657   2.895   3.899  1.2547  1.7544 -0.8815
  502SOL     OW 2289   3.280   5.458   3.757  0.7588 -0.0554  0.1664
  502SOL    HW1 2290   3.193   5.431   3.785 -0.1381  1.7478 -0.7453
  502SOL    HW2 2291   3.340   5.406   3.810 -0.8684 -0.7382  1.3840
  503SOL     OW 2292   2.766   4.398   3.315  0.3108  0.4995 -0.6684
  503SOL    HW1 2293   2.759   4.465   3.383 -0.9093 -0.4462  0.1576
  503SOL    HW2 2294   2.740   4.317   3.359  2.8390 -0.7369 -1.3418
  504SOL     OW 2295   4.821   3.224   1.369 -0.2723  0.4583  0.3252
  504SOL    HW1 2296   4.882   3.152   1.385 -0.2223  0.6246  0.8907
  504SOL    HW2 2297   4.742   3.182   1.336  0.4531  0.3104 -1.2925
  505SOL     OW 2298   3.375   4.311   2.312  0.4201  0.0811  0.1398
  505SOL    HW1 2299   3.388   4.217   2.315  0.5504  0.1377  1.5877
  505SOL    HW2 2300   3.286   4.324   2.346  0.6908  0.5457  0.6652
  506SOL     OW 2301   3.796   1.267   1.866  0.1954 -0.6363 -0.8647
  506SOL    HW1 2302   3.799   1.261   1.770 -2.7437 -2.4367 -0.9236
  506SOL    HW2 2303   3.713   1.311   1.884  0.6156 -0.5344  0.8894
  507SOL     OW 2304   4.155   4.390   1.571  0.1150 -0.0547 -0.0586
  507SOL    HW1 2305   4.125   4.480   1.586 -1.6893 -0.7180  0.4127
  507SOL    HW2 2306   4.153   4.349   1.657 -0.9771 -1.1039 -0.5703
  508SOL     OW 2307   4.054   1.858   1.686  0.2355  0.5471  0.2724
  508SOL    HW1 2308   4.113   1.899   1.749  0.2973 -0.6260  0.9855
  508SOL    HW2 2309   4.032   1.928   1.624  3.3582  0.7125 -0.7290
  509SOL     OW 2310   3.524   0.644   2.076 -0.5651 -0.1469  0.4843
  509SOL    HW1 2311   3.534   0.717   2.137  4.8429  0.0260 -0.4345
  509SOL    HW2 2312   3.468   0.678   2.006 -0.5232  2.1063  1.5180
  510SOL     OW 2313   4.490   5.195   4.295  0.0061  0.4504 -0.4539
  510SOL    HW1 2314   4.568   5.149   4.265 -0.4455 -1.0639  0.5923
  510SOL    HW2 2315   4.484   5.172   4.388 -1.1878  1.2608 -0.3227
  511SOL     OW 2316   4.866   4.711   3.965  0.8587 -0.0936  0.1450
  511SOL    HW1 2317   4.900   4.779   4.023 -0.1134 -0.8892  1.6920
  511SOL    HW2 2318   4.806   4.661   4.020  0.0570 -0.9946 -1.5133
  512SOL     OW 2319   4.653   5.228   1.524  0.8276  0.4355 -0.4365
  512SOL    HW1 2320   4.653   5.319   1.553 -1.6506  0.1865  0.5045
  512SOL    HW2 2321   4.665   5.177   1.604  1.6809 -0.0765 -0.8888
  513SOL     OW 2322   5.077   4.333   2.171  0.1832 -0.7209 -0.4278
  513SOL    HW1 2323   5.017   4.312   2.243  1.8316 -1.3580  0.8015
  513SOL    HW2 2324   5.046   4.281   2.097 -0.3107 -1.6503  0.4225
  514SOL     OW 2325   3.031   5.209   2.867  0.8875  0.2450  0.2205
  514SOL    HW1 2326   2.974   5.142   2.906  1.4332 -1.0924 -1.2000
  514SOL    HW2 2327   3.111   5.206   2.920  0.2518  1.0338  1.2516
  515SOL     OW 2328   0.065   3.645   1.283  0.3300 -0.0383 -0.0195
  515SOL    HW1 2329   0.150   3.631   1.325 -0.1945 -1.7495  0.5151
  515SOL    HW2 2330   0.010   3.680   1.352  0.4382  0.5768 -0.2355
  516SOL     OW 2331   2.597   5.156   2.676 -0.0468 -0.2268  0.2126
  516SOL    HW1 2332   2.550   5.073   2.681 -0.8307  0.2868  1.4645
  516SOL    HW2 2333   2.600   5.187   2.766 -1.2819  1.9685 -0.4838
  517SOL     OW 2334   4.514   4.063   2.535  0.1765 -0.7323 -0.0158
  517SOL    HW1 2335   4.508   4.137   2.475  0.7808 -0.4436  0.2731
  517SOL    HW2 2336   4.569   4.095   2.607  0.8646 -1.6167 -0.1393
  518SOL     OW 2337   5.442   4.002   2.766  0.0888 -0.6940 -0.3399
  518SOL    HW1 2338   5.485   3.941   2.707 -2.5881 -2.2376 -0.7819
  518SOL    HW2 2339   5.359   3.960   2.789 -0.5383  1.4752  1.6747
  519SOL     OW 2340   3.925   1.389   3.834 -0.1076  0.2709 -0.3284
  519SOL    HW1 2341   3.850   1.444   3.811  0.5525  0.7799 -1.3174
  519SOL    HW2 2342   3.976   1.383   3.753  0.5192 -0.7127  0.1232
  520SOL     OW 2343   3.706   4.214   1.573  0.2576  0.5889  0.7062
  520SOL    HW1 2344   3.769   4.215   1.645  2.3284  0.3941 -1.0341
  520SOL    HW2 2345   3.713   4.301   1.534  0.3663  0.1639 -0.2365
  521SOL     OW 2346   0.540   2.441   1.977  0.3796 -0.5117  0.4467
  521SOL    HW1 2347   0.490   2.520   1.996  1.1399  0.3023 -0.8659
  521SOL    HW2 2348   0.485   2.369   2.009  0.0526  0.5772  2.4004
  522SOL     OW 2349   3.206   4.677   3.006  0.0894  0.0444 -0.3171
  522SOL    HW1 2350   3.152   4.675   2.927 -0.7523  2.1654  0.1672
  522SOL    HW2 2351   3.253   4.760   3.000  0.7725 -0.2465  0.9219
  523SOL     OW 2352   3.519   2.336   2.565 -0.2830 -0.3160  0.0849
  523SOL    HW1 2353   3.500   2.263   2.506  1.6902  1.4365 -2.8583
  523SOL    HW2 2354   3.435   2.381   2.575 -0.8934 -1.3271 -0.4153
  524SOL     OW 2355   3.982   4.641   2.151 -0.1592 -0.7309  0.9152
  524SOL    HW1 2356   3.919   4.664   2.083  0.2627  0.2472  0.8511
  524SOL    HW2 2357   3.951   4.557   2.185 -0.1577 -1.4126 -0.7408
  525SOL     OW 2358   3.508   5.034   2.594 -0.2512 -0.6652 -0.2064
  525SOL    HW1 2359   3.447   5.100   2.628  0.2826 -0.5920  0.6076
  525SOL    HW2 2360   3.482   5.023   2.503 -0.4144  0.5926 -0.3204
  526SOL     OW 2361   3.519   3.842   1.798  0.4474 -0.2124 -0.3454
  526SOL    HW1 2362   3.480   3.892   1.727 -0.7815 -0.3216  0.2387
  526SOL    HW2 2363   3.592   3.896   1.829 -2.2931  2.3656  1.8217
  527SOL     OW 2364   5.453   3.154   1.690 -0.2072  0.1081  0.4403
  527SOL    HW1 2365   5.367   3.122   1.715  0.5310 -3.4898 -1.3519
  527SOL    HW2 2366   5.436   3.240   1.650 -2.9839 -0.6488 -0.0938
  528SOL     OW 2367   2.951   1.248   3.395 -0.0639 -0.0845  0.5416
  528SOL    HW1 2368   2.918   1.236   3.484  2.2146  1.0897  1.5740
  528SOL    HW2 2369   3.038   1.209   3.396  0.7014  1.5396 -0.6636
  529SOL     OW 2370   5.209   3.377   1.923 -0.6257  0.2593  0.0639
  529SOL    HW1 2371   5.140   3.441   1.903 -1.8753 -1.1867 -0.3125
  529SOL    HW2 2372   5.193   3.304   1.863  2.8501  0.9888 -1.9426
  530SOL     OW 2373   3.887   1.657   5.587  0.3049  0.3500 -0.2208
  530SOL    HW1 2374   3.891   1.565   5.560 -3.8735 -0.1056  0.3753
  530SOL    HW2 2375   3.957   1.666   5.652  1.3353 -2.1662 -0.9117
  531SOL     OW 2376   3.672   0.648   2.495  0.5827 -0.2321 -0.0247
  531SOL    HW1 2377   3.603   0.707   2.464  0.9895  0.2477 -0.0175
  531SOL    HW2 2378   3.626   0.586   2.552 -0.5506 -2.3301 -3.0546
  532SOL     OW 2379   4.178   0.548   2.357  0.2325  0.7676 -0.1715
  532SOL    HW1 2380   4.207   0.467   2.399 -1.3118  1.3840  2.1989
  532SOL    HW2 2381   4.204   0.617   2.418  0.2094  1.9360 -1.4633
  533SOL     OW 2382   3.602   1.329   3.952 -0.3411  0.0071 -0.0889
  533SOL    HW1 2383   3.517   1.299   3.983 -0.3521 -1.4795 -1.4980
  533SOL    HW2 2384   3.636   1.382   4.023 -0.8647 -2.3706  2.0011
  534SOL     OW 2385   2.595   4.132   2.610 -0.6474 -0.1106  0.4142
  534SOL    HW1 2386   2.589   4.173   2.696  0.2341  2.7642 -0.8199
  534SOL    HW2 2387   2.642   4.050   2.625  1.0486  1.1895  2.4141
  535SOL     OW 2388   3.737   5.557   1.513  0.5493 -0.4819  0.1895
  535SOL    HW1 2389   3.808   5.616   1.487 -0.2195  0.4373  0.1503
  535SOL    HW2 2390   3.662   5.615   1.526 -0.4105 -1.5336 -0.5658
  536SOL     OW 2391   3.292   5.314   2.384 -0.3121 -0.4640 -0.9996
  536SOL    HW1 2392   3.328   5.247   2.442 -1.4280 -1.4808 -1.4708
  536SOL    HW2 2393   3.287   5.392   2.439 -0.0004 -1.0415 -0.1389
  537SOL     OW 2394   0.108   3.506   2.001 -0.2933 -0.1880  0.1173
  537SOL    HW1 2395   0.064   3.425   1.977 -0.3446  0.2018 -1.1526
  537SOL    HW2 2396   0.045   3.553   2.055 -0.2994 -0.9438  0.7755
  538SOL     OW 2397   2.703   5.228   3.124 -0.0469 -0.1621 -0.0439
  538SOL    HW1 2398   2.721   5.310   3.169 -0.2980 -0.9387  1.5164
  538SOL    HW2 2399   2.638   5.251   3.057  0.3941  1.0247 -0.0822
  539SOL     OW 2400   4.139   4.975   1.731  0.0556 -0.0699 -1.2796
  539SOL    HW1 2401   4.164   4.935   1.815  1.2596  3.6493  0.2561
  539SOL    HW2 2402   4.112   4.901   1.676  1.4366 -2.8532  1.6105
  540SOL     OW 2403   3.750   0.750   4.101 -0.4294  0.1063  0.2919
  540SOL    HW1 2404   3.819   0.813   4.082  0.2081 -0.8289 -0.5941
  540SOL    HW2 2405   3.733   0.759   4.195 -0.6561  1.8818  0.0838
  541SOL     OW 2406   4.080   4.375   2.049 -0.0454 -0.1153 -0.0754
  541SOL    HW1 2407   3.998   4.396   2.094 -1.3117 -1.3976 -1.7211
  541SOL    HW2 2408   4.053   4.324   1.972  2.3636 -1.1830 -0.2504
  542SOL     OW 2409   0.220   3.371   1.510  0.3894 -0.5984  0.4518
  542SOL    HW1 2410   0.266   3.453   1.495 -0.5050 -0.3378 -0.9525
  542SOL    HW2 2411   0.137   3.396   1.549 -0.4248 -0.7169 -1.1548
  543SOL     OW 2412   3.733   4.847   2.749 -0.0581  0.4864  0.3144
  543SOL    HW1 2413   3.744   4.858   2.654 -1.1575 -1.7305 -0.1072
  543SOL    HW2 2414   3.811   4.886   2.787  0.0376  2.1209 -1.4531
  544SOL     OW 2415   5.378   3.655   0.997 -0.2551  0.5528 -0.0719
  544SOL    HW1 2416   5.453   3.655   1.057  0.0735 -0.1422 -0.4796
  544SOL    HW2 2417   5.416   3.667   0.910 -0.3280 -2.7410 -0.6122
  545SOL     OW 2418   4.834   2.649   1.724 -0.5519 -0.0251  0.8019
  545SOL    HW1 2419   4.843   2.741   1.699  0.1401 -0.0321  1.0145
  545SOL    HW2 2420   4.832   2.650   1.820  1.6410 -0.4128  0.8739
  546SOL     OW 2421   3.743   0.488   4.391  0.6520 -0.4219 -0.3577
  546SOL    HW1 2422   3.793   0.498   4.310  3.1922  0.8283  1.3152
  546SOL    HW2 2423   3.766   0.401   4.422  0.1468 -0.6622 -0.6453
  547SOL     OW 2424   3.809   1.688   1.442 -0.0150  0.3216  0.1624
  547SOL    HW1 2425   3.716   1.709   1.450 -0.1804 -0.2149 -0.3057
  547SOL    HW2 2426   3.843   1.751   1.378 -0.1292  0.3119  0.0926
  548SOL     OW 2427   4.778   1.077   1.545  0.2991  0.3522  0.2260
  548SOL    HW1 2428   4.840   1.023   1.594 -0.4664  0.9508  1.8964
  548SOL    HW2 2429   4.724   1.119   1.613 -0.7456  1.2439 -1.1334
  549SOL     OW 2430   4.843   5.267   2.953  0.0267  0.4432  0.7463
  549SOL    HW1 2431   4.923   5.228   2.989 -0.0547 -1.1418 -0.7597
  549SOL    HW2 2432   4.851   5.257   2.858 -0.9671  2.2483  0.4428
  550SOL     OW 2433   4.950   3.278   2.386  0.3980  0.2698 -0.7461
  550SOL    HW1 2434   5.032   3.229   2.389  0.6864  0.8307  0.9802
  550SOL    HW2 2435   4.910   3.252   2.303  2.4232  0.1878 -1.7240
  551SOL     OW 2436   3.730   4.934   1.591 -0.1140  0.2405 -0.2721
  551SOL    HW1 2437   3.646   4.973   1.613  0.0931 -1.1663  3.2870
  551SOL    HW2 2438   3.749   4.966   1.503 -2.9902  2.8817  0.0010
  552SOL     OW 2439   2.865   5.139   3.641  0.1639  0.0911  0.0901
  552SOL    HW1 2440   2.865   5.046   3.615  0.9028 -0.3339  1.5916
  552SOL    HW2 2441   2.945   5.175   3.601 -0.0858  0.0739 -0.4338
  553SOL     OW 2442   4.773   0.459   3.124 -0.2912  0.4028 -0.6011
  553SOL    HW1 2443   4.818   0.530   3.171 -0.4882 -0.4391  0.9069
  553SOL    HW2 2444   4.682   0.465   3.154 -0.7533  0.7835 -2.0393
  554SOL     OW 2445   4.566   1.668   3.263  0.3029  0.9083 -0.0919
  554SOL    HW1 2446   4.573   1.609   3.338  0.6232  0.4929 -0.4429
  554SOL    HW2 2447   4.648   1.719   3.264  2.2080 -1.9079 -2.4882
  555SOL     OW 2448   4.958   4.286   3.411 -0.6471  0.7831 -0.3074
  555SOL    HW1 2449   4.984   4.195   3.422  1.4664  1.1898 -1.7327
  555SOL    HW2 2450   4.884   4.297   3.471 -0.0891 -1.5045  0.8587
  556SOL     OW 2451   5.067   1.925   2.666 -0.1520  0.5925 -0.2590
  556SOL    HW1 2452   5.099   1.984   2.735  0.1500 -2.7369  2.5750
  556SOL    HW2 2453   4.972   1.928   2.675 -0.1381  0.6263 -0.1142
  557SOL     OW 2454   3.160   1.076   3.295  0.5082 -0.0049  0.1534
  557SOL    HW1 2455   3.241   1.030   3.317  0.9556  1.0349  0.6958
  557SOL    HW2 2456   3.128   1.031   3.217  0.9305 -1.2449  0.6732
  558SOL     OW 2457   4.873   1.299   1.362  0.0251 -0.1572  0.4362
  558SOL    HW1 2458   4.959   1.282   1.325 -0.3763 -0.8103 -0.2020
  558SOL    HW2 2459   4.853   1.221   1.414  0.1476  0.3194  1.2014
  559SOL     OW 2460   4.793   2.974   1.680 -0.3816 -0.1428 -0.7455
  559SOL    HW1 2461   4.791   3.026   1.599 -0.7698 -2.0364 -1.9796
  559SOL    HW2 2462   4.806   3.039   1.749  0.1780  1.5001 -2.3357
  560SOL     OW 2463   3.763   0.458   1.954 -0.4702  0.5027  0.1022
  560SOL    HW1 2464   3.839   0.427   2.004 -0.8599 -3.4743 -1.5363
  560SOL    HW2 2465   3.725   0.527   2.008  4.2361  2.5459  0.9744
  561SOL     OW 2466   2.458   3.235   1.472  0.2147  1.1690 -0.1563
  561SOL    HW1 2467   2.547   3.226   1.438  0.5478 -2.1312  1.3687
  561SOL    HW2 2468   2.403   3.244   1.394  1.5674  0.0268 -1.2667
  562SOL     OW 2469   4.909   2.872   3.098 -0.0975  0.3538  0.0222
  562SOL    HW1 2470   4.897   2.787   3.056  1.5063 -0.1573  0.5454
  562SOL    HW2 2471   4.951   2.926   3.030  0.9987  0.0186  0.4195
  563SOL     OW 2472   3.946   2.464   3.800  0.4599  0.1321 -0.0464
  563SOL    HW1 2473   3.904   2.521   3.864 -0.4338  3.1432 -3.1394
  563SOL    HW2 2474   3.881   2.396   3.782 -0.7835  1.4024 -0.4487
  564SOL     OW 2475   5.095   1.023   1.801  0.5775  0.5752  0.0772
  564SOL    HW1 2476   5.136   1.056   1.721  2.6204 -0.3248  0.7206
  564SOL    HW2 2477   5.100   1.097   1.862 -2.1708  1.7009 -1.0000
  565SOL     OW 2478   4.410   5.120   3.465  0.5171  0.5577 -0.1781
  565SOL    HW1 2479   4.430   5.169   3.385  1.3079  0.1131 -0.2539
  565SOL    HW2 2480   4.470   5.046   3.464 -1.5145 -1.1346 -0.6890
  566SOL     OW 2481   4.849   4.311   3.107  0.5027 -0.8753 -0.1644
  566SOL    HW1 2482   4.926   4.303   3.163 -0.3335 -1.3322  0.9242
  566SOL    HW2 2483   4.796   4.379   3.148  0.9227  0.4025 -1.6458
  567SOL     OW 2484   5.186   2.677   2.041  0.6476 -0.5648 -0.7929
  567SOL    HW1 2485   5.266   2.635   2.008  0.4353  1.5738 -4.3233
  567SOL    HW2 2486   5.214   2.726   2.118  2.2706 -1.6789 -0.6562
  568SOL     OW 2487   5.646   3.631   2.184 -0.0231  0.0925  0.6527
  568SOL    HW1 2488   5.598   3.694   2.238  0.4551  1.8447 -0.8807
  568SOL    HW2 2489   5.580   3.596   2.124 -0.7011 -2.3616  2.7282
  569SOL     OW 2490   4.177   2.531   1.260 -0.4101  0.0517 -0.2981
  569SOL    HW1 2491   4.168   2.576   1.344  1.1190  1.5903 -0.9426
  569SOL    HW2 2492   4.241   2.461   1.278  0.6587  0.9878 -0.4024
  570SOL     OW 2493   4.465   0.104   2.606  0.3344 -0.3924  1.0768
  570SOL    HW1 2494   4.441   0.021   2.564  0.3068  0.6033 -0.9143
  570SOL    HW2 2495   4.536   0.081   2.665  2.5657 -1.3200 -1.8628
  571SOL     OW 2496   3.720   2.706   2.628 -0.8997 -0.4216 -0.7088
  571SOL    HW1 2497   3.688   2.630   2.580 -2.3342 -2.0094  2.5765
  571SOL    HW2 2498   3.649   2.770   2.622 -2.0704 -1.5095  1.2016
  572SOL     OW 2499   4.243   4.536   3.173  0.2956 -0.5597 -0.3515
  572SOL    HW1 2500   4.321   4.571   3.217  0.4383 -0.2531 -0.8322
  572SOL    HW2 2501   4.188   4.613   3.158 -0.2191 -0.8147  0.2171
  573SOL     OW 2502   5.002   4.095   1.626 -0.2771 -0.1182  0.3268
  573SOL    HW1 2503   5.082   4.042   1.631 -1.1198 -1.3518  0.9444
  573SOL    HW2 2504   4.988   4.109   1.532  0.7832  0.3091  0.2220
  574SOL     OW 2505   5.439   2.538   1.945 -0.3014  0.2180  0.0516
  574SOL    HW1 2506   5.485   2.565   1.866 -0.0274 -0.9092 -0.1887
  574SOL    HW2 2507   5.508   2.531   2.011 -0.4863  0.8845  0.3127
  575SOL     OW 2508   5.488   5.669   3.166  0.3985 -0.6592 -0.1982
  575SOL    HW1 2509   5.451   5.585   3.194 -0.5758 -0.2216 -0.1620
  575SOL    HW2 2510   5.583   5.656   3.169  0.2487 -1.8215 -0.3806
  576SOL     OW 2511   3.165   0.234   3.463  0.1496  0.1180  0.4843
  576SOL    HW1 2512   3.097   0.273   3.408  0.5989 -0.1968 -0.2923
  576SOL    HW2 2513   3.173   0.144   3.432  0.3896 -0.0645  1.0747
  577SOL     OW 2514   4.463   3.686   1.652 -0.7085  0.0520  0.1297
  577SOL    HW1 2515   4.529   3.736   1.602 -1.8149  1.5722  0.1519
  577SOL    HW2 2516   4.380   3.725   1.626 -1.3343  0.5630  2.8248
  578SOL     OW 2517   2.876   2.414   2.722  1.0614  0.4064 -0.2112
  578SOL    HW1 2518   2.891   2.320   2.710 -2.6157 -0.1629 -1.2080
  578SOL    HW2 2519   2.942   2.442   2.785  4.0711 -2.2221 -2.0316
  579SOL     OW 2520   2.620   0.045   2.922 -0.3442 -0.2073 -0.9094
  579SOL    HW1 2521   2.620  -0.051   2.928 -0.0873 -0.1464  0.1765
  579SOL    HW2 2522   2.667   0.074   3.000 -1.5978  0.8532 -0.5350
  580SOL     OW 2523   3.565   5.593   2.567 -0.2512 -0.4438  0.2465
  580SOL    HW1 2524   3.616   5.511   2.571  0.9978  0.3282  0.3424
  580SOL    HW2 2525   3.528   5.601   2.655 -3.1540 -2.6139 -0.6757
  581SOL     OW 2526   4.426   3.569   0.921  0.4167  0.0161 -0.0627
  581SOL    HW1 2527   4.429   3.549   0.828  0.6093 -0.0822 -0.0345
  581SOL    HW2 2528   4.477   3.649   0.931 -1.7200  1.4808 -0.4255
  582SOL     OW 2529   3.716   1.576   2.055  0.2374  0.6940 -0.1604
  582SOL    HW1 2530   3.676   1.663   2.052 -1.4079  0.0353  1.5136
  582SOL    HW2 2531   3.779   1.576   1.984 -2.8152  1.7597 -3.0130
  583SOL     OW 2532   5.264   2.045   1.810 -0.1971 -0.8820  0.1115
  583SOL    HW1 2533   5.196   2.020   1.746 -1.2041 -1.0157  1.2150
  583SOL    HW2 2534   5.253   1.982   1.882  0.3864 -0.2247  0.7780
  584SOL     OW 2535   5.473   3.853   3.193  0.7335 -0.0098 -0.3887
  584SOL    HW1 2536   5.549   3.880   3.245  2.0083  0.0986 -2.2375
  584SOL    HW2 2537   5.509   3.836   3.105 -1.1780 -1.1854 -0.9767
  585SOL     OW 2538   4.872   5.446   3.291  0.0072  0.0645  0.2137
  585SOL    HW1 2539   4.896   5.514   3.228 -1.4485  0.1557 -0.2706
  585SOL    HW2 2540   4.777   5.454   3.300  0.0164 -0.9057  1.3146
  586SOL     OW 2541   3.417   0.946   3.681  0.0164  0.8550  0.3548
  586SOL    HW1 2542   3.462   1.030   3.671 -0.5998  0.9479 -2.0611
  586SOL    HW2 2543   3.406   0.915   3.591  0.9039 -2.1831  1.2559
  587SOL     OW 2544   5.418   4.148   3.180 -0.4164 -0.4491  0.2177
  587SOL    HW1 2545   5.397   4.212   3.112 -0.9432 -1.2735 -0.4081
  587SOL    HW2 2546   5.480   4.089   3.139  0.8226  0.2141  1.1073
  588SOL     OW 2547   4.045   1.329   0.999 -0.4243  0.0149  0.0383
  588SOL    HW1 2548   4.012   1.277   0.926 -0.4012 -2.0850  1.5094
  588SOL    HW2 2549   3.983   1.314   1.070 -0.2849  1.8180  0.5654
  589SOL     OW 2550   3.048   4.973   3.959  0.6853 -0.5447 -0.5511
  589SOL    HW1 2551   3.039   4.897   3.901 -1.0687 -1.1045  0.4089
  589SOL    HW2 2552   3.071   4.936   4.044  0.8717  0.0831 -0.3244
  590SOL     OW 2553   4.584   1.977   1.753  0.3462 -0.2351  0.1312
  590SOL    HW1 2554   4.656   1.916   1.737  1.1856  0.3294  1.7197
  590SOL    HW2 2555   4.554   1.957   1.841 -1.3087 -0.2987 -0.4210
  591SOL     OW 2556   5.329   1.280   2.573  0.3975 -0.0117  0.2471
  591SOL    HW1 2557   5.358   1.197   2.611 -5.1310 -1.9079  0.7896
  591SOL    HW2 2558   5.299   1.332   2.648 -1.2231  0.2712 -0.5789
  592SOL     OW 2559   4.243   1.865   1.892  0.4504 -0.9808 -0.4689
  592SOL    HW1 2560   4.257   1.959   1.879  0.0853 -1.0885 -1.7521
  592SOL    HW2 2561   4.219   1.857   1.984  1.1149  0.1067 -0.1887
  593SOL     OW 2562   5.484   2.437   2.807 -0.0252 -0.5091  0.9961
  593SOL    HW1 2563   5.577   2.424   2.828  0.2163  1.7134  1.3474
  593SOL    HW2 2564   5.482   2.511   2.747 -1.5858 -0.5656  0.9511
  594SOL     OW 2565   2.791   3.866   2.602  0.6378 -0.2528 -0.1680
  594SOL    HW1 2566   2.768   3.841   2.512  3.7303 -1.6643 -0.6260
  594SOL    HW2 2567   2.847   3.795   2.633 -0.6602  0.0702  3.0168
  595SOL     OW 2568   5.114   2.778   3.821 -0.1819 -0.7691  0.8539
  595SOL    HW1 2569   5.179   2.844   3.798 -0.3481 -0.6226  0.8048
  595SOL    HW2 2570   5.065   2.763   3.740  0.9449 -2.1878  0.4162
  596SOL     OW 2571   5.072   3.839   2.263  0.2517 -0.1857 -0.7389
  596SOL    HW1 2572   5.032   3.762   2.304 -0.3436  0.9651  0.8781
  596SOL    HW2 2573   5.166   3.821   2.264  0.3087  0.1022  1.7556
  597SOL     OW 2574   4.814   5.461   2.520  0.1506 -0.4239  0.2712
  597SOL    HW1 2575   4.858   5.378   2.538 -2.3887 -1.8077  0.3264
  597SOL    HW2 2576   4.884   5.520   2.494  2.1447 -2.2705  1.3267
  598SOL     OW 2577   4.376   3.678   1.283 -0.1020  0.4576  0.0441
  598SOL    HW1 2578   4.435   3.743   1.246  1.8881 -2.6975 -2.5038
  598SOL    HW2 2579   4.308   3.666   1.217 -1.8722  1.7387  1.5913
  599SOL     OW 2580   5.079   5.459   2.740  0.4834  0.2706  0.2108
  599SOL    HW1 2581   5.007   5.408   2.701 -0.5637  1.5025  0.5019
  599SOL    HW2 2582   5.083   5.539   2.687  1.9929 -0.0190 -0.1265
  600SOL     OW 2583   4.243   0.904   2.076  0.2134  0.0709 -0.7466
  600SOL    HW1 2584   4.325   0.883   2.030  1.0781  0.9536  0.3472
  600SOL    HW2 2585   4.174   0.868   2.021  1.4438 -2.3435 -0.8046
  601SOL     OW 2586   3.903   2.183   2.819 -0.5139 -0.2632  0.5139
  601SOL    HW1 2587   3.824   2.135   2.794 -0.9518  0.6507  0.1541
  601SOL    HW2 2588   3.882   2.275   2.804 -0.3081  0.1975  2.9041
  602SOL     OW 2589   3.713   0.332   2.732 -0.3223 -0.1058  0.3194
  602SOL    HW1 2590   3.739   0.371   2.815 -0.6997  0.6652  0.0783
  602SOL    HW2 2591   3.628   0.371   2.712  0.8607  1.5990 -1.6471
  603SOL     OW 2592   4.730   0.054   3.151 -0.3531  0.2750 -0.3163
  603SOL    HW1 2593   4.684  -0.019   3.194 -2.0402  0.0299 -2.4364
  603SOL    HW2 2594   4.805   0.072   3.208 -2.2616 -0.2999  2.4888
  604SOL     OW 2595   4.430   3.031   3.439  0.1628 -0.7097  0.4366
  604SOL    HW1 2596   4.399   3.005   3.526 -0.7808 -0.9147  0.0438
  604SOL    HW2 2597   4.449   2.948   3.395  0.9773 -0.5947  0.5628
  605SOL     OW 2598   4.615   3.738   0.820  0.1497 -0.8143 -0.2188
  605SOL    HW1 2599   4.681   3.706   0.881 -0.5835  0.4413  1.2797
  605SOL    HW2 2600   4.661   3.801   0.765  0.6767 -1.4835 -0.5360
  606SOL     OW 2601   5.499   2.803   2.946  0.4660 -0.1104 -0.0326
  606SOL    HW1 2602   5.539   2.890   2.948 -1.9613  1.0992 -2.1973
  606SOL    HW2 2603   5.493   2.781   2.853 -1.9049 -1.1524  0.3333
  607SOL     OW 2604   4.986   2.023   1.941 -0.7679  0.3891  0.7899
  607SOL    HW1 2605   5.076   2.054   1.949 -0.6570  0.0757  0.7498
  607SOL    HW2 2606   4.990   1.930   1.962 -0.4894 -0.4146 -2.5960
  608SOL     OW 2607   2.935   4.267   2.614  0.4255 -0.5729 -0.1588
  608SOL    HW1 2608   2.993   4.322   2.561  0.9219 -1.5617 -0.6504
  608SOL    HW2 2609   2.855   4.319   2.624 -0.3005 -1.0101 -3.2183
  609SOL     OW 2610   4.399   4.557   1.246 -0.2334  0.3562 -0.2206
  609SOL    HW1 2611   4.325   4.551   1.186 -1.5568 -0.3341  1.4396
  609SOL    HW2 2612   4.381   4.635   1.298  0.7001  0.7235 -0.4386
  610SOL     OW 2613   5.346   0.206   2.994 -0.5743  0.1803 -0.2712
  610SOL    HW1 2614   5.377   0.156   3.070  0.3131  0.8742 -0.1676
  610SOL    HW2 2615   5.252   0.214   3.007 -0.5353 -0.3523  0.3653
  611SOL     OW 2616   3.798   1.970   3.153  0.2367  0.1154 -0.5964
  611SOL    HW1 2617   3.705   1.986   3.165 -0.0942 -0.5427 -2.1391
  611SOL    HW2 2618   3.837   2.057   3.147 -0.7182  0.4206 -2.9516
  612SOL     OW 2619   3.967   3.206   2.343 -0.0340  0.2709  0.5528
  612SOL    HW1 2620   4.033   3.269   2.372 -0.0683 -0.2722  1.8580
  612SOL    HW2 2621   4.015   3.123   2.337  0.1655  0.5106 -1.7909
  613SOL     OW 2622   3.777   0.820   1.623 -0.0225  0.3358 -0.2761
  613SOL    HW1 2623   3.861   0.789   1.656 -0.3232 -1.0428 -0.7695
  613SOL    HW2 2624   3.728   0.740   1.603 -1.1699  1.1275 -0.7038
  614SOL     OW 2625   3.879   1.583   4.363  0.5521 -0.5084  0.2304
  614SOL    HW1 2626   3.952   1.613   4.416  0.5897 -1.7238  0.8929
  614SOL    HW2 2627   3.897   1.490   4.349 -0.3543 -0.5873 -0.4391
  615SOL     OW 2628   4.890   3.709   1.071  0.1656  0.0630  0.4405
  615SOL    HW1 2629   4.815   3.649   1.080  0.4235 -0.1449  1.2324
  615SOL    HW2 2630   4.862   3.789   1.116 -0.0880  0.4631 -0.4151
  616SOL     OW 2631   3.717   0.189   3.824  0.0845 -0.5391  0.0246
  616SOL    HW1 2632   3.811   0.203   3.818 -0.0537  0.7518  0.7924
  616SOL    HW2 2633   3.687   0.251   3.890 -1.3949 -0.4992 -0.6532
  617SOL     OW 2634   4.253   3.156   1.764 -0.5662  0.0231 -0.4029
  617SOL    HW1 2635   4.327   3.097   1.780 -1.5982 -1.3960 -0.7568
  617SOL    HW2 2636   4.216   3.125   1.681 -3.2040 -1.0428  1.1196
  618SOL     OW 2637   4.035   1.644   3.478 -0.4374  0.3522 -0.0407
  618SOL    HW1 2638   4.097   1.585   3.437 -1.2252 -0.6135  0.1352
  618SOL    HW2 2639   3.953   1.594   3.483 -1.2454  1.6141 -0.3195
  619SOL     OW 2640   2.496   2.340   3.677 -0.0050 -0.2080 -0.3488
  619SOL    HW1 2641   2.441   2.322   3.602  1.6227 -0.0621 -1.6209
  619SOL    HW2 2642   2.537   2.256   3.698  0.2221 -0.0582 -0.1883
  620SOL     OW 2643   3.959   1.628   2.214 -0.4538 -0.3091 -0.2682
  620SOL    HW1 2644   3.924   1.711   2.248  1.0738  0.0285  0.5417
  620SOL    HW2 2645   3.990   1.650   2.126  0.9128  0.2593  0.3382
  621SOL     OW 2646   3.844   0.478   2.336 -0.0864 -0.3161  0.5068
  621SOL    HW1 2647   3.798   0.539   2.393 -0.3589 -0.4377  0.4180
  621SOL    HW2 2648   3.868   0.405   2.393  2.3448  0.9388  1.1592
  622SOL     OW 2649   3.566   4.297   2.069  0.2532 -0.2222 -0.3091
  622SOL    HW1 2650   3.593   4.212   2.105 -0.3152 -1.2821 -2.2886
  622SOL    HW2 2651   3.481   4.314   2.111  0.8807 -0.0949  0.9248
  623SOL     OW 2652   4.426   1.156   3.792 -0.0422 -0.3435  0.8261
  623SOL    HW1 2653   4.472   1.221   3.739 -0.7574 -1.0856 -0.7354
  623SOL    HW2 2654   4.402   1.203   3.872  2.1664  0.4380  1.0649
  624SOL     OW 2655   5.119   5.218   2.996 -0.0041 -0.6748 -0.4838
  624SOL    HW1 2656   5.172   5.289   2.959 -1.1510 -0.1342 -1.1303
  624SOL    HW2 2657   5.175   5.178   3.062  1.0743  0.1131 -0.9066
  625SOL     OW 2658   4.294   3.707   2.768 -0.0054  0.1207 -0.1095
  625SOL    HW1 2659   4.287   3.639   2.834 -1.3343 -0.1142 -0.4709
  625SOL    HW2 2660   4.295   3.789   2.817 -0.6060 -0.0685  0.2285
  626SOL     OW 2661   4.764   0.571   3.614  0.3417 -0.1044 -0.2581
  626SOL    HW1 2662   4.811   0.491   3.589  0.2142  0.1314 -1.2786
  626SOL    HW2 2663   4.799   0.638   3.556  0.9959  0.7630  1.1033
  627SOL     OW 2664   4.634   4.117   3.113  0.7674 -0.3806  0.1840
  627SOL    HW1 2665   4.555   4.111   3.060  0.1962  1.7388  0.7780
  627SOL    HW2 2666   4.603   4.126   3.203  1.6764 -0.2302  0.4871
  628SOL     OW 2667   4.832   3.040   3.969 -0.7552  0.1947 -0.3604
  628SOL    HW1 2668   4.791   3.082   3.893 -1.0611  0.8430  0.1521
  628SOL    HW2 2669   4.877   3.111   4.014 -0.5303 -0.1976  0.0346
  629SOL     OW 2670   4.883   0.363   3.484  0.2223 -0.1855  0.9606
  629SOL    HW1 2671   4.956   0.383   3.425  0.1648 -0.9218  0.6390
  629SOL    HW2 2672   4.856   0.275   3.459 -1.7097  0.6231  0.1231
  630SOL     OW 2673   4.553   2.451   1.855  0.6912  0.2530 -0.2510
  630SOL    HW1 2674   4.477   2.489   1.899  1.8530  2.9237 -0.4114
  630SOL    HW2 2675   4.528   2.449   1.762  1.0009  1.7291 -0.3871
  631SOL     OW 2676   2.853   0.018   2.724 -0.4380 -0.5748  0.2702
  631SOL    HW1 2677   2.764   0.038   2.754 -0.8914 -2.4662  0.2097
  631SOL    HW2 2678   2.885  -0.048   2.785  0.9287  0.0887  0.2844
  632SOL     OW 2679   4.666   5.109   1.788 -0.2997 -0.3852  0.5486
  632SOL    HW1 2680   4.717   5.164   1.848 -0.8590  0.8050 -0.0719
  632SOL    HW2 2681   4.690   5.019   1.813  1.5775  0.1432  0.7306
  633SOL     OW 2682   4.271   2.179   3.047  0.1796 -0.1247 -0.3656
  633SOL    HW1 2683   4.261   2.230   3.127  1.8371  0.7027 -0.6559
  633SOL    HW2 2684   4.217   2.102   3.060 -1.9250  1.4229  0.3341
  634SOL     OW 2685   3.622   0.637   1.512  0.2462 -0.1057 -0.4861
  634SOL    HW1 2686   3.594   0.547   1.526 -2.5291  1.0711  2.0597
  634SOL    HW2 2687   3.565   0.669   1.441 -0.7876  0.4869  0.5945
  635SOL     OW 2688   3.514   0.688   4.342 -0.1193 -0.0696  0.3648
  635SOL    HW1 2689   3.528   0.773   4.385  2.1321 -0.2584  0.0711
  635SOL    HW2 2690   3.593   0.638   4.362 -0.5012 -1.3415 -1.2155
  636SOL     OW 2691   4.662   2.948   2.938  0.2856 -0.2836 -0.2933
  636SOL    HW1 2692   4.572   2.962   2.908  0.3134  0.4502 -0.0301
  636SOL    HW2 2693   4.715   3.001   2.879  0.1809  2.8388  2.3129
  637SOL     OW 2694   4.510   1.564   1.252  0.1442  0.4912  0.3042
  637SOL    HW1 2695   4.572   1.528   1.315  1.1798  1.4369 -0.1758
  637SOL    HW2 2696   4.452   1.490   1.231  0.1801  0.0026  1.8578
  638SOL     OW 2697   3.990   3.847   1.603 -0.2944  0.0003  0.4734
  638SOL    HW1 2698   3.929   3.787   1.646 -0.2366 -2.2516 -2.4652
  638SOL    HW2 2699   3.934   3.911   1.560 -0.4058  1.0929  2.2180
  639SOL     OW 2700   4.319   0.903   3.909  0.0163  0.1773 -0.6436
  639SOL    HW1 2701   4.386   0.848   3.950  1.9047  1.4917 -1.8091
  639SOL    HW2 2702   4.367   0.982   3.883 -2.1207  1.3580 -1.0966
  640SOL     OW 2703   3.142   4.551   3.264 -0.1913  0.3418 -0.4489
  640SOL    HW1 2704   3.093   4.480   3.223 -1.8093  1.5146 -0.6258
  640SOL    HW2 2705   3.187   4.595   3.192  0.7785 -0.4633 -0.3442
  641SOL     OW 2706   3.889   0.612   3.529  0.3135  0.3761  0.7733
  641SOL    HW1 2707   3.860   0.647   3.613  0.8435  3.2220 -0.1896
  641SOL    HW2 2708   3.977   0.649   3.517  1.1985 -1.8728  0.0272
  642SOL     OW 2709   4.597   2.920   2.293 -0.1705 -0.2443 -0.2609
  642SOL    HW1 2710   4.631   2.846   2.244  0.9261  1.5047 -2.1907
  642SOL    HW2 2711   4.504   2.924   2.270 -0.2487 -1.0718 -0.0778
  643SOL     OW 2712   4.208   3.554   1.095  0.2147  1.2533 -0.1311
  643SOL    HW1 2713   4.295   3.541   1.056  0.5459 -0.5589  1.1577
  643SOL    HW2 2714   4.148   3.508   1.036  0.6744 -1.1891  1.2321
  644SOL     OW 2715   4.179   5.183   1.942 -0.5768 -0.2338 -0.4795
  644SOL    HW1 2716   4.149   5.220   1.858 -0.4868  1.2130  0.1052
  644SOL    HW2 2717   4.099   5.160   1.988 -0.6567 -0.1522 -0.5773
  645SOL     OW 2718   5.040   2.050   1.651 -0.2024  0.0459  0.3226
  645SOL    HW1 2719   5.009   2.000   1.575 -3.1348  3.2794 -0.7515
  645SOL    HW2 2720   4.978   2.029   1.721 -1.3144  1.8556 -0.0664
  646SOL     OW 2721   5.040   0.803   2.533 -0.1261  0.1419  0.1734
  646SOL    HW1 2722   5.059   0.884   2.485  2.1852  2.1219  4.1373
  646SOL    HW2 2723   5.092   0.736   2.489  0.3958  1.4698 -1.2872
  647SOL     OW 2724   3.216   1.623   2.829  0.0665  0.2089  0.3759
  647SOL    HW1 2725   3.267   1.669   2.762  0.6569  0.2787  0.8579
  647SOL    HW2 2726   3.274   1.553   2.859  0.3756  1.0461  1.8002
  648SOL     OW 2727   4.223   2.366   3.750 -0.4076  0.0503  0.2002
  648SOL    HW1 2728   4.242   2.447   3.703 -0.2352 -0.1739 -0.1272
  648SOL    HW2 2729   4.143   2.384   3.799 -1.0807  0.0174 -0.8627
  649SOL     OW 2730   0.237   3.259   1.790 -0.1890 -0.8198 -0.9887
  649SOL    HW1 2731   0.262   3.331   1.849  3.5738 -2.7996 -0.0258
  649SOL    HW2 2732   0.230   3.301   1.704 -1.6989  1.3541  0.1296
  650SOL     OW 2733   5.111   4.253   3.654 -0.3096 -0.4490 -0.4291
  650SOL    HW1 2734   5.147   4.237   3.566  0.3414 -0.3709 -0.1740
  650SOL    HW2 2735   5.132   4.174   3.703  0.6213  0.1140  0.0830
  651SOL     OW 2736   5.216   4.011   2.451 -0.2682 -0.4059 -0.3056
  651SOL    HW1 2737   5.295   3.960   2.433 -0.0862  0.0349 -0.7436
  651SOL    HW2 2738   5.145   3.959   2.415 -0.0552 -0.2240 -0.9877
  652SOL     OW 2739   4.775   2.533   1.966  0.1611  0.6420  0.4334
  652SOL    HW1 2740   4.765   2.569   2.054 -0.3286 -1.4406  1.2624
  652SOL    HW2 2741   4.687   2.507   1.940  0.3024  1.2658 -0.6946
  653SOL     OW 2742   4.613   2.628   2.929  0.5103  0.2566  0.5534
  653SOL    HW1 2743   4.524   2.633   2.894 -0.9198 -0.5595  3.8957
  653SOL    HW2 2744   4.645   2.718   2.924 -0.0197  0.3658 -1.7525
  654SOL     OW 2745   4.043   3.461   2.658  0.8928 -0.2149  0.5374
  654SOL    HW1 2746   4.082   3.389   2.609  0.9080  1.1104 -1.4301
  654SOL    HW2 2747   4.081   3.540   2.620 -1.9738  0.9999  0.0962
  655SOL     OW 2748   3.902   0.758   2.617  0.3841  0.6373 -0.0106
  655SOL    HW1 2749   3.936   0.841   2.584  2.2280  0.0682  0.3926
  655SOL    HW2 2750   3.820   0.745   2.569  0.6515  2.1140 -0.9165
  656SOL     OW 2751   4.390   2.751   3.133  0.5689  0.0701  0.3889
  656SOL    HW1 2752   4.388   2.679   3.196 -1.0255  0.2481  0.5538
  656SOL    HW2 2753   4.347   2.716   3.055  1.2741  0.3097 -0.1097
  657SOL     OW 2754   3.764   2.151   2.154  0.1907 -0.5911 -0.5102
  657SOL    HW1 2755   3.831   2.186   2.213 -1.7711  2.1794  0.1721
  657SOL    HW2 2756   3.813   2.123   2.076  2.2453  0.4305  0.3646
  658SOL     OW 2757   5.222   2.880   2.886 -0.4958 -0.5381  0.1376
  658SOL    HW1 2758   5.313   2.857   2.904 -0.5670  0.2243  1.5282
  658SOL    HW2 2759   5.177   2.796   2.878  0.0576 -0.9111  0.8958
  659SOL     OW 2760   4.990   1.248   1.985  0.0168 -0.4353 -0.1139
  659SOL    HW1 2761   4.945   1.329   2.009  0.3558 -1.2782  3.7880
  659SOL    HW2 2762   4.937   1.178   2.023  0.8817 -1.9206 -1.5526
  660SOL     OW 2763   4.881   0.572   1.176  0.0712 -0.2837 -0.9743
  660SOL    HW1 2764   4.915   0.502   1.232 -0.9746 -1.6624 -2.0186
  660SOL    HW2 2765   4.955   0.595   1.119  0.6680  0.0470 -0.0815
  661SOL     OW 2766   5.256   3.687   3.168  0.3172  0.3211 -0.2291
  661SOL    HW1 2767   5.236   3.593   3.168  1.7773 -0.0057  0.9963
  661SOL    HW2 2768   5.347   3.692   3.139 -0.3589  1.5229 -2.2510
  662SOL     OW 2769   3.196   5.584   2.490 -0.0412 -0.8242  0.0020
  662SOL    HW1 2770   3.184   5.612   2.399 -1.8254 -0.1582  0.4239
  662SOL    HW2 2771   3.107   5.580   2.526  0.8125  1.9331  2.6290
  663SOL     OW 2772   4.245   1.462   1.066 -0.4534  0.4832  0.3959
  663SOL    HW1 2773   4.164   1.423   1.032  1.4625 -2.4351 -0.9808
  663SOL    HW2 2774   4.297   1.482   0.988  0.0523  2.6933  1.2490
  664SOL     OW 2775   5.087   3.518   3.439 -0.6788 -0.9560  0.5655
  664SOL    HW1 2776   5.050   3.493   3.524 -0.6730 -2.5686  0.1126
  664SOL    HW2 2777   5.098   3.435   3.393 -0.1462 -0.1366 -0.7984
  665SOL     OW 2778   3.717   0.647   3.312 -0.1337  0.7936  0.3662
  665SOL    HW1 2779   3.680   0.561   3.289  2.5331  0.2430 -2.2004
  665SOL    HW2 2780   3.765   0.631   3.393  0.1616 -0.1078  0.0251
  666SOL     OW 2781   5.255   1.607   3.240 -0.3905  0.0359 -0.1176
  666SOL    HW1 2782   5.223   1.655   3.316 -0.0107  0.6544 -0.3457
  666SOL    HW2 2783   5.222   1.518   3.252 -1.2645  0.3974  0.2151
  667SOL     OW 2784   4.454   3.355   2.040  0.3615  0.1809 -0.3276
  667SOL    HW1 2785   4.388   3.393   2.098  0.5245 -0.6118  0.3912
  667SOL    HW2 2786   4.413   3.355   1.954 -1.0792 -1.4430  0.3148
  668SOL     OW 2787   4.879   1.083   2.666  0.2624 -0.4534  0.3938
  668SOL    HW1 2788   4.841   1.116   2.585  0.9868 -0.3132  0.1097
  668SOL    HW2 2789   4.911   1.161   2.711  0.1620 -0.5651  0.6606
  669SOL     OW 2790   3.828   1.866   2.246  1.2116 -0.3531 -0.5591
  669SOL    HW1 2791   3.891   1.915   2.193 -0.0076 -0.6598 -2.3559
  669SOL    HW2 2792   3.786   1.932   2.301  2.2728  0.0306 -0.2156
  670SOL     OW 2793   4.089   3.690   2.470  0.0137  0.3229  0.6022
  670SOL    HW1 2794   4.072   3.784   2.469 -0.6959  0.1986 -0.0353
  670SOL    HW2 2795   4.054   3.659   2.386  2.4370 -0.1402 -0.2677
  671SOL     OW 2796   4.009   1.512   2.787  0.4733  0.7652 -1.6219
  671SOL    HW1 2797   3.936   1.519   2.725 -0.6169  1.5207 -0.2888
  671SOL    HW2 2798   4.024   1.418   2.797 -1.8274  0.5044 -0.2268
  672SOL     OW 2799   4.423   5.338   1.714 -0.1010 -0.2646  0.4433
  672SOL    HW1 2800   4.388   5.383   1.637 -3.0440  0.3605  2.0517
  672SOL    HW2 2801   4.512   5.372   1.724 -0.7199  1.8660 -0.9679
  673SOL     OW 2802   5.626   3.018   2.253  0.3459 -0.0985 -0.2766
  673SOL    HW1 2803   5.538   2.991   2.280  0.0958  0.2130 -0.7597
  673SOL    HW2 2804   5.658   3.073   2.324 -0.2704  0.6467 -0.5760
  674SOL     OW 2805   4.156   5.262   2.273 -0.2879  0.1458  0.3172
  674SOL    HW1 2806   4.215   5.297   2.206  0.7508 -1.1939  0.5158
  674SOL    HW2 2807   4.076   5.239   2.225  0.2869 -0.3993 -0.3928
  675SOL     OW 2808   3.429   4.074   2.313 -0.7109 -0.1715  0.0744
  675SOL    HW1 2809   3.420   4.050   2.220 -1.3935  1.5651 -0.3390
  675SOL    HW2 2810   3.451   3.992   2.357  0.2419 -0.9108 -1.7126
  676SOL     OW 2811   5.251   2.836   1.092 -0.0296  0.3035 -0.3441
  676SOL    HW1 2812   5.342   2.804   1.097 -0.7205 -1.5449  1.0218
  676SOL    HW2 2813   5.229   2.859   1.182 -0.6234  1.6244 -0.8246
  677SOL     OW 2814   0.008   2.592   1.829 -0.5187  0.6740 -0.5979
  677SOL    HW1 2815   0.057   2.565   1.751 -0.3241 -0.2626 -0.1577
  677SOL    HW2 2816   0.038   2.682   1.847  0.5644  0.3375 -0.7061
  678SOL     OW 2817   5.044   3.808   3.425  0.6724  0.6298 -0.2261
  678SOL    HW1 2818   5.053   3.713   3.427  3.0258  0.8278  2.1241
  678SOL    HW2 2819   5.094   3.835   3.348  2.1998  0.1115  0.5560
  679SOL     OW 2820   3.981   3.734   2.028  0.5253 -0.2094 -0.2779
  679SOL    HW1 2821   3.954   3.667   1.966 -0.6874  0.3147 -0.3357
  679SOL    HW2 2822   3.925   3.720   2.105  0.2161  0.7456 -0.3109
  680SOL     OW 2823   4.606   3.509   3.562 -0.2755 -0.1981  0.1339
  680SOL    HW1 2824   4.665   3.578   3.532 -0.6733 -0.0975 -0.4188
  680SOL    HW2 2825   4.617   3.508   3.658  2.9295 -2.2394 -0.1799
  681SOL     OW 2826   4.038   2.302   2.513  0.3624 -0.2452  0.9017
  681SOL    HW1 2827   3.970   2.303   2.446  0.6959  2.5852  0.5251
  681SOL    HW2 2828   4.025   2.384   2.561  3.0160 -0.0018  1.2886
  682SOL     OW 2829   4.130   2.471   2.139 -0.1075 -0.0094  0.6053
  682SOL    HW1 2830   4.176   2.530   2.079  1.7193 -0.6695  1.3067
  682SOL    HW2 2831   4.058   2.524   2.174  1.4022  1.7917  1.1162
  683SOL     OW 2832   5.230   0.254   2.465  0.7664 -0.8637  0.5068
  683SOL    HW1 2833   5.310   0.278   2.418  0.4574  1.0908  0.9535
  683SOL    HW2 2834   5.259   0.242   2.556  0.7592 -1.3203  0.4495
  684SOL     OW 2835   3.316   0.598   3.447 -0.7354  0.1650 -0.0722
  684SOL    HW1 2836   3.358   0.676   3.412  0.3767  0.2051  1.3033
  684SOL    HW2 2837   3.301   0.618   3.540  0.7365 -1.7073  0.6052
  685SOL     OW 2838   4.135   4.305   2.365 -0.0710 -0.2308  0.0420
  685SOL    HW1 2839   4.071   4.353   2.313  0.1526 -0.9968 -0.9464
  685SOL    HW2 2840   4.124   4.213   2.338  1.8680 -0.2931 -0.5835
  686SOL     OW 2841   0.287   2.522   5.557 -0.1018  0.1348 -0.5131
  686SOL    HW1 2842   0.332   2.504   5.639  0.4162  1.0931 -0.5842
  686SOL    HW2 2843   0.355   2.555   5.498 -0.6625  0.4496 -0.9945
  687SOL     OW 2844   4.212   5.082   3.727  0.6470  0.5740 -0.0637
  687SOL    HW1 2845   4.120   5.108   3.723  0.8022  1.4210  1.2357
  687SOL    HW2 2846   4.220   5.038   3.811  1.8386  2.2756  0.7416
  688SOL     OW 2847   3.956   0.531   2.984  0.1768  0.0998 -0.1200
  688SOL    HW1 2848   3.969   0.456   3.042  0.4991 -2.2185 -3.0738
  688SOL    HW2 2849   3.862   0.547   2.986  0.2029  0.1997  1.1629
  689SOL     OW 2850   4.073   2.715   2.357 -0.6564  0.3902 -0.2066
  689SOL    HW1 2851   4.130   2.767   2.301  2.7955  0.3099  3.0111
  689SOL    HW2 2852   4.044   2.776   2.425 -0.6670 -0.6669  0.7568
  690SOL     OW 2853   4.376   3.090   3.742  0.0820 -0.0944  0.5124
  690SOL    HW1 2854   4.469   3.108   3.732  0.6895 -3.3800 -0.3368
  690SOL    HW2 2855   4.372   3.022   3.810 -1.7201  0.2360  0.7545
  691SOL     OW 2856   4.597   4.471   1.456 -0.5481  1.0494  0.4637
  691SOL    HW1 2857   4.583   4.439   1.545 -0.0494 -0.1893  0.1032
  691SOL    HW2 2858   4.510   4.491   1.423 -0.7127  1.7560  1.3134
  692SOL     OW 2859   3.343   0.066   3.053  0.9403 -0.6411  0.0589
  692SOL    HW1 2860   3.415   0.028   3.102  0.8277 -0.1493  0.6006
  692SOL    HW2 2861   3.383   0.098   2.972  1.4416  0.2040  0.6330
  693SOL     OW 2862   3.377   5.700   3.722 -0.4073  0.6096  0.3234
  693SOL    HW1 2863   3.458   5.701   3.773  0.5251  1.3028 -1.1581
  693SOL    HW2 2864   3.345   5.610   3.731  1.1227  0.0088 -0.0240
  694SOL     OW 2865   2.727   3.661   2.431 -0.1560 -0.5962  0.8374
  694SOL    HW1 2866   2.699   3.577   2.394  1.7575 -0.2270 -1.5714
  694SOL    HW2 2867   2.648   3.698   2.469 -1.4077 -2.6942  0.3488
  695SOL     OW 2868   0.443   2.754   2.224  0.1424 -0.3703 -0.9292
  695SOL    HW1 2869   0.524   2.772   2.176 -0.3015 -1.1646 -2.0135
  695SOL    HW2 2870   0.383   2.722   2.157 -1.6846  2.0281 -0.4738
  696SOL     OW 2871   2.860   4.265   4.054 -0.4608  0.6156 -0.1687
  696SOL    HW1 2872   2.949   4.230   4.056  0.2197  2.3463  0.3255
  696SOL    HW2 2873   2.806   4.189   4.030  0.8144 -1.0807  2.0982
  697SOL     OW 2874   3.927   0.347   3.932 -0.4246 -0.1193 -0.2700
  697SOL    HW1 2875   3.978   0.405   3.876 -1.4770  0.6747 -0.4266
  697SOL    HW2 2876   3.914   0.396   4.013 -2.7259  0.5689 -1.0125
  698SOL     OW 2877   3.836   3.691   2.279 -0.2392 -0.2811 -0.1467
  698SOL    HW1 2878   3.797   3.777   2.268 -0.6482 -0.1621  2.0309
  698SOL    HW2 2879   3.789   3.652   2.353  1.9925 -1.1725  0.8444
  699SOL     OW 2880   3.415   0.467   4.166  0.2986 -0.1229 -0.3746
  699SOL    HW1 2881   3.444   0.446   4.255  4.1770 -1.0294 -1.7396
  699SOL    HW2 2882   3.374   0.553   4.174 -0.0460 -0.4894  2.4005
  700SOL     OW 2883   3.955   2.214   3.175 -0.3668  0.6387  0.2327
  700SOL    HW1 2884   3.877   2.259   3.141  0.2571  1.5306 -0.0403
  700SOL    HW2 2885   4.016   2.285   3.195  0.5838 -0.0837 -0.0788
  701SOL     OW 2886   5.095   5.053   2.429  1.1570 -0.5305  0.4316
  701SOL    HW1 2887   5.047   5.094   2.501  1.8624  0.3993  0.3736
  701SOL    HW2 2888   5.045   4.973   2.410  0.3522 -0.2257  1.2201
  702SOL     OW 2889   3.798   1.638   3.743 -0.3399 -0.3227 -0.7330
  702SOL    HW1 2890   3.765   1.726   3.757 -0.9699 -0.2062 -2.7400
  702SOL    HW2 2891   3.867   1.648   3.677  0.2250 -1.2059 -0.2837
  703SOL     OW 2892   3.978   5.049   1.437 -0.0840  0.6961  0.0129
  703SOL    HW1 2893   3.998   4.996   1.514 -2.0988  1.0488  0.8162
  703SOL    HW2 2894   3.959   5.136   1.471 -1.8224  0.6508 -0.7544
  704SOL     OW 2895   4.159   5.055   2.501  0.1561 -0.4150 -0.5052
  704SOL    HW1 2896   4.065   5.045   2.483 -0.0271 -3.1267  1.5311
  704SOL    HW2 2897   4.202   5.009   2.429 -0.0919  0.5127 -1.2467
  705SOL     OW 2898   0.162   3.227   2.187 -0.6162  0.3850 -0.3801
  705SOL    HW1 2899   0.171   3.183   2.271  1.3340  2.2084  0.4072
  705SOL    HW2 2900   0.087   3.285   2.199 -1.0416 -0.1732 -0.2919
  706SOL     OW 2901   0.130   3.148   2.435  0.3471 -0.8691  0.2328
  706SOL    HW1 2902   0.064   3.105   2.490  0.4851 -0.8614  0.4038
  706SOL    HW2 2903   0.206   3.157   2.492  0.4379 -0.7221  0.0869
  707SOL     OW 2904   3.440   0.736   2.728  0.1241  0.0232 -0.2524
  707SOL    HW1 2905   3.424   0.643   2.747  1.3164 -0.1524 -0.0222
  707SOL    HW2 2906   3.497   0.764   2.800  1.9410  0.2428 -1.7441
  708SOL     OW 2907   5.271   3.271   2.960  0.0431 -0.3358  0.3183
  708SOL    HW1 2908   5.296   3.226   3.040 -2.2444 -0.3097  1.0753
  708SOL    HW2 2909   5.235   3.355   2.989 -3.7507 -1.5959 -0.4367
  709SOL     OW 2910   5.212   4.754   3.298 -0.6090 -0.1058 -0.3426
  709SOL    HW1 2911   5.216   4.849   3.312  0.6523  0.1648 -2.3865
  709SOL    HW2 2912   5.159   4.722   3.371 -0.1922  2.0391  0.9587
  710SOL     OW 2913   5.722   2.571   2.912  0.1004 -0.1404 -0.6780
  710SOL    HW1 2914   5.748   2.648   2.862 -0.1013  0.8918  0.7721
  710SOL    HW2 2915   5.728   2.598   3.004 -3.4336 -0.6826 -0.1820
  711SOL     OW 2916   4.105   2.399   2.847 -0.2791  0.6872  0.3394
  711SOL    HW1 2917   4.017   2.435   2.836 -0.5050  0.2753  0.7589
  711SOL    HW2 2918   4.091   2.315   2.890  0.3043  0.5092  0.1820
  712SOL     OW 2919   4.847   0.352   2.739 -0.0851 -0.3026  0.3260
  712SOL    HW1 2920   4.773   0.322   2.686  0.2297  0.0487 -0.3177
  712SOL    HW2 2921   4.924   0.338   2.683  0.3743 -0.9757  1.1144
  713SOL     OW 2922   1.415   1.072   4.041 -0.3704  0.3455  0.1453
  713SOL    HW1 2923   1.333   1.028   4.019  0.0744 -0.8670  0.8420
  713SOL    HW2 2924   1.394   1.128   4.116 -0.1889 -1.2811  1.4390
  714SOL     OW 2925   4.874   1.225   3.029 -0.2263 -0.0333 -0.0035
  714SOL    HW1 2926   4.894   1.144   3.075 -1.8420 -1.0157 -1.0082
  714SOL    HW2 2927   4.902   1.294   3.089  1.1483 -1.3131  0.8616
  715SOL     OW 2928   2.937   4.474   3.083 -0.3466 -0.5544 -0.2177
  715SOL    HW1 2929   2.910   4.412   3.016 -0.3733  1.2306 -1.9091
  715SOL    HW2 2930   2.874   4.461   3.154 -2.2640 -0.3475 -1.8218
  716SOL     OW 2931   5.415   3.917   1.957  0.0775 -0.0234  0.6250
  716SOL    HW1 2932   5.320   3.912   1.950  0.2191 -2.3095 -0.2630
  716SOL    HW2 2933   5.434   3.900   2.049 -0.4437  2.1842  1.1553
  717SOL     OW 2934   4.901   0.853   1.962  0.3147 -0.4071 -0.2411
  717SOL    HW1 2935   4.924   0.760   1.960 -0.6044 -0.6210 -3.6924
  717SOL    HW2 2936   4.978   0.898   1.928 -0.4934 -0.2037 -1.8022
  718SOL     OW 2937   4.857   5.630   2.229 -0.4909 -0.3657 -0.7041
  718SOL    HW1 2938   4.908   5.554   2.256  1.8925  1.1947 -0.6245
  718SOL    HW2 2939   4.899   5.659   2.148 -1.4129  0.8061 -0.7721
  719SOL     OW 2940   3.890   0.940   1.390  0.5430 -0.6683  0.1710
  719SOL    HW1 2941   3.875   0.896   1.474 -0.6112 -0.0630  0.2796
  719SOL    HW2 2942   3.805   0.940   1.347  0.3034  2.3621  0.6019
  720SOL     OW 2943   3.329   4.893   2.767  0.1116  0.2184  0.0574
  720SOL    HW1 2944   3.394   4.932   2.708  0.5692 -1.3214 -0.4830
  720SOL    HW2 2945   3.278   4.967   2.799  0.1164  1.1154 -1.9688
  721SOL     OW 2946   5.178   1.342   2.823  0.3759 -0.3388 -0.0052
  721SOL    HW1 2947   5.092   1.321   2.859  0.5156 -1.0481 -0.0788
  721SOL    HW2 2948   5.213   1.409   2.881 -0.1239 -0.2250  0.1678
  722SOL     OW 2949   3.384   5.672   2.264 -0.0356 -0.3881 -0.0731
  722SOL    HW1 2950   3.361   5.589   2.222 -0.5773  0.9696 -2.5477
  722SOL    HW2 2951   3.332   5.738   2.218  2.3492  1.6773  0.0650
  723SOL     OW 2952   3.128   1.142   2.218  0.0352  0.4038 -0.0358
  723SOL    HW1 2953   3.138   1.139   2.123  0.4220 -0.6342  0.0243
  723SOL    HW2 2954   3.218   1.133   2.251 -0.3516 -1.9568  0.4507
  724SOL     OW 2955   4.937   1.618   3.293 -0.2170 -0.2797  0.2236
  724SOL    HW1 2956   4.913   1.586   3.206 -1.3902 -1.2619  0.8921
  724SOL    HW2 2957   4.895   1.704   3.300 -2.5754 -1.4332  0.8942
  725SOL     OW 2958   3.247   4.928   3.205 -0.2101 -0.3124 -0.1929
  725SOL    HW1 2959   3.325   4.873   3.204 -0.1799 -0.3270  1.5786
  725SOL    HW2 2960   3.193   4.893   3.276 -1.7378 -0.1703 -1.2505
  726SOL     OW 2961   4.524   4.528   3.806 -0.2401 -0.8018  0.1665
  726SOL    HW1 2962   4.525   4.508   3.900 -0.9393  0.6972  0.5124
  726SOL    HW2 2963   4.444   4.485   3.774 -1.4446  0.9334  0.7959
  727SOL     OW 2964   3.408   4.393   1.480  0.3588  0.3503  0.1874
  727SOL    HW1 2965   3.341   4.442   1.433 -0.1367 -1.2708 -0.8266
  727SOL    HW2 2966   3.457   4.347   1.412  0.6125 -0.8219  1.1452
  728SOL     OW 2967   4.599   0.397   3.417 -0.5407  0.4595 -0.2248
  728SOL    HW1 2968   4.631   0.369   3.502 -1.3931 -0.7807 -0.2925
  728SOL    HW2 2969   4.591   0.492   3.424  0.9755  0.5449  0.5138
  729SOL     OW 2970   4.291   3.026   2.743  0.5443 -0.2023  0.1633
  729SOL    HW1 2971   4.275   3.049   2.652  1.7330 -0.7625 -0.1890
  729SOL    HW2 2972   4.251   2.941   2.755  2.5830 -1.2917 -0.5357
  730SOL     OW 2973   4.079   4.071   1.101  0.6060 -0.1806 -0.0482
  730SOL    HW1 2974   3.989   4.096   1.078  0.9815 -0.0332 -1.4037
  730SOL    HW2 2975   4.100   4.124   1.177 -0.4799 -0.2549  0.3163
  731SOL     OW 2976   4.201   5.212   3.341 -0.3999  0.4059  0.3218
  731SOL    HW1 2977   4.129   5.265   3.374  1.1537  2.5082  0.4112
  731SOL    HW2 2978   4.258   5.199   3.417 -0.4149 -0.8173  0.1345
  732SOL     OW 2979   4.798   3.557   3.268 -0.4846  0.1630  0.4125
  732SOL    HW1 2980   4.844   3.574   3.185 -0.2213 -0.8531  0.3419
  732SOL    HW2 2981   4.710   3.532   3.241 -0.4780  0.0940  0.4591
  733SOL     OW 2982   5.353   3.061   3.135 -0.6145  0.3227  0.9131
  733SOL    HW1 2983   5.273   3.082   3.184 -1.1402 -1.9403  1.0660
  733SOL    HW2 2984   5.372   2.970   3.158  2.3902  1.0409  1.3638
  734SOL     OW 2985   4.837   4.699   3.170  0.3547  0.2533  0.2729
  734SOL    HW1 2986   4.932   4.688   3.163  0.4498  0.7980  0.6072
  734SOL    HW2 2987   4.810   4.632   3.232  0.4193 -0.3782 -0.3883
  735SOL     OW 2988   2.829   4.892   3.542 -0.2446  0.5152 -0.6241
  735SOL    HW1 2989   2.894   4.830   3.510 -0.0341  0.3148  0.1770
  735SOL    HW2 2990   2.752   4.838   3.561 -0.6123  0.7344 -1.4508
  736SOL     OW 2991   3.421   5.322   3.543  0.4260  0.8964 -0.8314
  736SOL    HW1 2992   3.379   5.384   3.602  1.5496  1.6829 -0.8332
  736SOL    HW2 2993   3.492   5.284   3.594 -0.4285 -0.6230 -0.7393
  737SOL     OW 2994   5.619   3.313   1.910 -0.5834  0.3748 -0.7536
  737SOL    HW1 2995   5.603   3.219   1.914 -0.5685  0.3718 -0.7705
  737SOL    HW2 2996   5.573   3.348   1.987  0.7981  0.1545  0.1879
  738SOL     OW 2997   3.424   1.910   3.512  0.1630  0.4869  0.1011
  738SOL    HW1 2998   3.420   2.000   3.481 -1.6179  0.1025 -0.8698
  738SOL    HW2 2999   3.447   1.858   3.434 -1.2112 -0.1428  0.0961
  739SOL     OW 3000   3.953   5.490   1.953  0.3045 -0.3017 -0.0246
  739SOL    HW1 3001   3.999   5.493   2.037  0.9641 -2.3364 -0.2676
  739SOL    HW2 3002   4.009   5.540   1.894  0.9239 -0.6312  0.2699
  740SOL     OW 3003   2.758   0.751   2.835 -0.5837  0.7200  0.1961
  740SOL    HW1 3004   2.787   0.663   2.812  0.0666  0.8680  0.4201
  740SOL    HW2 3005   2.677   0.738   2.883 -0.5064  0.2435  0.1988
  741SOL     OW 3006   4.773   4.540   3.398  0.1717 -0.1744  0.2478
  741SOL    HW1 3007   4.748   4.582   3.481  1.9936 -0.1569  0.8099
  741SOL    HW2 3008   4.697   4.486   3.376  0.3900 -1.6812  2.9396
  742SOL     OW 3009   4.061   2.177   3.493 -0.0557 -0.6503  0.0454
  742SOL    HW1 3010   4.091   2.205   3.579  0.5846  1.9594 -0.9808
  742SOL    HW2 3011   4.035   2.086   3.505  1.7492 -0.8809  2.5647
  743SOL     OW 3012   3.707   0.054   2.732 -0.0509 -0.0672 -0.3440
  743SOL    HW1 3013   3.686  -0.007   2.661 -0.2299  0.5082 -0.7818
  743SOL    HW2 3014   3.626   0.102   2.748 -0.3578 -0.9950  1.0461
  744SOL     OW 3015   4.784   3.629   1.783  0.6288  0.7274  0.7347
  744SOL    HW1 3016   4.732   3.556   1.751 -0.5809  1.6201  0.5974
  744SOL    HW2 3017   4.806   3.606   1.873 -2.2529  1.4795  1.6807
  745SOL     OW 3018   2.986   4.692   2.368 -0.0042  0.3877 -0.8602
  745SOL    HW1 3019   2.945   4.712   2.284  0.2806 -0.1531 -1.1295
  745SOL    HW2 3020   2.967   4.769   2.423 -0.3604  0.6530 -1.3512
  746SOL     OW 3021   4.529   3.642   1.969  0.0055  0.9843 -0.1837
  746SOL    HW1 3022   4.475   3.679   2.039 -0.7010 -1.2521  0.5048
  746SOL    HW2 3023   4.511   3.548   1.972  0.6477  0.7333 -2.8064
  747SOL     OW 3024   4.364   4.714   1.677 -0.0021  0.9590 -0.9315
  747SOL    HW1 3025   4.362   4.809   1.665  0.4553  0.8755 -1.6971
  747SOL    HW2 3026   4.272   4.687   1.675 -0.0063  1.1028 -2.9872
  748SOL     OW 3027   2.610   4.157   3.138  0.1568  0.4485  0.1164
  748SOL    HW1 3028   2.551   4.086   3.161 -0.8766  1.5644  0.9757
  748SOL    HW2 3029   2.632   4.198   3.222  1.4786  0.5873 -0.2780
  749SOL     OW 3030   3.700   4.441   1.371  0.1912  0.0469 -0.2395
  749SOL    HW1 3031   3.608   4.467   1.369  0.0710 -0.0997  1.9018
  749SOL    HW2 3032   3.748   4.524   1.366 -0.0711  0.2027 -0.2272
  750SOL     OW 3033   4.548   0.779   2.277  0.2240 -0.0062  0.0689
  750SOL    HW1 3034   4.622   0.718   2.272  0.7776  0.7027 -0.4910
  750SOL    HW2 3035   4.527   0.798   2.186  0.1839  0.7959  0.2461
  751SOL     OW 3036   3.218   4.672   2.614 -0.5656  0.1728  0.5103
  751SOL    HW1 3037   3.143   4.677   2.673 -0.5897  3.5747  0.2908
  751SOL    HW2 3038   3.269   4.750   2.634  0.0648  0.7820 -3.1382
  752SOL     OW 3039   4.502   1.683   3.575  0.3614 -0.4190  0.7506
  752SOL    HW1 3040   4.592   1.657   3.592  0.9993  2.1272  1.4546
  752SOL    HW2 3041   4.450   1.607   3.599  2.2728 -1.6610  1.0288
  753SOL     OW 3042   5.038   5.438   2.270 -0.3327  0.3514 -0.3858
  753SOL    HW1 3043   5.067   5.350   2.294  1.0747  1.2135  1.1745
  753SOL    HW2 3044   5.119   5.487   2.257 -1.1069  1.3057 -1.6834
  754SOL     OW 3045   3.233   5.091   1.874  0.4733  0.2614 -0.3507
  754SOL    HW1 3046   3.312   5.139   1.901 -0.3259  1.8657 -0.7975
  754SOL    HW2 3047   3.258   5.049   1.792  0.8203  0.9475 -0.6087
  755SOL     OW 3048   0.270   2.679   2.029 -0.0301  0.1168  0.1869
  755SOL    HW1 3049   0.236   2.589   2.032  0.4963 -0.1410 -1.1107
  755SOL    HW2 3050   0.208   2.730   2.081 -0.0637 -1.0846  1.3560
  756SOL     OW 3051   5.185   5.656   3.462 -0.3056  0.2332  0.3757
  756SOL    HW1 3052   5.217   5.575   3.422 -0.2844 -1.6942  4.1036
  756SOL    HW2 3053   5.090   5.653   3.448 -0.4750 -1.1489  1.6616
  757SOL     OW 3054   2.784   1.157   2.400 -0.0945  0.3209  0.1416
  757SOL    HW1 3055   2.707   1.188   2.351  0.2213 -1.0982 -1.3235
  757SOL    HW2 3056   2.747   1.107   2.473 -0.6004 -0.6027 -0.7191
  758SOL     OW 3057   3.565   0.208   1.766 -0.7144  0.6742 -0.2428
  758SOL    HW1 3058   3.626   0.272   1.804  3.4730 -2.3084 -1.6086
  758SOL    HW2 3059   3.510   0.181   1.840  2.8917 -0.1083  2.3052
  759SOL     OW 3060   3.385   0.126   2.480 -0.1668  0.0800 -0.1850
  759SOL    HW1 3061   3.353   0.036   2.488 -1.4537  0.4963 -0.4087
  759SOL    HW2 3062   3.347   0.158   2.397  1.5761  0.3184 -0.9094
  760SOL     OW 3063   4.151   0.172   3.640 -0.0774  0.0866  0.0450
  760SOL    HW1 3064   4.128   0.147   3.729 -0.3540  2.1495  0.5891
  760SOL    HW2 3065   4.239   0.210   3.647  0.1374 -0.2693 -0.6547
  761SOL     OW 3066   5.678   3.753   1.487  0.0809  0.2900  0.2999
  761SOL    HW1 3067   5.682   3.813   1.562  0.1556  2.2994 -1.2681
  761SOL    HW2 3068   5.588   3.719   1.489 -0.7024  2.2718 -0.1454
  762SOL     OW 3069   3.968   0.783   3.280 -0.0170  0.3070  0.1509
  762SOL    HW1 3070   3.891   0.726   3.284 -0.8979  1.5941  3.4264
  762SOL    HW2 3071   3.932   0.872   3.288  1.5789  1.1355 -1.5580
  763SOL     OW 3072   3.063   0.439   3.286 -1.0281  0.4668 -0.0405
  763SOL    HW1 3073   3.045   0.514   3.230  0.5680  0.0980 -1.0976
  763SOL    HW2 3074   3.123   0.472   3.352 -0.9166  0.2955 -0.0565
  764SOL     OW 3075   3.337   1.156   4.070  0.6420 -0.3525  0.7159
  764SOL    HW1 3076   3.269   1.149   4.003 -0.0656  1.1154  1.2535
  764SOL    HW2 3077   3.303   1.106   4.144  0.8206 -0.8567  0.4577
  765SOL     OW 3078   2.976   4.663   2.811 -0.2037  0.1736  0.5618
  765SOL    HW1 3079   2.918   4.681   2.885  0.1641 -1.1229  1.1858
  765SOL    HW2 3080   2.919   4.623   2.746  0.1092 -1.7500  1.4479
  766SOL     OW 3081   3.277   5.477   2.073  0.3949 -0.1099 -0.8722
  766SOL    HW1 3082   3.200   5.484   2.130  0.3886  3.7443 -1.2135
  766SOL    HW2 3083   3.242   5.455   1.987 -0.5644  2.8153 -1.3091
  767SOL     OW 3084   5.025   0.316   2.168 -0.0844  0.2704  0.9566
  767SOL    HW1 3085   5.050   0.399   2.128  0.0675 -0.0602  0.3588
  767SOL    HW2 3086   4.932   0.326   2.189  0.1198  0.8685  1.5954
  768SOL     OW 3087   3.571   0.410   2.215  0.3257  0.1428 -0.7482
  768SOL    HW1 3088   3.552   0.490   2.166 -1.9271  0.7338  0.9491
  768SOL    HW2 3089   3.641   0.435   2.275 -2.0239  1.6638  1.4999
  769SOL     OW 3090   3.256   5.461   2.817  0.7419  0.2775  0.1311
  769SOL    HW1 3091   3.261   5.457   2.913 -0.9631 -1.0956  0.1867
  769SOL    HW2 3092   3.249   5.555   2.798 -2.0794  0.4307  1.5759
  770SOL     OW 3093   4.831   2.702   3.459 -0.3262 -0.4652  0.0958
  770SOL    HW1 3094   4.757   2.759   3.437 -1.1591 -1.7257 -0.4647
  770SOL    HW2 3095   4.905   2.738   3.411 -0.1770  1.7645  1.9005
  771SOL     OW 3096   3.811   3.753   1.412  0.2805  0.1235  0.1661
  771SOL    HW1 3097   3.836   3.807   1.336  1.9861  3.6204  3.0559
  771SOL    HW2 3098   3.886   3.696   1.426  2.2510  3.0473  2.2036
  772SOL     OW 3099   4.550   2.889   1.627 -0.0604 -0.4989  0.3652
  772SOL    HW1 3100   4.512   2.914   1.711  0.5522  1.1625  0.1656
  772SOL    HW2 3101   4.644   2.891   1.641  0.0299 -1.2945 -0.0760
  773SOL     OW 3102   4.896   1.455   2.349 -0.4189 -0.0505  0.3627
  773SOL    HW1 3103   4.889   1.474   2.256 -1.7880  0.0523  0.4777
  773SOL    HW2 3104   4.969   1.394   2.356  1.8689  2.4615 -0.4161
  774SOL     OW 3105   4.639   1.954   1.359  0.1632  1.2817  0.5833
  774SOL    HW1 3106   4.673   1.968   1.271 -0.6909 -1.2754 -0.1872
  774SOL    HW2 3107   4.637   2.042   1.398  1.9742  2.2416 -1.3849
  775SOL     OW 3108   3.850   0.241   3.526 -0.1158 -0.6896 -0.4154
  775SOL    HW1 3109   3.793   0.316   3.511  0.4194 -0.6881 -2.6445
  775SOL    HW2 3110   3.795   0.178   3.572 -1.5374 -0.1596 -1.3545
  776SOL     OW 3111   4.274   4.666   2.898 -0.2080 -0.3343 -0.6433
  776SOL    HW1 3112   4.270   4.578   2.936 -1.3011  0.5683  1.4059
  776SOL    HW2 3113   4.261   4.652   2.805  0.7866 -2.4600 -0.4967
  777SOL     OW 3114   4.399   2.733   2.453 -0.5519 -0.2063 -0.0684
  777SOL    HW1 3115   4.313   2.693   2.449  0.2082 -1.8149 -0.6458
  777SOL    HW2 3116   4.421   2.752   2.362 -1.3461  2.5676  0.2528
  778SOL     OW 3117   4.980   2.949   2.103 -0.1180  0.8662 -0.2152
  778SOL    HW1 3118   4.959   2.856   2.096  0.7441  0.7080 -0.7576
  778SOL    HW2 3119   4.896   2.994   2.095 -0.5609  0.1328  0.2307
  779SOL     OW 3120   3.815   5.254   1.644  0.0739 -0.2777  0.1984
  779SOL    HW1 3121   3.799   5.335   1.595 -0.0159  0.6130  1.6676
  779SOL    HW2 3122   3.753   5.258   1.716  0.6322 -1.2738  0.7363
  780SOL     OW 3123   3.643   5.086   3.193  0.0634 -0.0643 -0.5245
  780SOL    HW1 3124   3.714   5.137   3.231  0.1514  0.1561 -0.9789
  780SOL    HW2 3125   3.636   5.118   3.103 -1.1162  0.4468 -0.2553
  781SOL     OW 3126   5.101   4.942   3.651 -0.0191  0.5229  0.4185
  781SOL    HW1 3127   5.135   4.856   3.627  3.4657  1.7303  0.7183
  781SOL    HW2 3128   5.007   4.936   3.636  0.3948 -2.7565 -1.2850
  782SOL     OW 3129   4.630   5.634   2.343 -0.8318  0.1620 -0.1823
  782SOL    HW1 3130   4.719   5.625   2.310 -0.7044  1.4121 -0.2038
  782SOL    HW2 3131   4.589   5.699   2.285 -1.6251 -0.0991  0.0749
  783SOL     OW 3132   3.909   2.086   1.930  0.3309 -0.5420 -0.2671
  783SOL    HW1 3133   3.999   2.113   1.913  0.1779  0.2975  0.1887
  783SOL    HW2 3134   3.858   2.129   1.862  0.2597 -0.8583 -0.4097
  784SOL     OW 3135   0.339   3.079   1.562 -0.3334  0.1857 -0.8337
  784SOL    HW1 3136   0.320   3.172   1.546  0.4151  0.6526  0.9308
  784SOL    HW2 3137   0.346   3.041   1.474 -0.6074  1.8030 -1.5771
  785SOL     OW 3138   2.498   4.496   2.645  0.4082  0.0882 -0.8787
  785SOL    HW1 3139   2.483   4.440   2.569 -1.2526 -0.8156  0.0962
  785SOL    HW2 3140   2.444   4.459   2.714  0.9429  1.6293  0.4111
  786SOL     OW 3141   3.979   2.933   1.931 -0.1810 -0.1099 -0.1610
  786SOL    HW1 3142   3.967   3.011   1.985  0.1463  0.5938 -1.0924
  786SOL    HW2 3143   4.065   2.899   1.956  1.2035  1.7630 -2.1361
  787SOL     OW 3144   4.735   4.463   4.041 -0.1351  0.1833 -0.2715
  787SOL    HW1 3145   4.746   4.376   4.078 -1.4086  0.2592  0.3088
  787SOL    HW2 3146   4.802   4.469   3.972 -0.6640 -1.6110 -0.9550
  788SOL     OW 3147   3.000   1.843   3.273  0.1406 -0.4897  0.0306
  788SOL    HW1 3148   3.062   1.793   3.326 -0.2245 -1.0077 -0.0241
  788SOL    HW2 3149   2.939   1.777   3.239  0.0686 -0.0958 -0.6130
  789SOL     OW 3150   3.022   1.330   3.117  0.1956  0.3386 -0.3104
  789SOL    HW1 3151   2.999   1.310   3.208 -0.8961 -0.7958 -0.8191
  789SOL    HW2 3152   3.045   1.245   3.079  1.0918  0.8726 -0.9668
  790SOL     OW 3153   3.076   0.171   3.162  0.5583  0.0593 -0.0080
  790SOL    HW1 3154   3.085   0.265   3.173  2.9924 -0.2982  1.2497
  790SOL    HW2 3155   3.150   0.145   3.107 -1.0209 -0.8996 -1.7436
  791SOL     OW 3156   4.338   5.051   3.149  0.4591 -1.3620 -0.0928
  791SOL    HW1 3157   4.284   4.988   3.196 -0.1243 -0.1003  0.9544
  791SOL    HW2 3158   4.421   5.005   3.133  0.6468 -1.8235  2.1215
  792SOL     OW 3159   4.380   0.236   3.367 -0.1281 -1.3736 -0.0432
  792SOL    HW1 3160   4.334   0.296   3.308 -3.1591 -2.3247  1.2470
  792SOL    HW2 3161   4.472   0.256   3.354 -0.8878  0.8615 -2.5042
  793SOL     OW 3162   3.038   1.382   2.673  0.5506  0.1298 -0.3508
  793SOL    HW1 3163   3.004   1.440   2.742 -1.3295  1.4764 -2.3482
  793SOL    HW2 3164   3.089   1.439   2.616  1.5438 -0.8573 -0.4680
  794SOL     OW 3165   3.676   3.905   2.221  0.2696  0.2257  0.6340
  794SOL    HW1 3166   3.632   3.859   2.149  0.4891 -3.1721  2.5644
  794SOL    HW2 3167   3.729   3.972   2.178 -0.0927 -1.3106 -2.3289
  795SOL     OW 3168   4.887   0.754   3.415  0.3178 -0.0440 -0.4236
  795SOL    HW1 3169   4.798   0.771   3.384  0.0763 -1.7323 -0.6976
  795SOL    HW2 3170   4.943   0.789   3.346 -0.1017  1.3828 -0.0728
  796SOL     OW 3171   4.550   1.940   1.997 -0.2814  0.3618 -0.0507
  796SOL    HW1 3172   4.625   1.881   2.006  0.0958  0.4124 -2.3890
  796SOL    HW2 3173   4.498   1.925   2.075  1.6519 -0.4232  1.1153
  797SOL     OW 3174   4.291   1.127   2.264  0.3064  0.2084  0.0167
  797SOL    HW1 3175   4.385   1.108   2.260  0.0215 -1.6358  1.1687
  797SOL    HW2 3176   4.249   1.042   2.250 -1.1506  0.7177  1.1397
  798SOL     OW 3177   2.514   0.148   2.661 -0.0491  0.6196  0.5509
  798SOL    HW1 3178   2.441   0.142   2.723  0.3610  0.5758  1.0361
  798SOL    HW2 3179   2.553   0.061   2.661 -0.2051  0.5463  0.0288
  799SOL     OW 3180   3.200   5.574   3.072 -0.7909  0.1721 -0.0193
  799SOL    HW1 3181   3.205   5.561   3.167 -1.4884 -2.0747 -0.2488
  799SOL    HW2 3182   3.216   5.667   3.059 -0.0984  0.3913  2.2628
  800SOL     OW 3183   5.152   3.595   1.125 -0.2177 -0.1882 -0.0113
  800SOL    HW1 3184   5.073   3.643   1.100  0.5249  2.2865  2.1451
  800SOL    HW2 3185   5.211   3.605   1.050  0.5951  3.8998  1.0842
  801SOL     OW 3186   3.499   0.384   2.581 -0.3549  0.0978 -0.2940
  801SOL    HW1 3187   3.508   0.289   2.575  0.9254  0.2759 -1.2989
  801SOL    HW2 3188   3.450   0.409   2.503 -2.9822  0.0120  1.2475
  802SOL     OW 3189   3.158   5.411   1.833 -0.5231  0.8325 -0.9525
  802SOL    HW1 3190   3.114   5.387   1.752 -0.9117 -0.3766 -0.3885
  802SOL    HW2 3191   3.135   5.342   1.895 -0.3639  1.8288  0.2418
  803SOL     OW 3192   3.409   4.644   2.251 -0.0970  1.0846 -0.9583
  803SOL    HW1 3193   3.411   4.633   2.156 -0.0878  0.8302 -0.9269
  803SOL    HW2 3194   3.396   4.738   2.263 -0.6190  1.0456 -1.2125
  804SOL     OW 3195   5.058   1.034   2.390 -0.2100 -0.2020 -0.5854
  804SOL    HW1 3196   5.139   1.079   2.415  0.3270 -1.0361 -0.7819
  804SOL    HW2 3197   5.015   1.093   2.329 -0.2476  0.6963  0.2871
  805SOL     OW 3198   3.532   0.344   3.391  0.2960  0.6745  0.3697
  805SOL    HW1 3199   3.472   0.406   3.432 -1.9752 -0.3463 -1.3176
  805SOL    HW2 3200   3.540   0.273   3.455 -3.0577 -0.8141 -0.8114
  806SOL     OW 3201   4.764   4.318   1.261  0.5156  1.1465  0.3711
  806SOL    HW1 3202   4.791   4.403   1.226 -0.8427  0.3592 -2.7629
  806SOL    HW2 3203   4.688   4.337   1.315  0.4315  1.9710 -0.0386
  807SOL     OW 3204   4.128   2.798   2.763  0.1787  0.3166 -0.4094
  807SOL    HW1 3205   4.060   2.839   2.816  0.8770  1.2085 -0.1878
  807SOL    HW2 3206   4.093   2.799   2.674 -0.1532  0.6710 -0.2761
  808SOL     OW 3207   3.524   4.673   3.684  0.0831 -0.1885 -0.2475
  808SOL    HW1 3208   3.614   4.690   3.655  0.0302  0.1261 -0.2264
  808SOL    HW2 3209   3.531   4.596   3.741  0.3701 -0.0213 -0.0570
  809SOL     OW 3210   2.086   3.226   2.906  0.7117 -0.7178 -0.2862
  809SOL    HW1 3211   2.166   3.278   2.906  0.1119  0.2273  0.0158
  809SOL    HW2 3212   2.048   3.241   2.993  1.1422 -2.6280  0.2568
  810SOL     OW 3213   2.946   1.951   1.789 -0.1101 -0.0536 -0.1461
  810SOL    HW1 3214   2.894   1.939   1.868 -0.2721 -1.4481 -0.4611
  810SOL    HW2 3215   2.908   2.028   1.747  0.5712  1.2819  1.5952
  811SOL     OW 3216   4.344   1.425   3.351 -0.4089 -0.3257  0.5339
  811SOL    HW1 3217   4.353   1.330   3.342 -2.1881 -0.7035  2.2664
  811SOL    HW2 3218   4.252   1.438   3.375 -0.9053  2.0905 -2.4785
  812SOL     OW 3219   3.153   5.212   3.577  0.8124  0.3543 -0.8543
  812SOL    HW1 3220   3.127   5.180   3.491 -0.2822 -1.7389  0.2330
  812SOL    HW2 3221   3.229   5.267   3.559 -0.6828  1.7036 -3.3907
  813SOL     OW 3222   3.893   1.261   4.255  0.9873 -0.1010 -0.0066
  813SOL    HW1 3223   3.875   1.309   4.174  0.6229  1.3946  0.9587
  813SOL    HW2 3224   3.987   1.274   4.271  0.4301  2.2609  1.5027
  814SOL     OW 3225   5.073   2.830   1.333  0.0201  0.5565  0.9780
  814SOL    HW1 3226   5.068   2.797   1.243 -3.0808 -0.5088  1.4944
  814SOL    HW2 3227   5.101   2.755   1.384  1.9076  1.1970  0.9061
  815SOL     OW 3228   5.193   2.069   3.095  0.2097 -0.1107 -0.1221
  815SOL    HW1 3229   5.178   1.976   3.112  0.7636 -0.2498 -0.3627
  815SOL    HW2 3230   5.199   2.109   3.182 -0.4083 -0.2362 -0.0225
  816SOL     OW 3231   4.327   3.439   1.816 -0.3443  0.6809 -0.1302
  816SOL    HW1 3232   4.275   3.373   1.770 -1.8171  1.1197  0.8793
  816SOL    HW2 3233   4.336   3.510   1.752 -2.0025  1.1022  0.0862
  817SOL     OW 3234   5.517   4.247   2.657  0.0446  0.3058 -0.2417
  817SOL    HW1 3235   5.611   4.236   2.675  0.1330  2.1287  0.4966
  817SOL    HW2 3236   5.476   4.171   2.699  1.1072 -0.0638  0.1502
  818SOL     OW 3237   5.071   3.424   1.691 -0.1550  0.1621  0.0677
  818SOL    HW1 3238   5.016   3.459   1.621 -0.3568  0.6219  0.4542
  818SOL    HW2 3239   5.118   3.351   1.650 -1.7530 -0.8584 -0.0161
  819SOL     OW 3240   4.840   5.388   1.920 -0.1020  0.7279 -0.0290
  819SOL    HW1 3241   4.761   5.439   1.937 -2.8260 -3.0965 -0.7166
  819SOL    HW2 3242   4.881   5.377   2.006 -2.4295 -0.5412  0.9588
  820SOL     OW 3243   3.803   4.158   2.421 -0.0542 -0.1301  0.3998
  820SOL    HW1 3244   3.771   4.073   2.389 -1.1376 -0.9078  3.3928
  820SOL    HW2 3245   3.892   4.140   2.452 -0.4046 -0.2774  1.3435
  821SOL     OW 3246   3.265   4.531   3.785  0.2004  0.3331 -0.3638
  821SOL    HW1 3247   3.289   4.602   3.725  1.9036 -1.2299 -1.6126
  821SOL    HW2 3248   3.349   4.501   3.821 -0.5463 -0.7107  0.5484
  822SOL     OW 3249   4.008   5.337   3.512  0.0530 -0.0188  0.3893
  822SOL    HW1 3250   3.992   5.362   3.421 -1.4640 -1.1262  0.3290
  822SOL    HW2 3251   3.999   5.420   3.561  1.4082  0.6719 -0.5109
  823SOL     OW 3252   3.781   0.592   1.303 -0.1845  0.4041 -0.8197
  823SOL    HW1 3253   3.866   0.608   1.261 -0.0786 -0.0323 -0.7722
  823SOL    HW2 3254   3.798   0.605   1.397 -0.0127 -0.3429 -0.7455
  824SOL     OW 3255   4.849   3.045   3.381 -0.2828  0.4321 -0.5272
  824SOL    HW1 3256   4.822   3.032   3.471  1.4683  0.4456  0.0228
  824SOL    HW2 3257   4.942   3.069   3.387  0.0356 -0.2344 -2.3605
  825SOL     OW 3258   3.527   0.363   2.962  0.3509 -0.0894 -0.8055
  825SOL    HW1 3259   3.579   0.315   3.026  1.7169  0.6637 -1.3195
  825SOL    HW2 3260   3.553   0.454   2.974 -0.6988  0.2701 -1.2290
  826SOL     OW 3261   3.332   5.343   3.284 -0.2615  0.3145 -0.2398
  826SOL    HW1 3262   3.319   5.366   3.376 -0.7073  0.8395 -0.4365
  826SOL    HW2 3263   3.260   5.284   3.263  1.3469 -2.0099  0.5059
  827SOL     OW 3264   4.791   3.502   1.331 -0.0488  0.1836 -0.3255
  827SOL    HW1 3265   4.839   3.535   1.407  1.3467  0.8087 -1.4482
  827SOL    HW2 3266   4.812   3.409   1.327 -0.3168  0.0984  0.1793
  828SOL     OW 3267   4.283   2.638   2.915  0.1721 -0.1443 -0.5557
  828SOL    HW1 3268   4.239   2.706   2.864 -0.6464  0.2237  0.6263
  828SOL    HW2 3269   4.221   2.565   2.918  1.1256 -1.0316 -1.9792
  829SOL     OW 3270   4.794   2.465   3.601 -0.7397 -0.3840  0.4005
  829SOL    HW1 3271   4.746   2.497   3.678 -1.5429 -0.3367 -0.1161
  829SOL    HW2 3272   4.804   2.543   3.546 -3.4663 -1.1756 -1.2692
  830SOL     OW 3273   4.582   4.751   2.684 -0.3172 -0.5733  0.6898
  830SOL    HW1 3274   4.498   4.777   2.724 -0.5240  0.4205 -0.3597
  830SOL    HW2 3275   4.648   4.800   2.733 -0.7578  2.5616 -1.7119
  831SOL     OW 3276   4.342   0.702   1.852  0.3272 -0.8889  0.0223
  831SOL    HW1 3277   4.360   0.684   1.759  0.5309  0.0297 -0.1225
  831SOL    HW2 3278   4.428   0.718   1.890  0.2573 -1.4571  0.4115
  832SOL     OW 3279   5.090   2.334   1.914 -0.1445 -0.1537  0.7227
  832SOL    HW1 3280   5.157   2.266   1.916  1.5437  1.4218  0.0650
  832SOL    HW2 3281   5.097   2.372   1.826 -2.3163 -0.3373  0.4502
  833SOL     OW 3282   5.162   2.580   1.494  0.0402  0.0959 -0.2600
  833SOL    HW1 3283   5.161   2.627   1.577 -1.0422  0.1474 -0.2949
  833SOL    HW2 3284   5.158   2.488   1.519 -0.5452  0.1186 -0.2488
  834SOL     OW 3285   4.855   4.327   3.734  0.5826  0.2089 -0.6900
  834SOL    HW1 3286   4.943   4.323   3.696  0.7238 -2.5943 -0.2118
  834SOL    HW2 3287   4.804   4.266   3.680 -0.8931  1.2347 -0.4793
  835NA      NA 3288   3.986   5.609   2.569 -0.1926  0.0709 -0.0533
  836NA      NA 3289   3.969   1.336   3.152 -0.0550  0.5483 -0.0940
  837NA      NA 3290   3.905   0.197   2.693 -0.0444  0.1538 -0.0919
  838NA      NA 3291   5.472   2.629   2.389 -0.8201 -0.6159  0.1557
  839NA      NA 3292   5.274   3.670   1.691  0.5207  0.4665  0.3147
  840NA      NA 3293   5.047   0.162   2.351 -0.2553  0.0217 -0.2697
  841NA      NA 3294   4.195   3.816   2.101  0.2831  0.0400 -0.4408
  842NA      NA 3295   4.447   0.537   2.589  0.1340 -0.0564 -0.3597
  843NA      NA 3296   4.917   3.810   1.693  0.3220 -0.1737  0.4410
  844NA      NA 3297   4.029   1.319   1.984  0.7918 -0.0943 -0.0683
  845NA      NA 3298   4.318   3.638   2.522  0.2254 -0.3131 -0.7762
  846NA      NA 3299   4.600   5.548   2.560 -0.3169  0.2526 -0.2320
  847NA      NA 3300   3.856   1.516   1.590 -0.0017 -0.1004 -0.2186
  848NA      NA 3301   4.422   2.083   2.876  0.4434 -0.2096  0.3101
  849NA      NA 3302   4.537   1.623   2.608 -0.4227  0.0831 -0.4743
  850NA      NA 3303   4.530   2.185   1.950  0.7022 -0.1510  0.1830
  851NA      NA 3304   4.913   3.341   3.087 -0.0884 -0.1909 -0.3533
  852NA      NA 3305   4.814   2.155   2.834 -0.1846 -0.3587 -0.1409
  853NA      NA 3306   3.976   1.852   3.050 -0.5413 -0.4013  0.0962
  854NA      NA 3307   5.284   2.881   2.530 -0.4259 -0.1784  0.4176
  855NA      NA 3308   4.638   2.119   3.285  0.0009  0.2946  0.0878
  856NA      NA 3309   5.010   2.497   2.128 -0.3428 -0.1886 -0.2335
  857NA      NA 3310   4.638   2.453   2.410  0.4067 -0.4048  0.0741
  858NA      NA 3311   5.663   3.080   1.635  0.4011 -0.1322 -0.3372
  859NA      NA 3312   3.685   1.062   2.220 -0.3887 -0.4469 -0.0921
  860NA      NA 3313   4.256   4.298   3.239 -0.0058  0.3477 -0.0544
  861NA      NA 3314   0.279   3.015   1.785 -0.3692  0.1877  0.3689
  862NA      NA 3315   3.631   1.308   2.589  0.1642  0.0920 -0.1047
  863NA      NA 3316   4.612   2.474   3.102 -0.4104  0.1536 -0.4496
  864NA      NA 3317   5.042   2.484   2.602  0.0852 -0.4986 -0.7208
  865NA      NA 3318   3.787   4.687   1.665 -0.1957  0.2346 -0.2792
  866NA      NA 3319   3.690   5.006   2.036  0.1462  0.0403 -0.2650
  867NA      NA 3320   3.524   4.496   2.387 -0.3493  0.1709  0.5829
  868NA      NA 3321   4.719   3.016   3.166  0.0230 -0.0403  0.2196
  869NA      NA 3322   4.944   4.253   2.539  0.1737  0.1293 -0.2405
  870NA      NA 3323   4.882   3.626   2.712 -0.2621  0.7820  0.6546
  871NA      NA 3324   4.452   3.369   2.305 -0.4418  0.2154 -0.3043
  872NA      NA 3325   4.275   4.437   2.547 -0.3379  0.0971 -0.0411
  873NA      NA 3326   4.583   4.989   2.263 -0.4599 -0.2522 -0.0833
  874NA      NA 3327   4.749   0.524   2.874 -1.2411 -0.1774 -0.5003
  875NA      NA 3328   4.406   5.129   1.863  0.2270 -0.5192 -0.2313
  876NA      NA 3329   5.022   4.700   2.572  0.0913 -0.6031  0.1103
  877NA      NA 3330   4.859   0.849   2.748  0.8418 -0.4876 -0.1956
  878NA      NA 3331   3.566   0.758   3.157 -0.3987  0.2170 -0.2138
  879NA      NA 3332   5.242   3.022   2.057 -0.0012 -0.1241  0.1305
  880NA      NA 3333   4.668   0.114   2.943 -0.0198 -0.7637 -0.3318
  881NA      NA 3334   3.541   1.193   2.944  0.4601 -0.0148  0.2962
  882NA      NA 3335   4.087   0.629   2.741  0.3795  0.0962 -0.1052
  883NA      NA 3336   4.071   4.761   2.337 -0.2566 -0.1136  0.0760
  884NA      NA 3337   3.766   5.185   2.713  0.1877  0.2243  0.9346
  885NA      NA 3338   4.282   0.204   2.774 -0.5566 -0.3576  0.4261
  886NA      NA 3339   4.154   0.876   3.439 -0.4286 -0.6801  0.1345
  887NA      NA 3340   3.994   5.578   3.083 -0.4578  0.0196  0.1195
  888NA      NA 3341   4.628   1.268   2.155  0.6562  0.1147 -0.0772
  889NA      NA 3342   4.948   3.981   2.118  0.0633 -0.1974  0.2385
  890NA      NA 3343   4.629   4.371   2.743  0.4307  0.1642  0.3321
  891NA      NA 3344   4.064   1.510   2.409  0.5037 -0.3110 -0.4604
  892NA      NA 3345   4.247   2.269   2.136  0.3814  0.0360 -0.0623
  893NA      NA 3346   4.126   4.016   1.712  0.0223  0.2899  0.0026
  894NA      NA 3347   4.128   0.681   3.123 -1.0267 -0.8026 -0.1295
  895NA      NA 3348   3.544   5.374   3.134  0.0941  0.0500 -0.9022
  896NA      NA 3349   4.363   5.602   3.143 -0.0143  0.5003 -0.5708
  897NA      NA 3350   4.052   5.194   3.128  0.4867 -0.1295  1.2277
  898NA      NA 3351   4.853   4.103   3.007  0.3580 -0.6759  0.3524
  899NA      NA 3352   3.640   1.090   3.341  0.2943 -0.0622 -0.0391
  900NA      NA 3353   4.418   5.219   3.716  0.3095 -0.3334 -0.0958
  901NA      NA 3354   4.241   1.674   1.758  0.0668 -0.1940  0.0591
  902NA      NA 3355   4.598   4.263   2.210  0.0246 -0.3861  0.1627
  903NA      NA 3356   4.712   4.629   2.458 -0.8163  0.4735 -0.6041
  904NA      NA 3357   3.426   0.962   2.596  0.3444 -0.4388 -0.4676
  905NA      NA 3358   4.676   1.357   2.904  0.2273 -0.4015 -0.4911
  906NA      NA 3359   3.031   1.182   2.465 -0.4476  0.1590  0.2086
  907NA      NA 3360   4.300   1.065   3.112  0.0638  0.3896 -0.1225
  908NA      NA 3361   4.684   1.789   2.908 -0.2202 -0.0808  0.3004
  909NA      NA 3362   3.721   1.466   2.273  0.0825 -0.2591 -0.4404
  910NA      NA 3363   4.170   1.656   2.814  0.2014  0.4533 -0.1750
  911NA      NA 3364   3.830   0.905   2.875 -0.3086 -1.0709 -0.0800
  912NA      NA 3365   5.156   3.091   2.829  0.2987 -0.3274  0.2897
  913NA      NA 3366   4.407   1.533   3.124  0.0269  0.1146 -0.1903
  914NA      NA 3367   3.424   5.262   2.151 -0.1427 -0.0074  0.2014
  915NA      NA 3368   4.256   1.926   2.419  0.2743 -0.5475 -0.4507
  916NA      NA 3369   4.810   2.840   2.470  0.8063  0.2659  0.3780
  917NA      NA 3370   4.296   5.554   2.798  0.0224  0.0887 -0.2916
  918NA      NA 3371   3.724   5.402   2.006  0.1172 -0.6348 -0.4555
  919NA      NA 3372   4.265   5.297   2.483 -0.1372  0.4542 -0.6088
  920NA      NA 3373   3.826   5.206   2.350  0.7927 -0.3064 -0.6207
  921NA      NA 3374   4.579   3.819   1.831  0.1293 -0.2188 -0.3221
  922NA      NA 3375   4.181   4.934   2.722  0.0694 -0.1120 -0.3219
  923NA      NA 3376   4.500   0.890   2.473 -0.2970  0.5034 -0.3920
  924NA      NA 3377   4.460   5.233   2.971 -0.3597 -0.6964  0.5955
  925NA      NA 3378   4.387   3.261   2.801  0.5141  0.3772  0.5869
  926NA      NA 3379   3.601   5.682   2.332  0.2896 -0.2251  0.6349
  927NA      NA 3380   4.056   0.210   3.416  0.2090  0.2166  0.0010
  928NA      NA 3381   4.609   5.219   2.623  0.2551  0.3599 -0.6388
  929NA      NA 3382   4.474   4.667   1.886 -0.2792  0.0707  0.0338
  930NA      NA 3383   4.789   4.146   1.728  0.2165  0.1927  0.2198
  931NA      NA 3384   4.611   3.250   3.451 -0.4091  0.0346  0.1274
  932NA      NA 3385   5.262   3.654   1.335 -0.3738  0.5332  0.3365
  933CL      CL 3386   5.030   2.775   2.593  0.2057  0.0953 -0.0569
  934CL      CL 3387   5.041   5.714   2.543  0.4735 -0.4696  0.8879
  935CL      CL 3388   4.716   3.149   3.684 -0.0156  0.4894 -0.1504
  936CL      CL 3389   4.786   2.633   2.263 -0.1950  0.1242  0.2598
  937CL      CL 3390   4.776   0.304   2.339 -0.0746  0.0392 -0.1493
  938CL      CL 3391   4.562   4.399   1.985 -0.0972 -0.2432  0.4175
  939CL      CL 3392   5.122   3.798   1.526  0.3213 -0.0087  0.2299
  940CL      CL 3393   4.690   3.924   1.560 -0.1110 -0.7099 -0.0709
  941CL      CL 3394   4.285   2.221   1.869 -0.0500  0.5036 -0.3428
  942CL      CL 3395   5.157   2.433   2.338  0.3422 -0.4543 -0.2244
  943CL      CL 3396   4.674   1.964   2.678 -0.1815  0.0856  0.0308
  944CL      CL 3397   3.983   1.546   1.831 -0.2138 -0.1703 -0.7399
  945CL      CL 3398   4.627   2.210   3.044 -0.1719 -0.0601 -0.2093
  946CL      CL 3399   4.463   4.377   3.378 -0.0921 -0.1089  0.3348
  947CL      CL 3400   3.470   1.412   2.799  0.0102  0.2946  0.1708
  948CL      CL 3401   3.511   0.929   2.357  0.1927  0.1720 -0.9544
  949CL      CL 3402   5.320   2.868   2.272 -0.1400  0.6470  0.1218
  950CL      CL 3403   4.542   5.412   2.787  0.2656 -0.2312  0.2156
  951CL      CL 3404   3.710   4.744   1.936  0.2360 -0.0085  0.0455
  952CL      CL 3405   4.039   4.705   1.598  0.2264 -0.0439 -0.1830
  953CL      CL 3406   5.437   3.549   1.523 -0.3327  0.1789 -0.3286
  954CL      CL 3407   4.511   2.300   2.205 -0.0658  0.5296  0.0155
  955CL      CL 3408   4.343   3.640   2.247  0.4822  0.1310  0.1802
  956CL      CL 3409   4.739   3.989   1.937  0.0298  0.5290 -0.3023
  957CL      CL 3410   4.083   3.976   2.309  0.1859  0.0266 -0.7744
  958CL      CL 3411   5.170   3.071   1.796  0.0702 -0.4929  0.1930
  959CL      CL 3412   4.665   3.265   3.202 -0.1426 -0.3229 -0.3177
  960CL      CL 3413   5.356   3.728   2.323  0.1520 -0.2925 -0.2300
  961CL      CL 3414   4.895   4.806   2.356 -0.3717  0.6534 -0.1704
  962CL      CL 3415   4.374   4.310   2.772  0.1871 -0.2732  0.4087
  963CL      CL 3416   3.124   0.944   2.568 -0.1093 -0.5768  0.1543
  964CL      CL 3417   4.428   0.003   2.920 -0.0061 -0.1388  0.3408
  965CL      CL 3418   4.284   0.775   2.602  0.0738  0.5655  0.3637
  966CL      CL 3419   4.117   0.390   2.650  0.4380 -0.3572 -0.3860
  967CL      CL 3420   3.840   5.366   3.207  0.3230 -0.7819 -0.7147
  968CL      CL 3421   3.437   0.899   3.357 -0.3249 -0.3390 -0.0028
  969CL      CL 3422   4.518   1.098   1.933  0.0516  0.1137  0.2670
  970CL      CL 3423   4.817   1.893   3.315  0.3669  0.0468  0.2097
  971CL      CL 3424   3.643   5.418   2.255 -0.0823 -0.2560 -0.3941
  972CL      CL 3425   4.154   2.009   2.197 -0.2172  0.3206  0.0900
  973CL      CL 3426   5.487   2.758   2.644 -0.4485  0.0131 -0.0263
  974CL      CL 3427   3.688   1.021   3.088 -0.1786  0.1527 -0.3744
  975CL      CL 3428   3.547   5.635   3.192  0.6664  0.1575  0.2111
  976CL      CL 3429   4.144   0.439   3.254 -0.4347  0.3353  0.3757
  977CL      CL 3430   4.858   4.142   2.318  0.0775 -0.2562 -0.5236
  978CL      CL 3431   4.178   4.664   2.600 -0.2741 -0.5668  0.5049
  979CL      CL 3432   4.855   4.494   2.627  0.4204  0.5208 -0.2406
  980CL      CL 3433   3.516   4.993   2.263  0.2062 -0.6137 -0.6680
  981CL      CL 3434   3.703   1.078   2.718 -0.0476 -0.1044  0.2712
  982CL      CL 3435   4.570   5.576   3.314 -0.1636 -0.1682  0.2477
  983CL      CL 3436   3.667   0.670   2.936 -0.1957 -0.0296 -0.1074
  984CL      CL 3437   4.194   1.911   2.885  0.2551  0.1736  0.0509
  985CL      CL 3438   4.664   0.696   2.613 -0.3224 -0.3282  0.1626
  986CL      CL 3439   4.492   1.265   3.085 -0.0974 -0.2225  0.5985
  987CL      CL 3440   4.538   0.371   2.798  0.2893 -0.1199  0.2247
  988CL      CL 3441   5.098   3.822   1.910 -0.2005  0.3624  0.2926
  989CL      CL 3442   4.456   4.912   2.023 -0.2002 -0.4305  0.5444
  990CL      CL 3443   3.566   5.235   2.894 -0.5620  0.1637 -0.0773
  991CL      CL 3444   4.423   5.044   2.775  0.1990  0.1249  0.1473
  992CL      CL 3445   3.993   5.042   2.893  0.2195  0.0984 -0.3234
  993CL      CL 3446   4.086   0.899   2.964  0.1862 -0.2185 -0.2417
  994CL      CL 3447   3.781   1.394   3.339  0.1485 -0.0201 -0.0488
  995CL      CL 3448   4.127   1.167   3.304 -0.0789  0.0117 -0.1305
  996CL      CL 3449   4.849   1.572   2.977  0.1838 -0.4893  0.0438
  997CL      CL 3450   4.622   1.126   2.406 -0.2757 -0.1096 -0.0170
  998CL      CL 3451   3.851   0.038   2.420  0.2193 -0.1470  0.1451
  999CL      CL 3452   4.460   2.504   3.321 -0.0246  0.4432  0.4096
 1000CL      CL 3453   4.272   2.924   2.174  0.1143 -0.4870 -0.3918
 1001CL      CL 3454   4.712   1.476   2.016  0.5077 -0.0596 -0.1213
 1002CL      CL 3455   4.485   1.601   2.876 -0.0448 -0.2487 -0.0844
 1003CL      CL 3456   5.210   3.154   2.572  0.3296  0.1751  0.3206
 1004CL      CL 3457   4.361   0.835   3.261  0.1116  0.1041 -0.0586
 1005CL      CL 3458   3.885   1.252   2.214  0.0292  0.0089  0.2056
 1006CL      CL 3459   4.893   3.169   2.889 -0.4382 -0.4266 -0.2638
 1007CL      CL 3460   4.296   3.878   1.849 -0.1605 -0.1723  0.5582
 1008CL      CL 3461   0.043   2.906   1.812 -0.0958  0.3185 -0.2645
 1009CL      CL 3462   3.812   1.501   2.530  0.1485  0.0395 -0.0813
 1010CL      CL 3463   3.483   1.310   2.325  0.1505 -0.1666  0.2595
 1011CL      CL 3464   4.809   2.352   2.634 -0.4640  0.1466 -0.1251
 1012CL      CL 3465   3.560   5.216   1.902 -0.0204  0.0203 -0.1671
 1013CL      CL 3466   4.511   5.235   2.373  0.1821  0.1225  0.2833
 1014CL      CL 3467   4.087   5.717   2.784 -0.1816  0.1855 -0.2682
 1015CL      CL 3468   3.916   5.141   2.093 -0.3637 -0.1432 -0.2877
 1016CL      CL 3469   4.873   5.185   2.644  0.4588 -0.0476  0.0000
 1017CL      CL 3470   5.108   3.207   3.256 -0.3260  0.2866 -0.3854
 1018CL      CL 3471   4.987   0.690   2.932  0.0858 -0.0397 -0.3051
 1019CL      CL 3472   4.198   5.407   3.025  0.2613  0.1533 -0.0040
 1020CL      CL 3473   4.531   4.421   2.419  0.1110  0.0803  0.7635
 1021CL      CL 3474   3.900   5.353   2.558  0.6197 -0.2248 -0.0528
 1022CL      CL 3475   3.876   4.947   2.442 -0.0803  0.3299  0.0306
 1023CL      CL 3476   4.934   3.588   2.986 -0.5329 -0.2082 -0.3846
 1024CL      CL 3477   4.344   3.339   2.538 -0.1253 -0.4195  0.0430
 1025CL      CL 3478   4.315   5.563   2.527  0.0158  0.5190  0.0592
 1026CL      CL 3479   4.810   4.120   2.731 -0.2089  0.2414 -0.1293
 1027CL      CL 3480   4.132   5.743   3.261 -0.2317  0.0196 -0.2218
 1028CL      CL 3481   4.143   1.569   3.099  0.2674 -0.2003  0.0494
 1029CL      CL 3482   3.945   4.209   1.810 -0.3670  0.2551 -0.0339
 1030CL      CL 3483   4.276   1.677   2.506  0.0099  0.3670 -0.3268
   5.74466   5.74466   5.74466
