%VERSION  VERSION_STAMP = V0001.000  DATE = 12/15/25  12:20:05                  
%FLAG TITLE                                                                     
%FORMAT(20a4)                                                                   
PEO                                                                             
%FLAG POINTERS                                                                  
%FORMAT(10I8)                                                                   
     875       7     400     499     946     623    1638    1145       0       0
    4481      30     499     623    1145       9      15      26       8       0
       0       0       0       0       0       0       0       0      35       0
       0
%FLAG ATOM_NAME                                                                 
%FORMAT(20a4)                                                                   
C1  H3  H4  O   C2  H5  H6  C3  H7  H8  O1  C4  H9  H10 C5  H11 H12 O2  C6  H13 
H14 C7  H15 H16 O3  C8  H17 H18 C9  H19 H20 O4  C10 H21 H22 C1  H3  H4  O   C2  
H5  H6  C3  H7  H8  O1  C4  H9  H10 C5  H11 H12 O2  C6  H13 H14 C7  H15 H16 O3  
C8  H17 H18 C9  H19 H20 O4  C10 H21 H22 C1  H3  H4  O   C2  H5  H6  C3  H7  H8  
O1  C4  H9  H10 C5  H11 H12 O2  C6  H13 H14 C7  H15 H16 O3  C8  H17 H18 C9  H19 
H20 O4  C10 H21 H22 C1  H3  H4  O   C2  H5  H6  C3  H7  H8  O1  C4  H9  H10 C5  
H11 H12 O2  C6  H13 H14 C7  H15 H16 O3  C8  H17 H18 C9  H19 H20 O4  C10 H21 H22 
C1  H3  H4  O   C2  H5  H6  C3  H7  H8  O1  C4  H9  H10 C5  H11 H12 O2  C6  H13 
H14 C7  H15 H16 O3  C8  H17 H18 C9  H19 H20 O4  C10 H21 H22 C9  H6  H7  O2  C8  
O1  C4  C5  C6  H4  H3  C3  H2  C2  H1  C1  C7  O3  O4  C10 H8  H9  C11 H10 H11 
C12 H13 H14 C9  H6  H7  O2  C8  O1  C4  C5  C6  H4  H3  C3  H2  C2  H1  C1  C7  
O3  O4  C10 H8  H9  C11 H10 H11 C12 H13 H14 C9  H6  H7  O2  C8  O1  C4  C5  C6  
H4  H3  C3  H2  C2  H1  C1  C7  O3  O4  C10 H8  H9  C11 H10 H11 C12 H13 H14 C9  
H6  H7  O2  C8  O1  C4  C5  C6  H4  H3  C3  H2  C2  H1  C1  C7  O3  O4  C10 H8  
H9  C11 H10 H11 C12 H13 H14 C9  H6  H7  O2  C8  O1  C4  C5  C6  H4  H3  C3  H2  
C2  H1  C1  C7  O3  O4  C10 H8  H9  C11 H10 H11 C12 H13 H14 C9  H6  H7  O2  C8  
O1  C4  C5  C6  H4  H3  C3  H2  C2  H1  C1  C7  O3  O4  C10 H8  H9  C11 H10 H11 
C12 H13 H14 C9  H6  H7  O2  C8  O1  C4  C5  C6  H4  H3  C3  H2  C2  H1  C1  C7  
O3  O4  C10 H8  H9  C11 H10 H11 C12 H13 H14 C9  H6  H7  O2  C8  O1  C4  C5  C6  
H4  H3  C3  H2  C2  H1  C1  C7  O3  O4  C10 H8  H9  C11 H10 H11 C12 H13 H14 C9  
H6  H7  O2  C8  O1  C4  C5  C6  H4  H3  C3  H2  C2  H1  C1  C7  O3  O4  C10 H8  
H9  C11 H10 H11 C12 H13 H14 C9  H6  H7  O2  C8  O1  C4  C5  C6  H4  H3  C3  H2  
C2  H1  C1  C7  O3  O4  C10 H8  H9  C11 H10 H11 C12 H13 H14 C9  H6  H7  O2  C8  
O1  C4  C5  C6  H4  H3  C3  H2  C2  H1  C1  C7  O3  O4  C10 H8  H9  C11 H10 H11 
C12 H13 H14 C9  H6  H7  O2  C8  O1  C4  C5  C6  H4  H3  C3  H2  C2  H1  C1  C7  
O3  O4  C10 H8  H9  C11 H10 H11 C12 H13 H14 C9  H6  H7  O2  C8  O1  C4  C5  C6  
H4  H3  C3  H2  C2  H1  C1  C7  O3  O4  C10 H8  H9  C11 H10 H11 C12 H13 H14 C9  
H6  H7  O2  C8  O1  C4  C5  C6  H4  H3  C3  H2  C2  H1  C1  C7  O3  O4  C10 H8  
H9  C11 H10 H11 C12 H13 H14 C9  H6  H7  O2  C8  O1  C4  C5  C6  H4  H3  C3  H2  
C2  H1  C1  C7  O3  O4  C10 H8  H9  C11 H10 H11 C12 H13 H14 C9  H6  H7  O2  C8  
O1  C4  C5  C6  H4  H3  C3  H2  C2  H1  C1  C7  O3  O4  C10 H8  H9  C11 H10 H11 
C12 H13 H14 C9  H6  H7  O2  C8  O1  C4  C5  C6  H4  H3  C3  H2  C2  H1  C1  C7  
O3  O4  C10 H8  H9  C11 H10 H11 C12 H13 H14 C9  H6  H7  O2  C8  O1  C4  C5  C6  
H4  H3  C3  H2  C2  H1  C1  C7  O3  O4  C10 H8  H9  C11 H10 H11 C12 H13 H14 C9  
H6  H7  O2  C8  O1  C4  C5  C6  H4  H3  C3  H2  C2  H1  C1  C7  O3  O4  C10 H8  
H9  C11 H10 H11 C12 H13 H14 C9  H6  H7  O2  C8  O1  C4  C5  C6  H4  H3  C3  H2  
C2  H1  C1  C7  O3  O4  C10 H8  H9  C11 H10 H11 C12 H13 H14 C9  H6  H7  O2  C8  
O1  C4  C5  C6  H4  H3  C3  H2  C2  H1  C1  C7  O3  O4  C10 H8  H9  C11 H10 H11 
C12 H13 H14 C9  H6  H7  O2  C8  O1  C4  C5  C6  H4  H3  C3  H2  C2  H1  C1  C7  
O3  O4  C10 H8  H9  C11 H10 H11 C12 H13 H14 C9  H6  H7  O2  C8  O1  C4  C5  C6  
H4  H3  C3  H2  C2  H1  C1  C7  O3  O4  C10 H8  H9  C11 H10 H11 C12 H13 H14 C9  
H6  H7  O2  C8  O1  C4  C5  C6  H4  H3  C3  H2  C2  H1  C1  C7  O3  O4  C10 H8  
H9  C11 H10 H11 C12 H13 H14 C9  H6  H7  O2  C8  O1  C4  C5  C6  H4  H3  C3  H2  
C2  H1  C1  C7  O3  O4  C10 H8  H9  C11 H10 H11 C12 H13 H14 
%FLAG CHARGE                                                                    
%FORMAT(5E16.8)                                                                 
  2.45724071E+00  4.76968703E-01  4.76968703E-01 -7.66564783E+00  2.36445276E+00
  7.36800478E-01  7.36800478E-01  2.42012189E+00  7.92487827E-01  7.92487827E-01
 -7.70141821E+00  2.42012189E+00  7.92487827E-01  7.92487827E-01  2.40157158E+00
  7.73919303E-01  7.73919303E-01 -7.68354213E+00  2.40157158E+00  7.73919303E-01
  7.73919303E-01  2.42012189E+00  7.92487827E-01  7.92487827E-01 -7.70141821E+00
  2.42012189E+00  7.92487827E-01  7.92487827E-01  2.36445276E+00  7.36800478E-01
  7.36800478E-01 -7.66564783E+00  2.45724071E+00  4.76968703E-01  4.76968703E-01
  2.45724071E+00  4.76968703E-01  4.76968703E-01 -7.66564783E+00  2.36445276E+00
  7.36800478E-01  7.36800478E-01  2.42012189E+00  7.92487827E-01  7.92487827E-01
 -7.70141821E+00  2.42012189E+00  7.92487827E-01  7.92487827E-01  2.40157158E+00
  7.73919303E-01  7.73919303E-01 -7.68354213E+00  2.40157158E+00  7.73919303E-01
  7.73919303E-01  2.42012189E+00  7.92487827E-01  7.92487827E-01 -7.70141821E+00
  2.42012189E+00  7.92487827E-01  7.92487827E-01  2.36445276E+00  7.36800478E-01
  7.36800478E-01 -7.66564783E+00  2.45724071E+00  4.76968703E-01  4.76968703E-01
  2.45724071E+00  4.76968703E-01  4.76968703E-01 -7.66564783E+00  2.36445276E+00
  7.36800478E-01  7.36800478E-01  2.42012189E+00  7.92487827E-01  7.92487827E-01
 -7.70141821E+00  2.42012189E+00  7.92487827E-01  7.92487827E-01  2.40157158E+00
  7.73919303E-01  7.73919303E-01 -7.68354213E+00  2.40157158E+00  7.73919303E-01
  7.73919303E-01  2.42012189E+00  7.92487827E-01  7.92487827E-01 -7.70141821E+00
  2.42012189E+00  7.92487827E-01  7.92487827E-01  2.36445276E+00  7.36800478E-01
  7.36800478E-01 -7.66564783E+00  2.45724071E+00  4.76968703E-01  4.76968703E-01
  2.45724071E+00  4.76968703E-01  4.76968703E-01 -7.66564783E+00  2.36445276E+00
  7.36800478E-01  7.36800478E-01  2.42012189E+00  7.92487827E-01  7.92487827E-01
 -7.70141821E+00  2.42012189E+00  7.92487827E-01  7.92487827E-01  2.40157158E+00
  7.73919303E-01  7.73919303E-01 -7.68354213E+00  2.40157158E+00  7.73919303E-01
  7.73919303E-01  2.42012189E+00  7.92487827E-01  7.92487827E-01 -7.70141821E+00
  2.42012189E+00  7.92487827E-01  7.92487827E-01  2.36445276E+00  7.36800478E-01
  7.36800478E-01 -7.66564783E+00  2.45724071E+00  4.76968703E-01  4.76968703E-01
  2.45724071E+00  4.76968703E-01  4.76968703E-01 -7.66564783E+00  2.36445276E+00
  7.36800478E-01  7.36800478E-01  2.42012189E+00  7.92487827E-01  7.92487827E-01
 -7.70141821E+00  2.42012189E+00  7.92487827E-01  7.92487827E-01  2.40157158E+00
  7.73919303E-01  7.73919303E-01 -7.68354213E+00  2.40157158E+00  7.73919303E-01
  7.73919303E-01  2.42012189E+00  7.92487827E-01  7.92487827E-01 -7.70141821E+00
  2.42012189E+00  7.92487827E-01  7.92487827E-01  2.36445276E+00  7.36800478E-01
  7.36800478E-01 -7.66564783E+00  2.45724071E+00  4.76968703E-01  4.76968703E-01
  2.36601988E+00  9.82601083E-01  9.82601083E-01 -7.84568415E+00  1.18708809E+01
 -9.58538536E+00 -1.83824740E+00 -1.62145670E+00 -1.62145670E+00  3.02932982E+00
  3.02005467E+00 -1.62145670E+00  3.02005467E+00 -1.62145670E+00  3.02932982E+00
 -1.83824740E+00  1.19079268E+01 -9.63914114E+00 -7.84568415E+00  2.60132444E+00
  1.20802916E+00  1.20802916E+00 -1.97799422E+00  1.06906590E+00  1.06906590E+00
 -1.66803290E+00  6.79983347E-01  6.79983347E-01  2.36601988E+00  9.82601083E-01
  9.82601083E-01 -7.84568415E+00  1.18708809E+01 -9.58538536E+00 -1.83824740E+00
 -1.62145670E+00 -1.62145670E+00  3.02932982E+00  3.02005467E+00 -1.62145670E+00
  3.02005467E+00 -1.62145670E+00  3.02932982E+00 -1.83824740E+00  1.19079268E+01
 -9.63914114E+00 -7.84568415E+00  2.60132444E+00  1.20802916E+00  1.20802916E+00
 -1.97799422E+00  1.06906590E+00  1.06906590E+00 -1.66803290E+00  6.79983347E-01
  6.79983347E-01  2.36601988E+00  9.82601083E-01  9.82601083E-01 -7.84568415E+00
  1.18708809E+01 -9.58538536E+00 -1.83824740E+00 -1.62145670E+00 -1.62145670E+00
  3.02932982E+00  3.02005467E+00 -1.62145670E+00  3.02005467E+00 -1.62145670E+00
  3.02932982E+00 -1.83824740E+00  1.19079268E+01 -9.63914114E+00 -7.84568415E+00
  2.60132444E+00  1.20802916E+00  1.20802916E+00 -1.97799422E+00  1.06906590E+00
  1.06906590E+00 -1.66803290E+00  6.79983347E-01  6.79983347E-01  2.36601988E+00
  9.82601083E-01  9.82601083E-01 -7.84568415E+00  1.18708809E+01 -9.58538536E+00
 -1.83824740E+00 -1.62145670E+00 -1.62145670E+00  3.02932982E+00  3.02005467E+00
 -1.62145670E+00  3.02005467E+00 -1.62145670E+00  3.02932982E+00 -1.83824740E+00
  1.19079268E+01 -9.63914114E+00 -7.84568415E+00  2.60132444E+00  1.20802916E+00
  1.20802916E+00 -1.97799422E+00  1.06906590E+00  1.06906590E+00 -1.66803290E+00
  6.79983347E-01  6.79983347E-01  2.36601988E+00  9.82601083E-01  9.82601083E-01
 -7.84568415E+00  1.18708809E+01 -9.58538536E+00 -1.83824740E+00 -1.62145670E+00
 -1.62145670E+00  3.02932982E+00  3.02005467E+00 -1.62145670E+00  3.02005467E+00
 -1.62145670E+00  3.02932982E+00 -1.83824740E+00  1.19079268E+01 -9.63914114E+00
 -7.84568415E+00  2.60132444E+00  1.20802916E+00  1.20802916E+00 -1.97799422E+00
  1.06906590E+00  1.06906590E+00 -1.66803290E+00  6.79983347E-01  6.79983347E-01
  2.36601988E+00  9.82601083E-01  9.82601083E-01 -7.84568415E+00  1.18708809E+01
 -9.58538536E+00 -1.83824740E+00 -1.62145670E+00 -1.62145670E+00  3.02932982E+00
  3.02005467E+00 -1.62145670E+00  3.02005467E+00 -1.62145670E+00  3.02932982E+00
 -1.83824740E+00  1.19079268E+01 -9.63914114E+00 -7.84568415E+00  2.60132444E+00
  1.20802916E+00  1.20802916E+00 -1.97799422E+00  1.06906590E+00  1.06906590E+00
 -1.66803290E+00  6.79983347E-01  6.79983347E-01  2.36601988E+00  9.82601083E-01
  9.82601083E-01 -7.84568415E+00  1.18708809E+01 -9.58538536E+00 -1.83824740E+00
 -1.62145670E+00 -1.62145670E+00  3.02932982E+00  3.02005467E+00 -1.62145670E+00
  3.02005467E+00 -1.62145670E+00  3.02932982E+00 -1.83824740E+00  1.19079268E+01
 -9.63914114E+00 -7.84568415E+00  2.60132444E+00  1.20802916E+00  1.20802916E+00
 -1.97799422E+00  1.06906590E+00  1.06906590E+00 -1.66803290E+00  6.79983347E-01
  6.79983347E-01  2.36601988E+00  9.82601083E-01  9.82601083E-01 -7.84568415E+00
  1.18708809E+01 -9.58538536E+00 -1.83824740E+00 -1.62145670E+00 -1.62145670E+00
  3.02932982E+00  3.02005467E+00 -1.62145670E+00  3.02005467E+00 -1.62145670E+00
  3.02932982E+00 -1.83824740E+00  1.19079268E+01 -9.63914114E+00 -7.84568415E+00
  2.60132444E+00  1.20802916E+00  1.20802916E+00 -1.97799422E+00  1.06906590E+00
  1.06906590E+00 -1.66803290E+00  6.79983347E-01  6.79983347E-01  2.36601988E+00
  9.82601083E-01  9.82601083E-01 -7.84568415E+00  1.18708809E+01 -9.58538536E+00
 -1.83824740E+00 -1.62145670E+00 -1.62145670E+00  3.02932982E+00  3.02005467E+00
 -1.62145670E+00  3.02005467E+00 -1.62145670E+00  3.02932982E+00 -1.83824740E+00
  1.19079268E+01 -9.63914114E+00 -7.84568415E+00  2.60132444E+00  1.20802916E+00
  1.20802916E+00 -1.97799422E+00  1.06906590E+00  1.06906590E+00 -1.66803290E+00
  6.79983347E-01  6.79983347E-01  2.36601988E+00  9.82601083E-01  9.82601083E-01
 -7.84568415E+00  1.18708809E+01 -9.58538536E+00 -1.83824740E+00 -1.62145670E+00
 -1.62145670E+00  3.02932982E+00  3.02005467E+00 -1.62145670E+00  3.02005467E+00
 -1.62145670E+00  3.02932982E+00 -1.83824740E+00  1.19079268E+01 -9.63914114E+00
 -7.84568415E+00  2.60132444E+00  1.20802916E+00  1.20802916E+00 -1.97799422E+00
  1.06906590E+00  1.06906590E+00 -1.66803290E+00  6.79983347E-01  6.79983347E-01
  2.36601988E+00  9.82601083E-01  9.82601083E-01 -7.84568415E+00  1.18708809E+01
 -9.58538536E+00 -1.83824740E+00 -1.62145670E+00 -1.62145670E+00  3.02932982E+00
  3.02005467E+00 -1.62145670E+00  3.02005467E+00 -1.62145670E+00  3.02932982E+00
 -1.83824740E+00  1.19079268E+01 -9.63914114E+00 -7.84568415E+00  2.60132444E+00
  1.20802916E+00  1.20802916E+00 -1.97799422E+00  1.06906590E+00  1.06906590E+00
 -1.66803290E+00  6.79983347E-01  6.79983347E-01  2.36601988E+00  9.82601083E-01
  9.82601083E-01 -7.84568415E+00  1.18708809E+01 -9.58538536E+00 -1.83824740E+00
 -1.62145670E+00 -1.62145670E+00  3.02932982E+00  3.02005467E+00 -1.62145670E+00
  3.02005467E+00 -1.62145670E+00  3.02932982E+00 -1.83824740E+00  1.19079268E+01
 -9.63914114E+00 -7.84568415E+00  2.60132444E+00  1.20802916E+00  1.20802916E+00
 -1.97799422E+00  1.06906590E+00  1.06906590E+00 -1.66803290E+00  6.79983347E-01
  6.79983347E-01  2.36601988E+00  9.82601083E-01  9.82601083E-01 -7.84568415E+00
  1.18708809E+01 -9.58538536E+00 -1.83824740E+00 -1.62145670E+00 -1.62145670E+00
  3.02932982E+00  3.02005467E+00 -1.62145670E+00  3.02005467E+00 -1.62145670E+00
  3.02932982E+00 -1.83824740E+00  1.19079268E+01 -9.63914114E+00 -7.84568415E+00
  2.60132444E+00  1.20802916E+00  1.20802916E+00 -1.97799422E+00  1.06906590E+00
  1.06906590E+00 -1.66803290E+00  6.79983347E-01  6.79983347E-01  2.36601988E+00
  9.82601083E-01  9.82601083E-01 -7.84568415E+00  1.18708809E+01 -9.58538536E+00
 -1.83824740E+00 -1.62145670E+00 -1.62145670E+00  3.02932982E+00  3.02005467E+00
 -1.62145670E+00  3.02005467E+00 -1.62145670E+00  3.02932982E+00 -1.83824740E+00
  1.19079268E+01 -9.63914114E+00 -7.84568415E+00  2.60132444E+00  1.20802916E+00
  1.20802916E+00 -1.97799422E+00  1.06906590E+00  1.06906590E+00 -1.66803290E+00
  6.79983347E-01  6.79983347E-01  2.36601988E+00  9.82601083E-01  9.82601083E-01
 -7.84568415E+00  1.18708809E+01 -9.58538536E+00 -1.83824740E+00 -1.62145670E+00
 -1.62145670E+00  3.02932982E+00  3.02005467E+00 -1.62145670E+00  3.02005467E+00
 -1.62145670E+00  3.02932982E+00 -1.83824740E+00  1.19079268E+01 -9.63914114E+00
 -7.84568415E+00  2.60132444E+00  1.20802916E+00  1.20802916E+00 -1.97799422E+00
  1.06906590E+00  1.06906590E+00 -1.66803290E+00  6.79983347E-01  6.79983347E-01
  2.36601988E+00  9.82601083E-01  9.82601083E-01 -7.84568415E+00  1.18708809E+01
 -9.58538536E+00 -1.83824740E+00 -1.62145670E+00 -1.62145670E+00  3.02932982E+00
  3.02005467E+00 -1.62145670E+00  3.02005467E+00 -1.62145670E+00  3.02932982E+00
 -1.83824740E+00  1.19079268E+01 -9.63914114E+00 -7.84568415E+00  2.60132444E+00
  1.20802916E+00  1.20802916E+00 -1.97799422E+00  1.06906590E+00  1.06906590E+00
 -1.66803290E+00  6.79983347E-01  6.79983347E-01  2.36601988E+00  9.82601083E-01
  9.82601083E-01 -7.84568415E+00  1.18708809E+01 -9.58538536E+00 -1.83824740E+00
 -1.62145670E+00 -1.62145670E+00  3.02932982E+00  3.02005467E+00 -1.62145670E+00
  3.02005467E+00 -1.62145670E+00  3.02932982E+00 -1.83824740E+00  1.19079268E+01
 -9.63914114E+00 -7.84568415E+00  2.60132444E+00  1.20802916E+00  1.20802916E+00
 -1.97799422E+00  1.06906590E+00  1.06906590E+00 -1.66803290E+00  6.79983347E-01
  6.79983347E-01  2.36601988E+00  9.82601083E-01  9.82601083E-01 -7.84568415E+00
  1.18708809E+01 -9.58538536E+00 -1.83824740E+00 -1.62145670E+00 -1.62145670E+00
  3.02932982E+00  3.02005467E+00 -1.62145670E+00  3.02005467E+00 -1.62145670E+00
  3.02932982E+00 -1.83824740E+00  1.19079268E+01 -9.63914114E+00 -7.84568415E+00
  2.60132444E+00  1.20802916E+00  1.20802916E+00 -1.97799422E+00  1.06906590E+00
  1.06906590E+00 -1.66803290E+00  6.79983347E-01  6.79983347E-01  2.36601988E+00
  9.82601083E-01  9.82601083E-01 -7.84568415E+00  1.18708809E+01 -9.58538536E+00
 -1.83824740E+00 -1.62145670E+00 -1.62145670E+00  3.02932982E+00  3.02005467E+00
 -1.62145670E+00  3.02005467E+00 -1.62145670E+00  3.02932982E+00 -1.83824740E+00
  1.19079268E+01 -9.63914114E+00 -7.84568415E+00  2.60132444E+00  1.20802916E+00
  1.20802916E+00 -1.97799422E+00  1.06906590E+00  1.06906590E+00 -1.66803290E+00
  6.79983347E-01  6.79983347E-01  2.36601988E+00  9.82601083E-01  9.82601083E-01
 -7.84568415E+00  1.18708809E+01 -9.58538536E+00 -1.83824740E+00 -1.62145670E+00
 -1.62145670E+00  3.02932982E+00  3.02005467E+00 -1.62145670E+00  3.02005467E+00
 -1.62145670E+00  3.02932982E+00 -1.83824740E+00  1.19079268E+01 -9.63914114E+00
 -7.84568415E+00  2.60132444E+00  1.20802916E+00  1.20802916E+00 -1.97799422E+00
  1.06906590E+00  1.06906590E+00 -1.66803290E+00  6.79983347E-01  6.79983347E-01
  2.36601988E+00  9.82601083E-01  9.82601083E-01 -7.84568415E+00  1.18708809E+01
 -9.58538536E+00 -1.83824740E+00 -1.62145670E+00 -1.62145670E+00  3.02932982E+00
  3.02005467E+00 -1.62145670E+00  3.02005467E+00 -1.62145670E+00  3.02932982E+00
 -1.83824740E+00  1.19079268E+01 -9.63914114E+00 -7.84568415E+00  2.60132444E+00
  1.20802916E+00  1.20802916E+00 -1.97799422E+00  1.06906590E+00  1.06906590E+00
 -1.66803290E+00  6.79983347E-01  6.79983347E-01  2.36601988E+00  9.82601083E-01
  9.82601083E-01 -7.84568415E+00  1.18708809E+01 -9.58538536E+00 -1.83824740E+00
 -1.62145670E+00 -1.62145670E+00  3.02932982E+00  3.02005467E+00 -1.62145670E+00
  3.02005467E+00 -1.62145670E+00  3.02932982E+00 -1.83824740E+00  1.19079268E+01
 -9.63914114E+00 -7.84568415E+00  2.60132444E+00  1.20802916E+00  1.20802916E+00
 -1.97799422E+00  1.06906590E+00  1.06906590E+00 -1.66803290E+00  6.79983347E-01
  6.79983347E-01  2.36601988E+00  9.82601083E-01  9.82601083E-01 -7.84568415E+00
  1.18708809E+01 -9.58538536E+00 -1.83824740E+00 -1.62145670E+00 -1.62145670E+00
  3.02932982E+00  3.02005467E+00 -1.62145670E+00  3.02005467E+00 -1.62145670E+00
  3.02932982E+00 -1.83824740E+00  1.19079268E+01 -9.63914114E+00 -7.84568415E+00
  2.60132444E+00  1.20802916E+00  1.20802916E+00 -1.97799422E+00  1.06906590E+00
  1.06906590E+00 -1.66803290E+00  6.79983347E-01  6.79983347E-01  2.36601988E+00
  9.82601083E-01  9.82601083E-01 -7.84568415E+00  1.18708809E+01 -9.58538536E+00
 -1.83824740E+00 -1.62145670E+00 -1.62145670E+00  3.02932982E+00  3.02005467E+00
 -1.62145670E+00  3.02005467E+00 -1.62145670E+00  3.02932982E+00 -1.83824740E+00
  1.19079268E+01 -9.63914114E+00 -7.84568415E+00  2.60132444E+00  1.20802916E+00
  1.20802916E+00 -1.97799422E+00  1.06906590E+00  1.06906590E+00 -1.66803290E+00
  6.79983347E-01  6.79983347E-01  2.36601988E+00  9.82601083E-01  9.82601083E-01
 -7.84568415E+00  1.18708809E+01 -9.58538536E+00 -1.83824740E+00 -1.62145670E+00
 -1.62145670E+00  3.02932982E+00  3.02005467E+00 -1.62145670E+00  3.02005467E+00
 -1.62145670E+00  3.02932982E+00 -1.83824740E+00  1.19079268E+01 -9.63914114E+00
 -7.84568415E+00  2.60132444E+00  1.20802916E+00  1.20802916E+00 -1.97799422E+00
  1.06906590E+00  1.06906590E+00 -1.66803290E+00  6.79983347E-01  6.79983347E-01
%FLAG ATOMIC_NUMBER                                                             
%FORMAT(10I8)                                                                   
       6       1       1       8       6       1       1       6       1       1
       8       6       1       1       6       1       1       8       6       1
       1       6       1       1       8       6       1       1       6       1
       1       8       6       1       1       6       1       1       8       6
       1       1       6       1       1       8       6       1       1       6
       1       1       8       6       1       1       6       1       1       8
       6       1       1       6       1       1       8       6       1       1
       6       1       1       8       6       1       1       6       1       1
       8       6       1       1       6       1       1       8       6       1
       1       6       1       1       8       6       1       1       6       1
       1       8       6       1       1       6       1       1       8       6
       1       1       6       1       1       8       6       1       1       6
       1       1       8       6       1       1       6       1       1       8
       6       1       1       6       1       1       8       6       1       1
       6       1       1       8       6       1       1       6       1       1
       8       6       1       1       6       1       1       8       6       1
       1       6       1       1       8       6       1       1       6       1
       1       8       6       1       1       6       1       1       8       6
       8       6       6       6       1       1       6       1       6       1
       6       6       8       8       6       1       1       6       1       1
       6       1       1       6       1       1       8       6       8       6
       6       6       1       1       6       1       6       1       6       6
       8       8       6       1       1       6       1       1       6       1
       1       6       1       1       8       6       8       6       6       6
       1       1       6       1       6       1       6       6       8       8
       6       1       1       6       1       1       6       1       1       6
       1       1       8       6       8       6       6       6       1       1
       6       1       6       1       6       6       8       8       6       1
       1       6       1       1       6       1       1       6       1       1
       8       6       8       6       6       6       1       1       6       1
       6       1       6       6       8       8       6       1       1       6
       1       1       6       1       1       6       1       1       8       6
       8       6       6       6       1       1       6       1       6       1
       6       6       8       8       6       1       1       6       1       1
       6       1       1       6       1       1       8       6       8       6
       6       6       1       1       6       1       6       1       6       6
       8       8       6       1       1       6       1       1       6       1
       1       6       1       1       8       6       8       6       6       6
       1       1       6       1       6       1       6       6       8       8
       6       1       1       6       1       1       6       1       1       6
       1       1       8       6       8       6       6       6       1       1
       6       1       6       1       6       6       8       8       6       1
       1       6       1       1       6       1       1       6       1       1
       8       6       8       6       6       6       1       1       6       1
       6       1       6       6       8       8       6       1       1       6
       1       1       6       1       1       6       1       1       8       6
       8       6       6       6       1       1       6       1       6       1
       6       6       8       8       6       1       1       6       1       1
       6       1       1       6       1       1       8       6       8       6
       6       6       1       1       6       1       6       1       6       6
       8       8       6       1       1       6       1       1       6       1
       1       6       1       1       8       6       8       6       6       6
       1       1       6       1       6       1       6       6       8       8
       6       1       1       6       1       1       6       1       1       6
       1       1       8       6       8       6       6       6       1       1
       6       1       6       1       6       6       8       8       6       1
       1       6       1       1       6       1       1       6       1       1
       8       6       8       6       6       6       1       1       6       1
       6       1       6       6       8       8       6       1       1       6
       1       1       6       1       1       6       1       1       8       6
       8       6       6       6       1       1       6       1       6       1
       6       6       8       8       6       1       1       6       1       1
       6       1       1       6       1       1       8       6       8       6
       6       6       1       1       6       1       6       1       6       6
       8       8       6       1       1       6       1       1       6       1
       1       6       1       1       8       6       8       6       6       6
       1       1       6       1       6       1       6       6       8       8
       6       1       1       6       1       1       6       1       1       6
       1       1       8       6       8       6       6       6       1       1
       6       1       6       1       6       6       8       8       6       1
       1       6       1       1       6       1       1       6       1       1
       8       6       8       6       6       6       1       1       6       1
       6       1       6       6       8       8       6       1       1       6
       1       1       6       1       1       6       1       1       8       6
       8       6       6       6       1       1       6       1       6       1
       6       6       8       8       6       1       1       6       1       1
       6       1       1       6       1       1       8       6       8       6
       6       6       1       1       6       1       6       1       6       6
       8       8       6       1       1       6       1       1       6       1
       1       6       1       1       8       6       8       6       6       6
       1       1       6       1       6       1       6       6       8       8
       6       1       1       6       1       1       6       1       1       6
       1       1       8       6       8       6       6       6       1       1
       6       1       6       1       6       6       8       8       6       1
       1       6       1       1       6       1       1       6       1       1
       8       6       8       6       6       6       1       1       6       1
       6       1       6       6       8       8       6       1       1       6
       1       1       6       1       1
%FLAG MASS                                                                      
%FORMAT(5E16.8)                                                                 
  1.20100000E+01  1.00800000E+00  1.00800000E+00  1.60000000E+01  1.20100000E+01
  1.00800000E+00  1.00800000E+00  1.20100000E+01  1.00800000E+00  1.00800000E+00
  1.60000000E+01  1.20100000E+01  1.00800000E+00  1.00800000E+00  1.20100000E+01
  1.00800000E+00  1.00800000E+00  1.60000000E+01  1.20100000E+01  1.00800000E+00
  1.00800000E+00  1.20100000E+01  1.00800000E+00  1.00800000E+00  1.60000000E+01
  1.20100000E+01  1.00800000E+00  1.00800000E+00  1.20100000E+01  1.00800000E+00
  1.00800000E+00  1.60000000E+01  1.20100000E+01  1.00800000E+00  1.00800000E+00
  1.20100000E+01  1.00800000E+00  1.00800000E+00  1.60000000E+01  1.20100000E+01
  1.00800000E+00  1.00800000E+00  1.20100000E+01  1.00800000E+00  1.00800000E+00
  1.60000000E+01  1.20100000E+01  1.00800000E+00  1.00800000E+00  1.20100000E+01
  1.00800000E+00  1.00800000E+00  1.60000000E+01  1.20100000E+01  1.00800000E+00
  1.00800000E+00  1.20100000E+01  1.00800000E+00  1.00800000E+00  1.60000000E+01
  1.20100000E+01  1.00800000E+00  1.00800000E+00  1.20100000E+01  1.00800000E+00
  1.00800000E+00  1.60000000E+01  1.20100000E+01  1.00800000E+00  1.00800000E+00
  1.20100000E+01  1.00800000E+00  1.00800000E+00  1.60000000E+01  1.20100000E+01
  1.00800000E+00  1.00800000E+00  1.20100000E+01  1.00800000E+00  1.00800000E+00
  1.60000000E+01  1.20100000E+01  1.00800000E+00  1.00800000E+00  1.20100000E+01
  1.00800000E+00  1.00800000E+00  1.60000000E+01  1.20100000E+01  1.00800000E+00
  1.00800000E+00  1.20100000E+01  1.00800000E+00  1.00800000E+00  1.60000000E+01
  1.20100000E+01  1.00800000E+00  1.00800000E+00  1.20100000E+01  1.00800000E+00
  1.00800000E+00  1.60000000E+01  1.20100000E+01  1.00800000E+00  1.00800000E+00
  1.20100000E+01  1.00800000E+00  1.00800000E+00  1.60000000E+01  1.20100000E+01
  1.00800000E+00  1.00800000E+00  1.20100000E+01  1.00800000E+00  1.00800000E+00
  1.60000000E+01  1.20100000E+01  1.00800000E+00  1.00800000E+00  1.20100000E+01
  1.00800000E+00  1.00800000E+00  1.60000000E+01  1.20100000E+01  1.00800000E+00
  1.00800000E+00  1.20100000E+01  1.00800000E+00  1.00800000E+00  1.60000000E+01
  1.20100000E+01  1.00800000E+00  1.00800000E+00  1.20100000E+01  1.00800000E+00
  1.00800000E+00  1.60000000E+01  1.20100000E+01  1.00800000E+00  1.00800000E+00
  1.20100000E+01  1.00800000E+00  1.00800000E+00  1.60000000E+01  1.20100000E+01
  1.00800000E+00  1.00800000E+00  1.20100000E+01  1.00800000E+00  1.00800000E+00
  1.60000000E+01  1.20100000E+01  1.00800000E+00  1.00800000E+00  1.20100000E+01
  1.00800000E+00  1.00800000E+00  1.60000000E+01  1.20100000E+01  1.00800000E+00
  1.00800000E+00  1.20100000E+01  1.00800000E+00  1.00800000E+00  1.60000000E+01
  1.20100000E+01  1.00800000E+00  1.00800000E+00  1.20100000E+01  1.00800000E+00
  1.00800000E+00  1.60000000E+01  1.20100000E+01  1.00800000E+00  1.00800000E+00
  1.20100000E+01  1.00800000E+00  1.00800000E+00  1.60000000E+01  1.20100000E+01
  1.60000000E+01  1.20100000E+01  1.20100000E+01  1.20100000E+01  1.00800000E+00
  1.00800000E+00  1.20100000E+01  1.00800000E+00  1.20100000E+01  1.00800000E+00
  1.20100000E+01  1.20100000E+01  1.60000000E+01  1.60000000E+01  1.20100000E+01
  1.00800000E+00  1.00800000E+00  1.20100000E+01  1.00800000E+00  1.00800000E+00
  1.20100000E+01  1.00800000E+00  1.00800000E+00  1.20100000E+01  1.00800000E+00
  1.00800000E+00  1.60000000E+01  1.20100000E+01  1.60000000E+01  1.20100000E+01
  1.20100000E+01  1.20100000E+01  1.00800000E+00  1.00800000E+00  1.20100000E+01
  1.00800000E+00  1.20100000E+01  1.00800000E+00  1.20100000E+01  1.20100000E+01
  1.60000000E+01  1.60000000E+01  1.20100000E+01  1.00800000E+00  1.00800000E+00
  1.20100000E+01  1.00800000E+00  1.00800000E+00  1.20100000E+01  1.00800000E+00
  1.00800000E+00  1.20100000E+01  1.00800000E+00  1.00800000E+00  1.60000000E+01
  1.20100000E+01  1.60000000E+01  1.20100000E+01  1.20100000E+01  1.20100000E+01
  1.00800000E+00  1.00800000E+00  1.20100000E+01  1.00800000E+00  1.20100000E+01
  1.00800000E+00  1.20100000E+01  1.20100000E+01  1.60000000E+01  1.60000000E+01
  1.20100000E+01  1.00800000E+00  1.00800000E+00  1.20100000E+01  1.00800000E+00
  1.00800000E+00  1.20100000E+01  1.00800000E+00  1.00800000E+00  1.20100000E+01
  1.00800000E+00  1.00800000E+00  1.60000000E+01  1.20100000E+01  1.60000000E+01
  1.20100000E+01  1.20100000E+01  1.20100000E+01  1.00800000E+00  1.00800000E+00
  1.20100000E+01  1.00800000E+00  1.20100000E+01  1.00800000E+00  1.20100000E+01
  1.20100000E+01  1.60000000E+01  1.60000000E+01  1.20100000E+01  1.00800000E+00
  1.00800000E+00  1.20100000E+01  1.00800000E+00  1.00800000E+00  1.20100000E+01
  1.00800000E+00  1.00800000E+00  1.20100000E+01  1.00800000E+00  1.00800000E+00
  1.60000000E+01  1.20100000E+01  1.60000000E+01  1.20100000E+01  1.20100000E+01
  1.20100000E+01  1.00800000E+00  1.00800000E+00  1.20100000E+01  1.00800000E+00
  1.20100000E+01  1.00800000E+00  1.20100000E+01  1.20100000E+01  1.60000000E+01
  1.60000000E+01  1.20100000E+01  1.00800000E+00  1.00800000E+00  1.20100000E+01
  1.00800000E+00  1.00800000E+00  1.20100000E+01  1.00800000E+00  1.00800000E+00
  1.20100000E+01  1.00800000E+00  1.00800000E+00  1.60000000E+01  1.20100000E+01
  1.60000000E+01  1.20100000E+01  1.20100000E+01  1.20100000E+01  1.00800000E+00
  1.00800000E+00  1.20100000E+01  1.00800000E+00  1.20100000E+01  1.00800000E+00
  1.20100000E+01  1.20100000E+01  1.60000000E+01  1.60000000E+01  1.20100000E+01
  1.00800000E+00  1.00800000E+00  1.20100000E+01  1.00800000E+00  1.00800000E+00
  1.20100000E+01  1.00800000E+00  1.00800000E+00  1.20100000E+01  1.00800000E+00
  1.00800000E+00  1.60000000E+01  1.20100000E+01  1.60000000E+01  1.20100000E+01
  1.20100000E+01  1.20100000E+01  1.00800000E+00  1.00800000E+00  1.20100000E+01
  1.00800000E+00  1.20100000E+01  1.00800000E+00  1.20100000E+01  1.20100000E+01
  1.60000000E+01  1.60000000E+01  1.20100000E+01  1.00800000E+00  1.00800000E+00
  1.20100000E+01  1.00800000E+00  1.00800000E+00  1.20100000E+01  1.00800000E+00
  1.00800000E+00  1.20100000E+01  1.00800000E+00  1.00800000E+00  1.60000000E+01
  1.20100000E+01  1.60000000E+01  1.20100000E+01  1.20100000E+01  1.20100000E+01
  1.00800000E+00  1.00800000E+00  1.20100000E+01  1.00800000E+00  1.20100000E+01
  1.00800000E+00  1.20100000E+01  1.20100000E+01  1.60000000E+01  1.60000000E+01
  1.20100000E+01  1.00800000E+00  1.00800000E+00  1.20100000E+01  1.00800000E+00
  1.00800000E+00  1.20100000E+01  1.00800000E+00  1.00800000E+00  1.20100000E+01
  1.00800000E+00  1.00800000E+00  1.60000000E+01  1.20100000E+01  1.60000000E+01
  1.20100000E+01  1.20100000E+01  1.20100000E+01  1.00800000E+00  1.00800000E+00
  1.20100000E+01  1.00800000E+00  1.20100000E+01  1.00800000E+00  1.20100000E+01
  1.20100000E+01  1.60000000E+01  1.60000000E+01  1.20100000E+01  1.00800000E+00
  1.00800000E+00  1.20100000E+01  1.00800000E+00  1.00800000E+00  1.20100000E+01
  1.00800000E+00  1.00800000E+00  1.20100000E+01  1.00800000E+00  1.00800000E+00
  1.60000000E+01  1.20100000E+01  1.60000000E+01  1.20100000E+01  1.20100000E+01
  1.20100000E+01  1.00800000E+00  1.00800000E+00  1.20100000E+01  1.00800000E+00
  1.20100000E+01  1.00800000E+00  1.20100000E+01  1.20100000E+01  1.60000000E+01
  1.60000000E+01  1.20100000E+01  1.00800000E+00  1.00800000E+00  1.20100000E+01
  1.00800000E+00  1.00800000E+00  1.20100000E+01  1.00800000E+00  1.00800000E+00
  1.20100000E+01  1.00800000E+00  1.00800000E+00  1.60000000E+01  1.20100000E+01
  1.60000000E+01  1.20100000E+01  1.20100000E+01  1.20100000E+01  1.00800000E+00
  1.00800000E+00  1.20100000E+01  1.00800000E+00  1.20100000E+01  1.00800000E+00
  1.20100000E+01  1.20100000E+01  1.60000000E+01  1.60000000E+01  1.20100000E+01
  1.00800000E+00  1.00800000E+00  1.20100000E+01  1.00800000E+00  1.00800000E+00
  1.20100000E+01  1.00800000E+00  1.00800000E+00  1.20100000E+01  1.00800000E+00
  1.00800000E+00  1.60000000E+01  1.20100000E+01  1.60000000E+01  1.20100000E+01
  1.20100000E+01  1.20100000E+01  1.00800000E+00  1.00800000E+00  1.20100000E+01
  1.00800000E+00  1.20100000E+01  1.00800000E+00  1.20100000E+01  1.20100000E+01
  1.60000000E+01  1.60000000E+01  1.20100000E+01  1.00800000E+00  1.00800000E+00
  1.20100000E+01  1.00800000E+00  1.00800000E+00  1.20100000E+01  1.00800000E+00
  1.00800000E+00  1.20100000E+01  1.00800000E+00  1.00800000E+00  1.60000000E+01
  1.20100000E+01  1.60000000E+01  1.20100000E+01  1.20100000E+01  1.20100000E+01
  1.00800000E+00  1.00800000E+00  1.20100000E+01  1.00800000E+00  1.20100000E+01
  1.00800000E+00  1.20100000E+01  1.20100000E+01  1.60000000E+01  1.60000000E+01
  1.20100000E+01  1.00800000E+00  1.00800000E+00  1.20100000E+01  1.00800000E+00
  1.00800000E+00  1.20100000E+01  1.00800000E+00  1.00800000E+00  1.20100000E+01
  1.00800000E+00  1.00800000E+00  1.60000000E+01  1.20100000E+01  1.60000000E+01
  1.20100000E+01  1.20100000E+01  1.20100000E+01  1.00800000E+00  1.00800000E+00
  1.20100000E+01  1.00800000E+00  1.20100000E+01  1.00800000E+00  1.20100000E+01
  1.20100000E+01  1.60000000E+01  1.60000000E+01  1.20100000E+01  1.00800000E+00
  1.00800000E+00  1.20100000E+01  1.00800000E+00  1.00800000E+00  1.20100000E+01
  1.00800000E+00  1.00800000E+00  1.20100000E+01  1.00800000E+00  1.00800000E+00
  1.60000000E+01  1.20100000E+01  1.60000000E+01  1.20100000E+01  1.20100000E+01
  1.20100000E+01  1.00800000E+00  1.00800000E+00  1.20100000E+01  1.00800000E+00
  1.20100000E+01  1.00800000E+00  1.20100000E+01  1.20100000E+01  1.60000000E+01
  1.60000000E+01  1.20100000E+01  1.00800000E+00  1.00800000E+00  1.20100000E+01
  1.00800000E+00  1.00800000E+00  1.20100000E+01  1.00800000E+00  1.00800000E+00
  1.20100000E+01  1.00800000E+00  1.00800000E+00  1.60000000E+01  1.20100000E+01
  1.60000000E+01  1.20100000E+01  1.20100000E+01  1.20100000E+01  1.00800000E+00
  1.00800000E+00  1.20100000E+01  1.00800000E+00  1.20100000E+01  1.00800000E+00
  1.20100000E+01  1.20100000E+01  1.60000000E+01  1.60000000E+01  1.20100000E+01
  1.00800000E+00  1.00800000E+00  1.20100000E+01  1.00800000E+00  1.00800000E+00
  1.20100000E+01  1.00800000E+00  1.00800000E+00  1.20100000E+01  1.00800000E+00
  1.00800000E+00  1.60000000E+01  1.20100000E+01  1.60000000E+01  1.20100000E+01
  1.20100000E+01  1.20100000E+01  1.00800000E+00  1.00800000E+00  1.20100000E+01
  1.00800000E+00  1.20100000E+01  1.00800000E+00  1.20100000E+01  1.20100000E+01
  1.60000000E+01  1.60000000E+01  1.20100000E+01  1.00800000E+00  1.00800000E+00
  1.20100000E+01  1.00800000E+00  1.00800000E+00  1.20100000E+01  1.00800000E+00
  1.00800000E+00  1.20100000E+01  1.00800000E+00  1.00800000E+00  1.60000000E+01
  1.20100000E+01  1.60000000E+01  1.20100000E+01  1.20100000E+01  1.20100000E+01
  1.00800000E+00  1.00800000E+00  1.20100000E+01  1.00800000E+00  1.20100000E+01
  1.00800000E+00  1.20100000E+01  1.20100000E+01  1.60000000E+01  1.60000000E+01
  1.20100000E+01  1.00800000E+00  1.00800000E+00  1.20100000E+01  1.00800000E+00
  1.00800000E+00  1.20100000E+01  1.00800000E+00  1.00800000E+00  1.20100000E+01
  1.00800000E+00  1.00800000E+00  1.60000000E+01  1.20100000E+01  1.60000000E+01
  1.20100000E+01  1.20100000E+01  1.20100000E+01  1.00800000E+00  1.00800000E+00
  1.20100000E+01  1.00800000E+00  1.20100000E+01  1.00800000E+00  1.20100000E+01
  1.20100000E+01  1.60000000E+01  1.60000000E+01  1.20100000E+01  1.00800000E+00
  1.00800000E+00  1.20100000E+01  1.00800000E+00  1.00800000E+00  1.20100000E+01
  1.00800000E+00  1.00800000E+00  1.20100000E+01  1.00800000E+00  1.00800000E+00
  1.60000000E+01  1.20100000E+01  1.60000000E+01  1.20100000E+01  1.20100000E+01
  1.20100000E+01  1.00800000E+00  1.00800000E+00  1.20100000E+01  1.00800000E+00
  1.20100000E+01  1.00800000E+00  1.20100000E+01  1.20100000E+01  1.60000000E+01
  1.60000000E+01  1.20100000E+01  1.00800000E+00  1.00800000E+00  1.20100000E+01
  1.00800000E+00  1.00800000E+00  1.20100000E+01  1.00800000E+00  1.00800000E+00
  1.20100000E+01  1.00800000E+00  1.00800000E+00  1.60000000E+01  1.20100000E+01
  1.60000000E+01  1.20100000E+01  1.20100000E+01  1.20100000E+01  1.00800000E+00
  1.00800000E+00  1.20100000E+01  1.00800000E+00  1.20100000E+01  1.00800000E+00
  1.20100000E+01  1.20100000E+01  1.60000000E+01  1.60000000E+01  1.20100000E+01
  1.00800000E+00  1.00800000E+00  1.20100000E+01  1.00800000E+00  1.00800000E+00
  1.20100000E+01  1.00800000E+00  1.00800000E+00  1.20100000E+01  1.00800000E+00
  1.00800000E+00  1.60000000E+01  1.20100000E+01  1.60000000E+01  1.20100000E+01
  1.20100000E+01  1.20100000E+01  1.00800000E+00  1.00800000E+00  1.20100000E+01
  1.00800000E+00  1.20100000E+01  1.00800000E+00  1.20100000E+01  1.20100000E+01
  1.60000000E+01  1.60000000E+01  1.20100000E+01  1.00800000E+00  1.00800000E+00
  1.20100000E+01  1.00800000E+00  1.00800000E+00  1.20100000E+01  1.00800000E+00
  1.00800000E+00  1.20100000E+01  1.00800000E+00  1.00800000E+00  1.60000000E+01
  1.20100000E+01  1.60000000E+01  1.20100000E+01  1.20100000E+01  1.20100000E+01
  1.00800000E+00  1.00800000E+00  1.20100000E+01  1.00800000E+00  1.20100000E+01
  1.00800000E+00  1.20100000E+01  1.20100000E+01  1.60000000E+01  1.60000000E+01
  1.20100000E+01  1.00800000E+00  1.00800000E+00  1.20100000E+01  1.00800000E+00
  1.00800000E+00  1.20100000E+01  1.00800000E+00  1.00800000E+00  1.20100000E+01
  1.00800000E+00  1.00800000E+00  1.60000000E+01  1.20100000E+01  1.60000000E+01
  1.20100000E+01  1.20100000E+01  1.20100000E+01  1.00800000E+00  1.00800000E+00
  1.20100000E+01  1.00800000E+00  1.20100000E+01  1.00800000E+00  1.20100000E+01
  1.20100000E+01  1.60000000E+01  1.60000000E+01  1.20100000E+01  1.00800000E+00
  1.00800000E+00  1.20100000E+01  1.00800000E+00  1.00800000E+00  1.20100000E+01
  1.00800000E+00  1.00800000E+00  1.20100000E+01  1.00800000E+00  1.00800000E+00
  1.60000000E+01  1.20100000E+01  1.60000000E+01  1.20100000E+01  1.20100000E+01
  1.20100000E+01  1.00800000E+00  1.00800000E+00  1.20100000E+01  1.00800000E+00
  1.20100000E+01  1.00800000E+00  1.20100000E+01  1.20100000E+01  1.60000000E+01
  1.60000000E+01  1.20100000E+01  1.00800000E+00  1.00800000E+00  1.20100000E+01
  1.00800000E+00  1.00800000E+00  1.20100000E+01  1.00800000E+00  1.00800000E+00
%FLAG ATOM_TYPE_INDEX                                                           
%FORMAT(10I8)                                                                   
       1       2       2       3       1       2       2       1       2       2
       3       1       2       2       1       2       2       3       1       2
       2       1       2       2       3       1       2       2       1       2
       2       3       1       2       2       1       2       2       3       1
       2       2       1       2       2       3       1       2       2       1
       2       2       3       1       2       2       1       2       2       3
       1       2       2       1       2       2       3       1       2       2
       1       2       2       3       1       2       2       1       2       2
       3       1       2       2       1       2       2       3       1       2
       2       1       2       2       3       1       2       2       1       2
       2       3       1       2       2       1       2       2       3       1
       2       2       1       2       2       3       1       2       2       1
       2       2       3       1       2       2       1       2       2       3
       1       2       2       1       2       2       3       1       2       2
       1       2       2       3       1       2       2       1       2       2
       3       1       2       2       1       2       2       3       1       2
       2       1       2       2       3       1       2       2       1       2
       2       3       1       2       2       1       2       2       3       4
       5       4       4       4       6       6       4       6       4       6
       4       4       5       3       1       2       2       1       7       7
       1       7       7       1       2       2       3       4       5       4
       4       4       6       6       4       6       4       6       4       4
       5       3       1       2       2       1       7       7       1       7
       7       1       2       2       3       4       5       4       4       4
       6       6       4       6       4       6       4       4       5       3
       1       2       2       1       7       7       1       7       7       1
       2       2       3       4       5       4       4       4       6       6
       4       6       4       6       4       4       5       3       1       2
       2       1       7       7       1       7       7       1       2       2
       3       4       5       4       4       4       6       6       4       6
       4       6       4       4       5       3       1       2       2       1
       7       7       1       7       7       1       2       2       3       4
       5       4       4       4       6       6       4       6       4       6
       4       4       5       3       1       2       2       1       7       7
       1       7       7       1       2       2       3       4       5       4
       4       4       6       6       4       6       4       6       4       4
       5       3       1       2       2       1       7       7       1       7
       7       1       2       2       3       4       5       4       4       4
       6       6       4       6       4       6       4       4       5       3
       1       2       2       1       7       7       1       7       7       1
       2       2       3       4       5       4       4       4       6       6
       4       6       4       6       4       4       5       3       1       2
       2       1       7       7       1       7       7       1       2       2
       3       4       5       4       4       4       6       6       4       6
       4       6       4       4       5       3       1       2       2       1
       7       7       1       7       7       1       2       2       3       4
       5       4       4       4       6       6       4       6       4       6
       4       4       5       3       1       2       2       1       7       7
       1       7       7       1       2       2       3       4       5       4
       4       4       6       6       4       6       4       6       4       4
       5       3       1       2       2       1       7       7       1       7
       7       1       2       2       3       4       5       4       4       4
       6       6       4       6       4       6       4       4       5       3
       1       2       2       1       7       7       1       7       7       1
       2       2       3       4       5       4       4       4       6       6
       4       6       4       6       4       4       5       3       1       2
       2       1       7       7       1       7       7       1       2       2
       3       4       5       4       4       4       6       6       4       6
       4       6       4       4       5       3       1       2       2       1
       7       7       1       7       7       1       2       2       3       4
       5       4       4       4       6       6       4       6       4       6
       4       4       5       3       1       2       2       1       7       7
       1       7       7       1       2       2       3       4       5       4
       4       4       6       6       4       6       4       6       4       4
       5       3       1       2       2       1       7       7       1       7
       7       1       2       2       3       4       5       4       4       4
       6       6       4       6       4       6       4       4       5       3
       1       2       2       1       7       7       1       7       7       1
       2       2       3       4       5       4       4       4       6       6
       4       6       4       6       4       4       5       3       1       2
       2       1       7       7       1       7       7       1       2       2
       3       4       5       4       4       4       6       6       4       6
       4       6       4       4       5       3       1       2       2       1
       7       7       1       7       7       1       2       2       3       4
       5       4       4       4       6       6       4       6       4       6
       4       4       5       3       1       2       2       1       7       7
       1       7       7       1       2       2       3       4       5       4
       4       4       6       6       4       6       4       6       4       4
       5       3       1       2       2       1       7       7       1       7
       7       1       2       2       3       4       5       4       4       4
       6       6       4       6       4       6       4       4       5       3
       1       2       2       1       7       7       1       7       7       1
       2       2       3       4       5       4       4       4       6       6
       4       6       4       6       4       4       5       3       1       2
       2       1       7       7       1       7       7       1       2       2
       3       4       5       4       4       4       6       6       4       6
       4       6       4       4       5       3       1       2       2       1
       7       7       1       7       7
%FLAG NUMBER_EXCLUDED_ATOMS                                                     
%FORMAT(10I8)                                                                   
       7       3       2       7       7       5       4       7       3       2
       7       7       5       4       7       3       2       7       7       5
       4       7       3       2       7       7       5       4       7       3
       2       7       7       5       4       7       3       2       7       7
       5       4       7       3       2       7       7       5       4       7
       3       2       7       7       5       4       7       3       2       7
       7       5       4       7       3       2       7       7       5       4
       7       3       2       7       7       5       4       7       3       2
       7       7       5       4       7       3       2       7       7       5
       4       7       3       2       7       7       5       4       7       3
       2       7       7       5       4       7       3       2       7       7
       5       4       7       3       2       7       7       5       4       7
       3       2       7       7       5       4       7       3       2       7
       7       5       4       7       3       2       7       7       5       4
       7       3       2       7       7       5       4       7       3       2
       7       7       5       4       7       3       2       7       7       5
       4       7       3       2       7       7       5       4       7       3
       2       7       7       5       4       6       3       2       5       8
       3       9       8       9       4       2       5       3       5       2
       4       6       2       7       9       5       4       9       5       4
       7       5       4       6       3       2       5       8       3       9
       8       9       4       2       5       3       5       2       4       6
       2       7       9       5       4       9       5       4       7       5
       4       6       3       2       5       8       3       9       8       9
       4       2       5       3       5       2       4       6       2       7
       9       5       4       9       5       4       7       5       4       6
       3       2       5       8       3       9       8       9       4       2
       5       3       5       2       4       6       2       7       9       5
       4       9       5       4       7       5       4       6       3       2
       5       8       3       9       8       9       4       2       5       3
       5       2       4       6       2       7       9       5       4       9
       5       4       7       5       4       6       3       2       5       8
       3       9       8       9       4       2       5       3       5       2
       4       6       2       7       9       5       4       9       5       4
       7       5       4       6       3       2       5       8       3       9
       8       9       4       2       5       3       5       2       4       6
       2       7       9       5       4       9       5       4       7       5
       4       6       3       2       5       8       3       9       8       9
       4       2       5       3       5       2       4       6       2       7
       9       5       4       9       5       4       7       5       4       6
       3       2       5       8       3       9       8       9       4       2
       5       3       5       2       4       6       2       7       9       5
       4       9       5       4       7       5       4       6       3       2
       5       8       3       9       8       9       4       2       5       3
       5       2       4       6       2       7       9       5       4       9
       5       4       7       5       4       6       3       2       5       8
       3       9       8       9       4       2       5       3       5       2
       4       6       2       7       9       5       4       9       5       4
       7       5       4       6       3       2       5       8       3       9
       8       9       4       2       5       3       5       2       4       6
       2       7       9       5       4       9       5       4       7       5
       4       6       3       2       5       8       3       9       8       9
       4       2       5       3       5       2       4       6       2       7
       9       5       4       9       5       4       7       5       4       6
       3       2       5       8       3       9       8       9       4       2
       5       3       5       2       4       6       2       7       9       5
       4       9       5       4       7       5       4       6       3       2
       5       8       3       9       8       9       4       2       5       3
       5       2       4       6       2       7       9       5       4       9
       5       4       7       5       4       6       3       2       5       8
       3       9       8       9       4       2       5       3       5       2
       4       6       2       7       9       5       4       9       5       4
       7       5       4       6       3       2       5       8       3       9
       8       9       4       2       5       3       5       2       4       6
       2       7       9       5       4       9       5       4       7       5
       4       6       3       2       5       8       3       9       8       9
       4       2       5       3       5       2       4       6       2       7
       9       5       4       9       5       4       7       5       4       6
       3       2       5       8       3       9       8       9       4       2
       5       3       5       2       4       6       2       7       9       5
       4       9       5       4       7       5       4       6       3       2
       5       8       3       9       8       9       4       2       5       3
       5       2       4       6       2       7       9       5       4       9
       5       4       7       5       4       6       3       2       5       8
       3       9       8       9       4       2       5       3       5       2
       4       6       2       7       9       5       4       9       5       4
       7       5       4       6       3       2       5       8       3       9
       8       9       4       2       5       3       5       2       4       6
       2       7       9       5       4       9       5       4       7       5
       4       6       3       2       5       8       3       9       8       9
       4       2       5       3       5       2       4       6       2       7
       9       5       4       9       5       4       7       5       4       6
       3       2       5       8       3       9       8       9       4       2
       5       3       5       2       4       6       2       7       9       5
       4       9       5       4       7       5       4       6       3       2
       5       8       3       9       8       9       4       2       5       3
       5       2       4       6       2       7       8       5       4       5
       4       3       2       1       1
%FLAG NONBONDED_PARM_INDEX                                                      
%FORMAT(10I8)                                                                   
       1       2       4       7      11      16      22       2       3       5
       8      12      17      23       4       5       6       9      13      18
      24       7       8       9      10      14      19      25      11      12
      13      14      15      20      26      16      17      18      19      20
      21      27      22      23      24      25      26      27      28
%FLAG RESIDUE_LABEL                                                             
%FORMAT(20a4)                                                                   
PEO PEO PEO PEO PEO PET PET PET PET PET PET PET PET PET PET PET PET PET PET PET 
PET PET PET PET PET PET PET PET PET PET 
%FLAG RESIDUE_POINTER                                                           
%FORMAT(10I8)                                                                   
       1      36      71     106     141     176     204     232     260     288
     316     344     372     400     428     456     484     512     540     568
     596     624     652     680     708     736     764     792     820     848
%FLAG BOND_FORCE_CONSTANT                                                       
%FORMAT(5E16.8)                                                                 
  3.44220000E+02  2.28890000E+02  2.82270000E+02  3.45250000E+02  5.90600000E+02
  3.51310000E+02  2.62840000E+02  3.60690000E+02  3.54250000E+02
%FLAG BOND_EQUIL_VALUE                                                          
%FORMAT(5E16.8)                                                                 
  1.09690000E+00  1.53540000E+00  1.42730000E+00  1.09620000E+00  1.21900000E+00
  1.36210000E+00  1.49070000E+00  1.08600000E+00  1.39860000E+00
%FLAG ANGLE_FORCE_CONSTANT                                                      
%FORMAT(5E16.8)                                                                 
  4.32800000E+01  3.56400000E+01  7.74400000E+01  5.62000000E+01  8.83300000E+01
  4.32700000E+01  3.58000000E+01  5.98700000E+01  1.01260000E+02  8.94300000E+01
  7.79600000E+01  7.85800000E+01  4.49000000E+01  6.14400000E+01  6.36700000E+01
%FLAG ANGLE_EQUIL_VALUE                                                         
%FORMAT(5E16.8)                                                                 
  1.91270715E+00  1.89455572E+00  1.87832415E+00  1.92579712E+00  1.98269488E+00
  1.91427794E+00  1.88024401E+00  1.96576518E+00  2.15024656E+00  2.02144121E+00
  2.13977458E+00  1.96192545E+00  2.09230160E+00  2.10015559E+00  2.09474507E+00
%FLAG DIHEDRAL_FORCE_CONSTANT                                                   
%FORMAT(5E16.8)                                                                 
  1.55555556E-01  2.50000000E-01  0.00000000E+00  8.80000000E-01  8.00000000E-02
  7.50000000E-01  1.80000000E-01  9.00000000E-01  5.00000000E-01  3.37000000E-01
  8.00000000E-01  3.83000000E-01  1.20000000E-01  1.30000000E-01  5.20000000E-01
  1.40000000E+00  2.70000000E+00  3.83333333E-01  1.60000000E+00  3.67000000E+00
  3.10000000E-01  3.62500000E+00  5.80000000E-01  1.00000000E+00  1.05000000E+01
  1.10000000E+00
%FLAG DIHEDRAL_PERIODICITY                                                      
%FORMAT(5E16.8)                                                                 
  3.00000000E+00  1.00000000E+00  3.00000000E+00  1.00000000E+00  2.00000000E+00
  3.00000000E+00  1.00000000E+00  2.00000000E+00  3.00000000E+00  3.00000000E+00
  1.00000000E+00  3.00000000E+00  3.00000000E+00  3.00000000E+00  3.00000000E+00
  1.00000000E+00  2.00000000E+00  3.00000000E+00  1.00000000E+00  2.00000000E+00
  3.00000000E+00  2.00000000E+00  2.00000000E+00  2.00000000E+00  2.00000000E+00
  2.00000000E+00
%FLAG DIHEDRAL_PHASE                                                            
%FORMAT(5E16.8)                                                                 
  0.00000000E+00  0.00000000E+00  0.00000000E+00  3.14159400E+00  0.00000000E+00
  0.00000000E+00  0.00000000E+00  0.00000000E+00  0.00000000E+00  0.00000000E+00
  3.14159400E+00  0.00000000E+00  0.00000000E+00  0.00000000E+00  0.00000000E+00
  3.14159400E+00  3.14159400E+00  0.00000000E+00  3.14159400E+00  3.14159400E+00
  0.00000000E+00  3.14159400E+00  3.14159400E+00  3.14159400E+00  3.14159400E+00
  3.14159400E+00
%FLAG SCEE_SCALE_FACTOR                                                         
%FORMAT(5E16.8)                                                                 
  1.20000000E+00  1.20000000E+00  1.20000000E+00  1.20000000E+00  1.20000000E+00
  1.20000000E+00  1.20000000E+00  1.20000000E+00  1.20000000E+00  1.20000000E+00
  1.20000000E+00  1.20000000E+00  1.20000000E+00  1.20000000E+00  1.20000000E+00
  1.20000000E+00  1.20000000E+00  1.20000000E+00  1.20000000E+00  1.20000000E+00
  1.20000000E+00  1.20000000E+00  1.20000000E+00  1.20000000E+00  0.00000000E+00
  0.00000000E+00
%FLAG SCNB_SCALE_FACTOR                                                         
%FORMAT(5E16.8)                                                                 
  2.00000000E+00  2.00000000E+00  2.00000000E+00  2.00000000E+00  2.00000000E+00
  2.00000000E+00  2.00000000E+00  2.00000000E+00  2.00000000E+00  2.00000000E+00
  2.00000000E+00  2.00000000E+00  2.00000000E+00  2.00000000E+00  2.00000000E+00
  2.00000000E+00  2.00000000E+00  2.00000000E+00  2.00000000E+00  2.00000000E+00
  2.00000000E+00  2.00000000E+00  2.00000000E+00  2.00000000E+00  0.00000000E+00
  0.00000000E+00
%FLAG SOLTY                                                                     
%FORMAT(5E16.8)                                                                 
  0.00000000E+00  0.00000000E+00  0.00000000E+00  0.00000000E+00  0.00000000E+00
  0.00000000E+00  0.00000000E+00  0.00000000E+00
%FLAG LENNARD_JONES_ACOEF                                                       
%FORMAT(5E16.8)                                                                 
  1.02073671E+06  6.97998263E+04  3.39005767E+03  5.42502534E+05  3.44374471E+04
  2.83662575E+05  8.43969952E+05  5.63013422E+04  4.46121722E+05  6.96551276E+05
  6.30925504E+05  3.86646725E+04  3.27367585E+05  5.17507491E+05  3.76435470E+05
  9.27554496E+04  4.88692384E+03  4.65732396E+04  7.52549148E+04  5.27277400E+04
  6.90855956E+03  1.00235148E+05  5.22955465E+03  5.02224902E+04  8.12662403E+04
  5.68021765E+04  7.41026906E+03  7.94617769E+03
%FLAG LENNARD_JONES_BCOEF                                                       
%FORMAT(5E16.8)                                                                 
  6.63431737E+02  1.14981426E+02  1.67944276E+01  4.38146883E+02  7.31636661E+01
  2.87011518E+02  5.90251928E+02  1.01040256E+02  3.88758656E+02  5.24668528E+02
  5.62969425E+02  9.23664132E+01  3.67361018E+02  4.98871431E+02  4.69350655E+02
  1.24325688E+02  1.89134207E+01  7.98066064E+01  1.09570372E+02  1.01173582E+02
  2.10929191E+01  1.37787728E+02  2.08590256E+01  8.83545880E+01  1.21392023E+02
  1.11953944E+02  2.32899892E+01  2.57122925E+01
%FLAG BONDS_INC_HYDROGEN                                                        
%FORMAT(10I8)                                                                   
      96      99       1      96     102       1      84      87       1      84
      90       1      75      78       1      75      81       1      63      66
       1      63      69       1      54      57       1      54      60       1
      42      45       1      42      48       1      33      36       1      33
      39       1      21      24       1      21      27       1      12      15
       1      12      18       1       0       3       1       0       6       1
     201     204       1     201     207       1     189     192       1     189
     195       1     180     183       1     180     186       1     168     171
       1     168     174       1     159     162       1     159     165       1
     147     150       1     147     153       1     138     141       1     138
     144       1     126     129       1     126     132       1     117     120
       1     117     123       1     105     108       1     105     111       1
     306     309       1     306     312       1     294     297       1     294
     300       1     285     288       1     285     291       1     273     276
       1     273     279       1     264     267       1     264     270       1
     252     255       1     252     258       1     243     246       1     243
     249       1     231     234       1     231     237       1     222     225
       1     222     228       1     210     213       1     210     216       1
     411     414       1     411     417       1     399     402       1     399
     405       1     390     393       1     390     396       1     378     381
       1     378     384       1     369     372       1     369     375       1
     357     360       1     357     363       1     348     351       1     348
     354       1     336     339       1     336     342       1     327     330
       1     327     333       1     315     318       1     315     321       1
     516     519       1     516     522       1     504     507       1     504
     510       1     495     498       1     495     501       1     483     486
       1     483     489       1     474     477       1     474     480       1
     462     465       1     462     468       1     453     456       1     453
     459       1     441     444       1     441     447       1     432     435
       1     432     438       1     420     423       1     420     426       1
     600     603       4     600     606       4     591     594       4     591
     597       4     582     585       1     582     588       1     564     567
       8     558     561       8     549     552       8     546     555       8
     525     528       1     525     531       1     684     687       4     684
     690       4     675     678       4     675     681       4     666     669
       1     666     672       1     648     651       8     642     645       8
     633     636       8     630     639       8     609     612       1     609
     615       1     768     771       4     768     774       4     759     762
       4     759     765       4     750     753       1     750     756       1
     732     735       8     726     729       8     717     720       8     714
     723       8     693     696       1     693     699       1     852     855
       4     852     858       4     843     846       4     843     849       4
     834     837       1     834     840       1     816     819       8     810
     813       8     801     804       8     798     807       8     777     780
       1     777     783       1     936     939       4     936     942       4
     927     930       4     927     933       4     918     921       1     918
     924       1     900     903       8     894     897       8     885     888
       8     882     891       8     861     864       1     861     867       1
    1020    1023       4    1020    1026       4    1011    1014       4    1011
    1017       4    1002    1005       1    1002    1008       1     984     987
       8     978     981       8     969     972       8     966     975       8
     945     948       1     945     951       1    1104    1107       4    1104
    1110       4    1095    1098       4    1095    1101       4    1086    1089
       1    1086    1092       1    1068    1071       8    1062    1065       8
    1053    1056       8    1050    1059       8    1029    1032       1    1029
    1035       1    1188    1191       4    1188    1194       4    1179    1182
       4    1179    1185       4    1170    1173       1    1170    1176       1
    1152    1155       8    1146    1149       8    1137    1140       8    1134
    1143       8    1113    1116       1    1113    1119       1    1272    1275
       4    1272    1278       4    1263    1266       4    1263    1269       4
    1254    1257       1    1254    1260       1    1236    1239       8    1230
    1233       8    1221    1224       8    1218    1227       8    1197    1200
       1    1197    1203       1    1356    1359       4    1356    1362       4
    1347    1350       4    1347    1353       4    1338    1341       1    1338
    1344       1    1320    1323       8    1314    1317       8    1305    1308
       8    1302    1311       8    1281    1284       1    1281    1287       1
    1440    1443       4    1440    1446       4    1431    1434       4    1431
    1437       4    1422    1425       1    1422    1428       1    1404    1407
       8    1398    1401       8    1389    1392       8    1386    1395       8
    1365    1368       1    1365    1371       1    1524    1527       4    1524
    1530       4    1515    1518       4    1515    1521       4    1506    1509
       1    1506    1512       1    1488    1491       8    1482    1485       8
    1473    1476       8    1470    1479       8    1449    1452       1    1449
    1455       1    1608    1611       4    1608    1614       4    1599    1602
       4    1599    1605       4    1590    1593       1    1590    1596       1
    1572    1575       8    1566    1569       8    1557    1560       8    1554
    1563       8    1533    1536       1    1533    1539       1    1692    1695
       4    1692    1698       4    1683    1686       4    1683    1689       4
    1674    1677       1    1674    1680       1    1656    1659       8    1650
    1653       8    1641    1644       8    1638    1647       8    1617    1620
       1    1617    1623       1    1776    1779       4    1776    1782       4
    1767    1770       4    1767    1773       4    1758    1761       1    1758
    1764       1    1740    1743       8    1734    1737       8    1725    1728
       8    1722    1731       8    1701    1704       1    1701    1707       1
    1860    1863       4    1860    1866       4    1851    1854       4    1851
    1857       4    1842    1845       1    1842    1848       1    1824    1827
       8    1818    1821       8    1809    1812       8    1806    1815       8
    1785    1788       1    1785    1791       1    1944    1947       4    1944
    1950       4    1935    1938       4    1935    1941       4    1926    1929
       1    1926    1932       1    1908    1911       8    1902    1905       8
    1893    1896       8    1890    1899       8    1869    1872       1    1869
    1875       1    2028    2031       4    2028    2034       4    2019    2022
       4    2019    2025       4    2010    2013       1    2010    2016       1
    1992    1995       8    1986    1989       8    1977    1980       8    1974
    1983       8    1953    1956       1    1953    1959       1    2112    2115
       4    2112    2118       4    2103    2106       4    2103    2109       4
    2094    2097       1    2094    2100       1    2076    2079       8    2070
    2073       8    2061    2064       8    2058    2067       8    2037    2040
       1    2037    2043       1    2196    2199       4    2196    2202       4
    2187    2190       4    2187    2193       4    2178    2181       1    2178
    2184       1    2160    2163       8    2154    2157       8    2145    2148
       8    2142    2151       8    2121    2124       1    2121    2127       1
    2280    2283       4    2280    2286       4    2271    2274       4    2271
    2277       4    2262    2265       1    2262    2268       1    2244    2247
       8    2238    2241       8    2229    2232       8    2226    2235       8
    2205    2208       1    2205    2211       1    2364    2367       4    2364
    2370       4    2355    2358       4    2355    2361       4    2346    2349
       1    2346    2352       1    2328    2331       8    2322    2325       8
    2313    2316       8    2310    2319       8    2289    2292       1    2289
    2295       1    2448    2451       4    2448    2454       4    2439    2442
       4    2439    2445       4    2430    2433       1    2430    2436       1
    2412    2415       8    2406    2409       8    2397    2400       8    2394
    2403       8    2373    2376       1    2373    2379       1    2532    2535
       4    2532    2538       4    2523    2526       4    2523    2529       4
    2514    2517       1    2514    2520       1    2496    2499       8    2490
    2493       8    2481    2484       8    2478    2487       8    2457    2460
       1    2457    2463       1    2616    2619       4    2616    2622       4
    2607    2610       4    2607    2613       4    2598    2601       1    2598
    2604       1    2580    2583       8    2574    2577       8    2565    2568
       8    2562    2571       8    2541    2544       1    2541    2547       1
%FLAG BONDS_WITHOUT_HYDROGEN                                                    
%FORMAT(10I8)                                                                   
      96     105       2      93      96       3      84      93       3      75
      84       2      72      75       3      63      72       3      54      63
       2      51      54       3      42      51       3      33      42       2
      30      33       3      21      30       3      12      21       2       9
      12       3       0       9       3     201     210       2     198     201
       3     189     198       3     180     189       2     177     180       3
     168     177       3     159     168       2     156     159       3     147
     156       3     138     147       2     135     138       3     126     135
       3     117     126       2     114     117       3     105     114       3
     306     315       2     303     306       3     294     303       3     285
     294       2     282     285       3     273     282       3     264     273
       2     261     264       3     252     261       3     243     252       2
     240     243       3     231     240       3     222     231       2     219
     222       3     210     219       3     411     420       2     408     411
       3     399     408       3     390     399       2     387     390       3
     378     387       3     369     378       2     366     369       3     357
     366       3     348     357       2     345     348       3     336     345
       3     327     336       2     324     327       3     315     324       3
     516     525       2     513     516       3     504     513       3     495
     504       2     492     495       3     483     492       3     474     483
       2     471     474       3     462     471       3     453     462       2
     450     453       3     441     450       3     432     441       2     429
     432       3     420     429       3     600     609       2     591     600
       2     582     591       2     579     582       3     573     576       5
     573     579       6     570     573       7     564     570       9     558
     564       9     549     570       9     546     549       9     543     546
       9     543     558       9     537     540       5     537     543       7
     534     537       6     525     534       3     684     693       2     675
     684       2     666     675       2     663     666       3     657     660
       5     657     663       6     654     657       7     648     654       9
     642     648       9     633     654       9     630     633       9     627
     630       9     627     642       9     621     624       5     621     627
       7     618     621       6     609     618       3     768     777       2
     759     768       2     750     759       2     747     750       3     741
     744       5     741     747       6     738     741       7     732     738
       9     726     732       9     717     738       9     714     717       9
     711     714       9     711     726       9     705     708       5     705
     711       7     702     705       6     693     702       3     852     861
       2     843     852       2     834     843       2     831     834       3
     825     828       5     825     831       6     822     825       7     816
     822       9     810     816       9     801     822       9     798     801
       9     795     798       9     795     810       9     789     792       5
     789     795       7     786     789       6     777     786       3     936
     945       2     927     936       2     918     927       2     915     918
       3     909     912       5     909     915       6     906     909       7
     900     906       9     894     900       9     885     906       9     882
     885       9     879     882       9     879     894       9     873     876
       5     873     879       7     870     873       6     861     870       3
    1020    1029       2    1011    1020       2    1002    1011       2     999
    1002       3     993     996       5     993     999       6     990     993
       7     984     990       9     978     984       9     969     990       9
     966     969       9     963     966       9     963     978       9     957
     960       5     957     963       7     954     957       6     945     954
       3    1104    1113       2    1095    1104       2    1086    1095       2
    1083    1086       3    1077    1080       5    1077    1083       6    1074
    1077       7    1068    1074       9    1062    1068       9    1053    1074
       9    1050    1053       9    1047    1050       9    1047    1062       9
    1041    1044       5    1041    1047       7    1038    1041       6    1029
    1038       3    1188    1197       2    1179    1188       2    1170    1179
       2    1167    1170       3    1161    1164       5    1161    1167       6
    1158    1161       7    1152    1158       9    1146    1152       9    1137
    1158       9    1134    1137       9    1131    1134       9    1131    1146
       9    1125    1128       5    1125    1131       7    1122    1125       6
    1113    1122       3    1272    1281       2    1263    1272       2    1254
    1263       2    1251    1254       3    1245    1248       5    1245    1251
       6    1242    1245       7    1236    1242       9    1230    1236       9
    1221    1242       9    1218    1221       9    1215    1218       9    1215
    1230       9    1209    1212       5    1209    1215       7    1206    1209
       6    1197    1206       3    1356    1365       2    1347    1356       2
    1338    1347       2    1335    1338       3    1329    1332       5    1329
    1335       6    1326    1329       7    1320    1326       9    1314    1320
       9    1305    1326       9    1302    1305       9    1299    1302       9
    1299    1314       9    1293    1296       5    1293    1299       7    1290
    1293       6    1281    1290       3    1440    1449       2    1431    1440
       2    1422    1431       2    1419    1422       3    1413    1416       5
    1413    1419       6    1410    1413       7    1404    1410       9    1398
    1404       9    1389    1410       9    1386    1389       9    1383    1386
       9    1383    1398       9    1377    1380       5    1377    1383       7
    1374    1377       6    1365    1374       3    1524    1533       2    1515
    1524       2    1506    1515       2    1503    1506       3    1497    1500
       5    1497    1503       6    1494    1497       7    1488    1494       9
    1482    1488       9    1473    1494       9    1470    1473       9    1467
    1470       9    1467    1482       9    1461    1464       5    1461    1467
       7    1458    1461       6    1449    1458       3    1608    1617       2
    1599    1608       2    1590    1599       2    1587    1590       3    1581
    1584       5    1581    1587       6    1578    1581       7    1572    1578
       9    1566    1572       9    1557    1578       9    1554    1557       9
    1551    1554       9    1551    1566       9    1545    1548       5    1545
    1551       7    1542    1545       6    1533    1542       3    1692    1701
       2    1683    1692       2    1674    1683       2    1671    1674       3
    1665    1668       5    1665    1671       6    1662    1665       7    1656
    1662       9    1650    1656       9    1641    1662       9    1638    1641
       9    1635    1638       9    1635    1650       9    1629    1632       5
    1629    1635       7    1626    1629       6    1617    1626       3    1776
    1785       2    1767    1776       2    1758    1767       2    1755    1758
       3    1749    1752       5    1749    1755       6    1746    1749       7
    1740    1746       9    1734    1740       9    1725    1746       9    1722
    1725       9    1719    1722       9    1719    1734       9    1713    1716
       5    1713    1719       7    1710    1713       6    1701    1710       3
    1860    1869       2    1851    1860       2    1842    1851       2    1839
    1842       3    1833    1836       5    1833    1839       6    1830    1833
       7    1824    1830       9    1818    1824       9    1809    1830       9
    1806    1809       9    1803    1806       9    1803    1818       9    1797
    1800       5    1797    1803       7    1794    1797       6    1785    1794
       3    1944    1953       2    1935    1944       2    1926    1935       2
    1923    1926       3    1917    1920       5    1917    1923       6    1914
    1917       7    1908    1914       9    1902    1908       9    1893    1914
       9    1890    1893       9    1887    1890       9    1887    1902       9
    1881    1884       5    1881    1887       7    1878    1881       6    1869
    1878       3    2028    2037       2    2019    2028       2    2010    2019
       2    2007    2010       3    2001    2004       5    2001    2007       6
    1998    2001       7    1992    1998       9    1986    1992       9    1977
    1998       9    1974    1977       9    1971    1974       9    1971    1986
       9    1965    1968       5    1965    1971       7    1962    1965       6
    1953    1962       3    2112    2121       2    2103    2112       2    2094
    2103       2    2091    2094       3    2085    2088       5    2085    2091
       6    2082    2085       7    2076    2082       9    2070    2076       9
    2061    2082       9    2058    2061       9    2055    2058       9    2055
    2070       9    2049    2052       5    2049    2055       7    2046    2049
       6    2037    2046       3    2196    2205       2    2187    2196       2
    2178    2187       2    2175    2178       3    2169    2172       5    2169
    2175       6    2166    2169       7    2160    2166       9    2154    2160
       9    2145    2166       9    2142    2145       9    2139    2142       9
    2139    2154       9    2133    2136       5    2133    2139       7    2130
    2133       6    2121    2130       3    2280    2289       2    2271    2280
       2    2262    2271       2    2259    2262       3    2253    2256       5
    2253    2259       6    2250    2253       7    2244    2250       9    2238
    2244       9    2229    2250       9    2226    2229       9    2223    2226
       9    2223    2238       9    2217    2220       5    2217    2223       7
    2214    2217       6    2205    2214       3    2364    2373       2    2355
    2364       2    2346    2355       2    2343    2346       3    2337    2340
       5    2337    2343       6    2334    2337       7    2328    2334       9
    2322    2328       9    2313    2334       9    2310    2313       9    2307
    2310       9    2307    2322       9    2301    2304       5    2301    2307
       7    2298    2301       6    2289    2298       3    2448    2457       2
    2439    2448       2    2430    2439       2    2427    2430       3    2421
    2424       5    2421    2427       6    2418    2421       7    2412    2418
       9    2406    2412       9    2397    2418       9    2394    2397       9
    2391    2394       9    2391    2406       9    2385    2388       5    2385
    2391       7    2382    2385       6    2373    2382       3    2532    2541
       2    2523    2532       2    2514    2523       2    2511    2514       3
    2505    2508       5    2505    2511       6    2502    2505       7    2496
    2502       9    2490    2496       9    2481    2502       9    2478    2481
       9    2475    2478       9    2475    2490       9    2469    2472       5
    2469    2475       7    2466    2469       6    2457    2466       3    2607
    2616       2    2598    2607       2    2595    2598       3    2589    2592
       5    2589    2595       6    2586    2589       7    2580    2586       9
    2574    2580       9    2565    2586       9    2562    2565       9    2559
    2562       9    2559    2574       9    2553    2556       5    2553    2559
       7    2550    2553       6    2541    2550       3
%FLAG ANGLES_INC_HYDROGEN                                                       
%FORMAT(10I8)                                                                   
     102      96     105       1      99      96     102       2      99      96
     105       1      96     105     108       1      96     105     111       1
      93      96      99       4      93      96     102       4      90      84
      93       4      87      84      90       2      87      84      93       4
      81      75      84       1      78      75      81       2      78      75
      84       1      75      84      87       1      75      84      90       1
      72      75      78       4      72      75      81       4      69      63
      72       4      66      63      69       2      66      63      72       4
      60      54      63       1      57      54      60       2      57      54
      63       1      54      63      66       1      54      63      69       1
      51      54      57       4      51      54      60       4      48      42
      51       4      45      42      48       2      45      42      51       4
      39      33      42       1      36      33      39       2      36      33
      42       1      33      42      45       1      33      42      48       1
      30      33      36       4      30      33      39       4      27      21
      30       4      24      21      27       2      24      21      30       4
      18      12      21       1      15      12      18       2      15      12
      21       1      12      21      24       1      12      21      27       1
       9      12      15       4       9      12      18       4       6       0
       9       4       3       0       6       2       3       0       9       4
     207     201     210       1     204     201     207       2     204     201
     210       1     201     210     213       1     201     210     216       1
     198     201     204       4     198     201     207       4     195     189
     198       4     192     189     195       2     192     189     198       4
     186     180     189       1     183     180     186       2     183     180
     189       1     180     189     192       1     180     189     195       1
     177     180     183       4     177     180     186       4     174     168
     177       4     171     168     174       2     171     168     177       4
     165     159     168       1     162     159     165       2     162     159
     168       1     159     168     171       1     159     168     174       1
     156     159     162       4     156     159     165       4     153     147
     156       4     150     147     153       2     150     147     156       4
     144     138     147       1     141     138     144       2     141     138
     147       1     138     147     150       1     138     147     153       1
     135     138     141       4     135     138     144       4     132     126
     135       4     129     126     132       2     129     126     135       4
     123     117     126       1     120     117     123       2     120     117
     126       1     117     126     129       1     117     126     132       1
     114     117     120       4     114     117     123       4     111     105
     114       4     108     105     111       2     108     105     114       4
     312     306     315       1     309     306     312       2     309     306
     315       1     306     315     318       1     306     315     321       1
     303     306     309       4     303     306     312       4     300     294
     303       4     297     294     300       2     297     294     303       4
     291     285     294       1     288     285     291       2     288     285
     294       1     285     294     297       1     285     294     300       1
     282     285     288       4     282     285     291       4     279     273
     282       4     276     273     279       2     276     273     282       4
     270     264     273       1     267     264     270       2     267     264
     273       1     264     273     276       1     264     273     279       1
     261     264     267       4     261     264     270       4     258     252
     261       4     255     252     258       2     255     252     261       4
     249     243     252       1     246     243     249       2     246     243
     252       1     243     252     255       1     243     252     258       1
     240     243     246       4     240     243     249       4     237     231
     240       4     234     231     237       2     234     231     240       4
     228     222     231       1     225     222     228       2     225     222
     231       1     222     231     234       1     222     231     237       1
     219     222     225       4     219     222     228       4     216     210
     219       4     213     210     216       2     213     210     219       4
     417     411     420       1     414     411     417       2     414     411
     420       1     411     420     423       1     411     420     426       1
     408     411     414       4     408     411     417       4     405     399
     408       4     402     399     405       2     402     399     408       4
     396     390     399       1     393     390     396       2     393     390
     399       1     390     399     402       1     390     399     405       1
     387     390     393       4     387     390     396       4     384     378
     387       4     381     378     384       2     381     378     387       4
     375     369     378       1     372     369     375       2     372     369
     378       1     369     378     381       1     369     378     384       1
     366     369     372       4     366     369     375       4     363     357
     366       4     360     357     363       2     360     357     366       4
     354     348     357       1     351     348     354       2     351     348
     357       1     348     357     360       1     348     357     363       1
     345     348     351       4     345     348     354       4     342     336
     345       4     339     336     342       2     339     336     345       4
     333     327     336       1     330     327     333       2     330     327
     336       1     327     336     339       1     327     336     342       1
     324     327     330       4     324     327     333       4     321     315
     324       4     318     315     321       2     318     315     324       4
     522     516     525       1     519     516     522       2     519     516
     525       1     516     525     528       1     516     525     531       1
     513     516     519       4     513     516     522       4     510     504
     513       4     507     504     510       2     507     504     513       4
     501     495     504       1     498     495     501       2     498     495
     504       1     495     504     507       1     495     504     510       1
     492     495     498       4     492     495     501       4     489     483
     492       4     486     483     489       2     486     483     492       4
     480     474     483       1     477     474     480       2     477     474
     483       1     474     483     486       1     474     483     489       1
     471     474     477       4     471     474     480       4     468     462
     471       4     465     462     468       2     465     462     471       4
     459     453     462       1     456     453     459       2     456     453
     462       1     453     462     465       1     453     462     468       1
     450     453     456       4     450     453     459       4     447     441
     450       4     444     441     447       2     444     441     450       4
     438     432     441       1     435     432     438       2     435     432
     441       1     432     441     444       1     432     441     447       1
     429     432     435       4     429     432     438       4     426     420
     429       4     423     420     426       2     423     420     429       4
     606     600     609       6     603     600     606       7     603     600
     609       6     600     609     612       1     600     609     615       1
     597     591     600       6     594     591     597       7     594     591
     600       6     591     600     603       6     591     600     606       6
     588     582     591       1     585     582     588       2     585     582
     591       1     582     591     594       6     582     591     597       6
     579     582     585       4     579     582     588       4     567     564
     570      13     561     558     564      13     558     564     567      13
     552     549     570      13     549     546     555      13     546     549
     552      13     543     546     555      13     543     558     561      13
     531     525     534       4     528     525     531       2     528     525
     534       4     690     684     693       6     687     684     690       7
     687     684     693       6     684     693     696       1     684     693
     699       1     681     675     684       6     678     675     681       7
     678     675     684       6     675     684     687       6     675     684
     690       6     672     666     675       1     669     666     672       2
     669     666     675       1     666     675     678       6     666     675
     681       6     663     666     669       4     663     666     672       4
     651     648     654      13     645     642     648      13     642     648
     651      13     636     633     654      13     633     630     639      13
     630     633     636      13     627     630     639      13     627     642
     645      13     615     609     618       4     612     609     615       2
     612     609     618       4     774     768     777       6     771     768
     774       7     771     768     777       6     768     777     780       1
     768     777     783       1     765     759     768       6     762     759
     765       7     762     759     768       6     759     768     771       6
     759     768     774       6     756     750     759       1     753     750
     756       2     753     750     759       1     750     759     762       6
     750     759     765       6     747     750     753       4     747     750
     756       4     735     732     738      13     729     726     732      13
     726     732     735      13     720     717     738      13     717     714
     723      13     714     717     720      13     711     714     723      13
     711     726     729      13     699     693     702       4     696     693
     699       2     696     693     702       4     858     852     861       6
     855     852     858       7     855     852     861       6     852     861
     864       1     852     861     867       1     849     843     852       6
     846     843     849       7     846     843     852       6     843     852
     855       6     843     852     858       6     840     834     843       1
     837     834     840       2     837     834     843       1     834     843
     846       6     834     843     849       6     831     834     837       4
     831     834     840       4     819     816     822      13     813     810
     816      13     810     816     819      13     804     801     822      13
     801     798     807      13     798     801     804      13     795     798
     807      13     795     810     813      13     783     777     786       4
     780     777     783       2     780     777     786       4     942     936
     945       6     939     936     942       7     939     936     945       6
     936     945     948       1     936     945     951       1     933     927
     936       6     930     927     933       7     930     927     936       6
     927     936     939       6     927     936     942       6     924     918
     927       1     921     918     924       2     921     918     927       1
     918     927     930       6     918     927     933       6     915     918
     921       4     915     918     924       4     903     900     906      13
     897     894     900      13     894     900     903      13     888     885
     906      13     885     882     891      13     882     885     888      13
     879     882     891      13     879     894     897      13     867     861
     870       4     864     861     867       2     864     861     870       4
    1026    1020    1029       6    1023    1020    1026       7    1023    1020
    1029       6    1020    1029    1032       1    1020    1029    1035       1
    1017    1011    1020       6    1014    1011    1017       7    1014    1011
    1020       6    1011    1020    1023       6    1011    1020    1026       6
    1008    1002    1011       1    1005    1002    1008       2    1005    1002
    1011       1    1002    1011    1014       6    1002    1011    1017       6
     999    1002    1005       4     999    1002    1008       4     987     984
     990      13     981     978     984      13     978     984     987      13
     972     969     990      13     969     966     975      13     966     969
     972      13     963     966     975      13     963     978     981      13
     951     945     954       4     948     945     951       2     948     945
     954       4    1110    1104    1113       6    1107    1104    1110       7
    1107    1104    1113       6    1104    1113    1116       1    1104    1113
    1119       1    1101    1095    1104       6    1098    1095    1101       7
    1098    1095    1104       6    1095    1104    1107       6    1095    1104
    1110       6    1092    1086    1095       1    1089    1086    1092       2
    1089    1086    1095       1    1086    1095    1098       6    1086    1095
    1101       6    1083    1086    1089       4    1083    1086    1092       4
    1071    1068    1074      13    1065    1062    1068      13    1062    1068
    1071      13    1056    1053    1074      13    1053    1050    1059      13
    1050    1053    1056      13    1047    1050    1059      13    1047    1062
    1065      13    1035    1029    1038       4    1032    1029    1035       2
    1032    1029    1038       4    1194    1188    1197       6    1191    1188
    1194       7    1191    1188    1197       6    1188    1197    1200       1
    1188    1197    1203       1    1185    1179    1188       6    1182    1179
    1185       7    1182    1179    1188       6    1179    1188    1191       6
    1179    1188    1194       6    1176    1170    1179       1    1173    1170
    1176       2    1173    1170    1179       1    1170    1179    1182       6
    1170    1179    1185       6    1167    1170    1173       4    1167    1170
    1176       4    1155    1152    1158      13    1149    1146    1152      13
    1146    1152    1155      13    1140    1137    1158      13    1137    1134
    1143      13    1134    1137    1140      13    1131    1134    1143      13
    1131    1146    1149      13    1119    1113    1122       4    1116    1113
    1119       2    1116    1113    1122       4    1278    1272    1281       6
    1275    1272    1278       7    1275    1272    1281       6    1272    1281
    1284       1    1272    1281    1287       1    1269    1263    1272       6
    1266    1263    1269       7    1266    1263    1272       6    1263    1272
    1275       6    1263    1272    1278       6    1260    1254    1263       1
    1257    1254    1260       2    1257    1254    1263       1    1254    1263
    1266       6    1254    1263    1269       6    1251    1254    1257       4
    1251    1254    1260       4    1239    1236    1242      13    1233    1230
    1236      13    1230    1236    1239      13    1224    1221    1242      13
    1221    1218    1227      13    1218    1221    1224      13    1215    1218
    1227      13    1215    1230    1233      13    1203    1197    1206       4
    1200    1197    1203       2    1200    1197    1206       4    1362    1356
    1365       6    1359    1356    1362       7    1359    1356    1365       6
    1356    1365    1368       1    1356    1365    1371       1    1353    1347
    1356       6    1350    1347    1353       7    1350    1347    1356       6
    1347    1356    1359       6    1347    1356    1362       6    1344    1338
    1347       1    1341    1338    1344       2    1341    1338    1347       1
    1338    1347    1350       6    1338    1347    1353       6    1335    1338
    1341       4    1335    1338    1344       4    1323    1320    1326      13
    1317    1314    1320      13    1314    1320    1323      13    1308    1305
    1326      13    1305    1302    1311      13    1302    1305    1308      13
    1299    1302    1311      13    1299    1314    1317      13    1287    1281
    1290       4    1284    1281    1287       2    1284    1281    1290       4
    1446    1440    1449       6    1443    1440    1446       7    1443    1440
    1449       6    1440    1449    1452       1    1440    1449    1455       1
    1437    1431    1440       6    1434    1431    1437       7    1434    1431
    1440       6    1431    1440    1443       6    1431    1440    1446       6
    1428    1422    1431       1    1425    1422    1428       2    1425    1422
    1431       1    1422    1431    1434       6    1422    1431    1437       6
    1419    1422    1425       4    1419    1422    1428       4    1407    1404
    1410      13    1401    1398    1404      13    1398    1404    1407      13
    1392    1389    1410      13    1389    1386    1395      13    1386    1389
    1392      13    1383    1386    1395      13    1383    1398    1401      13
    1371    1365    1374       4    1368    1365    1371       2    1368    1365
    1374       4    1530    1524    1533       6    1527    1524    1530       7
    1527    1524    1533       6    1524    1533    1536       1    1524    1533
    1539       1    1521    1515    1524       6    1518    1515    1521       7
    1518    1515    1524       6    1515    1524    1527       6    1515    1524
    1530       6    1512    1506    1515       1    1509    1506    1512       2
    1509    1506    1515       1    1506    1515    1518       6    1506    1515
    1521       6    1503    1506    1509       4    1503    1506    1512       4
    1491    1488    1494      13    1485    1482    1488      13    1482    1488
    1491      13    1476    1473    1494      13    1473    1470    1479      13
    1470    1473    1476      13    1467    1470    1479      13    1467    1482
    1485      13    1455    1449    1458       4    1452    1449    1455       2
    1452    1449    1458       4    1614    1608    1617       6    1611    1608
    1614       7    1611    1608    1617       6    1608    1617    1620       1
    1608    1617    1623       1    1605    1599    1608       6    1602    1599
    1605       7    1602    1599    1608       6    1599    1608    1611       6
    1599    1608    1614       6    1596    1590    1599       1    1593    1590
    1596       2    1593    1590    1599       1    1590    1599    1602       6
    1590    1599    1605       6    1587    1590    1593       4    1587    1590
    1596       4    1575    1572    1578      13    1569    1566    1572      13
    1566    1572    1575      13    1560    1557    1578      13    1557    1554
    1563      13    1554    1557    1560      13    1551    1554    1563      13
    1551    1566    1569      13    1539    1533    1542       4    1536    1533
    1539       2    1536    1533    1542       4    1698    1692    1701       6
    1695    1692    1698       7    1695    1692    1701       6    1692    1701
    1704       1    1692    1701    1707       1    1689    1683    1692       6
    1686    1683    1689       7    1686    1683    1692       6    1683    1692
    1695       6    1683    1692    1698       6    1680    1674    1683       1
    1677    1674    1680       2    1677    1674    1683       1    1674    1683
    1686       6    1674    1683    1689       6    1671    1674    1677       4
    1671    1674    1680       4    1659    1656    1662      13    1653    1650
    1656      13    1650    1656    1659      13    1644    1641    1662      13
    1641    1638    1647      13    1638    1641    1644      13    1635    1638
    1647      13    1635    1650    1653      13    1623    1617    1626       4
    1620    1617    1623       2    1620    1617    1626       4    1782    1776
    1785       6    1779    1776    1782       7    1779    1776    1785       6
    1776    1785    1788       1    1776    1785    1791       1    1773    1767
    1776       6    1770    1767    1773       7    1770    1767    1776       6
    1767    1776    1779       6    1767    1776    1782       6    1764    1758
    1767       1    1761    1758    1764       2    1761    1758    1767       1
    1758    1767    1770       6    1758    1767    1773       6    1755    1758
    1761       4    1755    1758    1764       4    1743    1740    1746      13
    1737    1734    1740      13    1734    1740    1743      13    1728    1725
    1746      13    1725    1722    1731      13    1722    1725    1728      13
    1719    1722    1731      13    1719    1734    1737      13    1707    1701
    1710       4    1704    1701    1707       2    1704    1701    1710       4
    1866    1860    1869       6    1863    1860    1866       7    1863    1860
    1869       6    1860    1869    1872       1    1860    1869    1875       1
    1857    1851    1860       6    1854    1851    1857       7    1854    1851
    1860       6    1851    1860    1863       6    1851    1860    1866       6
    1848    1842    1851       1    1845    1842    1848       2    1845    1842
    1851       1    1842    1851    1854       6    1842    1851    1857       6
    1839    1842    1845       4    1839    1842    1848       4    1827    1824
    1830      13    1821    1818    1824      13    1818    1824    1827      13
    1812    1809    1830      13    1809    1806    1815      13    1806    1809
    1812      13    1803    1806    1815      13    1803    1818    1821      13
    1791    1785    1794       4    1788    1785    1791       2    1788    1785
    1794       4    1950    1944    1953       6    1947    1944    1950       7
    1947    1944    1953       6    1944    1953    1956       1    1944    1953
    1959       1    1941    1935    1944       6    1938    1935    1941       7
    1938    1935    1944       6    1935    1944    1947       6    1935    1944
    1950       6    1932    1926    1935       1    1929    1926    1932       2
    1929    1926    1935       1    1926    1935    1938       6    1926    1935
    1941       6    1923    1926    1929       4    1923    1926    1932       4
    1911    1908    1914      13    1905    1902    1908      13    1902    1908
    1911      13    1896    1893    1914      13    1893    1890    1899      13
    1890    1893    1896      13    1887    1890    1899      13    1887    1902
    1905      13    1875    1869    1878       4    1872    1869    1875       2
    1872    1869    1878       4    2034    2028    2037       6    2031    2028
    2034       7    2031    2028    2037       6    2028    2037    2040       1
    2028    2037    2043       1    2025    2019    2028       6    2022    2019
    2025       7    2022    2019    2028       6    2019    2028    2031       6
    2019    2028    2034       6    2016    2010    2019       1    2013    2010
    2016       2    2013    2010    2019       1    2010    2019    2022       6
    2010    2019    2025       6    2007    2010    2013       4    2007    2010
    2016       4    1995    1992    1998      13    1989    1986    1992      13
    1986    1992    1995      13    1980    1977    1998      13    1977    1974
    1983      13    1974    1977    1980      13    1971    1974    1983      13
    1971    1986    1989      13    1959    1953    1962       4    1956    1953
    1959       2    1956    1953    1962       4    2118    2112    2121       6
    2115    2112    2118       7    2115    2112    2121       6    2112    2121
    2124       1    2112    2121    2127       1    2109    2103    2112       6
    2106    2103    2109       7    2106    2103    2112       6    2103    2112
    2115       6    2103    2112    2118       6    2100    2094    2103       1
    2097    2094    2100       2    2097    2094    2103       1    2094    2103
    2106       6    2094    2103    2109       6    2091    2094    2097       4
    2091    2094    2100       4    2079    2076    2082      13    2073    2070
    2076      13    2070    2076    2079      13    2064    2061    2082      13
    2061    2058    2067      13    2058    2061    2064      13    2055    2058
    2067      13    2055    2070    2073      13    2043    2037    2046       4
    2040    2037    2043       2    2040    2037    2046       4    2202    2196
    2205       6    2199    2196    2202       7    2199    2196    2205       6
    2196    2205    2208       1    2196    2205    2211       1    2193    2187
    2196       6    2190    2187    2193       7    2190    2187    2196       6
    2187    2196    2199       6    2187    2196    2202       6    2184    2178
    2187       1    2181    2178    2184       2    2181    2178    2187       1
    2178    2187    2190       6    2178    2187    2193       6    2175    2178
    2181       4    2175    2178    2184       4    2163    2160    2166      13
    2157    2154    2160      13    2154    2160    2163      13    2148    2145
    2166      13    2145    2142    2151      13    2142    2145    2148      13
    2139    2142    2151      13    2139    2154    2157      13    2127    2121
    2130       4    2124    2121    2127       2    2124    2121    2130       4
    2286    2280    2289       6    2283    2280    2286       7    2283    2280
    2289       6    2280    2289    2292       1    2280    2289    2295       1
    2277    2271    2280       6    2274    2271    2277       7    2274    2271
    2280       6    2271    2280    2283       6    2271    2280    2286       6
    2268    2262    2271       1    2265    2262    2268       2    2265    2262
    2271       1    2262    2271    2274       6    2262    2271    2277       6
    2259    2262    2265       4    2259    2262    2268       4    2247    2244
    2250      13    2241    2238    2244      13    2238    2244    2247      13
    2232    2229    2250      13    2229    2226    2235      13    2226    2229
    2232      13    2223    2226    2235      13    2223    2238    2241      13
    2211    2205    2214       4    2208    2205    2211       2    2208    2205
    2214       4    2370    2364    2373       6    2367    2364    2370       7
    2367    2364    2373       6    2364    2373    2376       1    2364    2373
    2379       1    2361    2355    2364       6    2358    2355    2361       7
    2358    2355    2364       6    2355    2364    2367       6    2355    2364
    2370       6    2352    2346    2355       1    2349    2346    2352       2
    2349    2346    2355       1    2346    2355    2358       6    2346    2355
    2361       6    2343    2346    2349       4    2343    2346    2352       4
    2331    2328    2334      13    2325    2322    2328      13    2322    2328
    2331      13    2316    2313    2334      13    2313    2310    2319      13
    2310    2313    2316      13    2307    2310    2319      13    2307    2322
    2325      13    2295    2289    2298       4    2292    2289    2295       2
    2292    2289    2298       4    2454    2448    2457       6    2451    2448
    2454       7    2451    2448    2457       6    2448    2457    2460       1
    2448    2457    2463       1    2445    2439    2448       6    2442    2439
    2445       7    2442    2439    2448       6    2439    2448    2451       6
    2439    2448    2454       6    2436    2430    2439       1    2433    2430
    2436       2    2433    2430    2439       1    2430    2439    2442       6
    2430    2439    2445       6    2427    2430    2433       4    2427    2430
    2436       4    2415    2412    2418      13    2409    2406    2412      13
    2406    2412    2415      13    2400    2397    2418      13    2397    2394
    2403      13    2394    2397    2400      13    2391    2394    2403      13
    2391    2406    2409      13    2379    2373    2382       4    2376    2373
    2379       2    2376    2373    2382       4    2538    2532    2541       6
    2535    2532    2538       7    2535    2532    2541       6    2532    2541
    2544       1    2532    2541    2547       1    2529    2523    2532       6
    2526    2523    2529       7    2526    2523    2532       6    2523    2532
    2535       6    2523    2532    2538       6    2520    2514    2523       1
    2517    2514    2520       2    2517    2514    2523       1    2514    2523
    2526       6    2514    2523    2529       6    2511    2514    2517       4
    2511    2514    2520       4    2499    2496    2502      13    2493    2490
    2496      13    2490    2496    2499      13    2484    2481    2502      13
    2481    2478    2487      13    2478    2481    2484      13    2475    2478
    2487      13    2475    2490    2493      13    2463    2457    2466       4
    2460    2457    2463       2    2460    2457    2466       4    2619    2616
    2622       7    2613    2607    2616       6    2610    2607    2613       7
    2610    2607    2616       6    2607    2616    2619       6    2607    2616
    2622       6    2604    2598    2607       1    2601    2598    2604       2
    2601    2598    2607       1    2598    2607    2610       6    2598    2607
    2613       6    2595    2598    2601       4    2595    2598    2604       4
    2583    2580    2586      13    2577    2574    2580      13    2574    2580
    2583      13    2568    2565    2586      13    2565    2562    2571      13
    2562    2565    2568      13    2559    2562    2571      13    2559    2574
    2577      13    2547    2541    2550       4    2544    2541    2547       2
    2544    2541    2550       4
%FLAG ANGLES_WITHOUT_HYDROGEN                                                   
%FORMAT(10I8)                                                                   
      96     105     114       3      93      96     105       3      84      93
      96       5      75      84      93       3      72      75      84       3
      63      72      75       5      54      63      72       3      51      54
      63       3      42      51      54       5      33      42      51       3
      30      33      42       3      21      30      33       5      12      21
      30       3       9      12      21       3       0       9      12       5
     201     210     219       3     198     201     210       3     189     198
     201       5     180     189     198       3     177     180     189       3
     168     177     180       5     159     168     177       3     156     159
     168       3     147     156     159       5     138     147     156       3
     135     138     147       3     126     135     138       5     117     126
     135       3     114     117     126       3     105     114     117       5
     306     315     324       3     303     306     315       3     294     303
     306       5     285     294     303       3     282     285     294       3
     273     282     285       5     264     273     282       3     261     264
     273       3     252     261     264       5     243     252     261       3
     240     243     252       3     231     240     243       5     222     231
     240       3     219     222     231       3     210     219     222       5
     411     420     429       3     408     411     420       3     399     408
     411       5     390     399     408       3     387     390     399       3
     378     387     390       5     369     378     387       3     366     369
     378       3     357     366     369       5     348     357     366       3
     345     348     357       3     336     345     348       5     327     336
     345       3     324     327     336       3     315     324     327       5
     516     525     534       3     513     516     525       3     504     513
     516       5     495     504     513       3     492     495     504       3
     483     492     495       5     474     483     492       3     471     474
     483       3     462     471     474       5     453     462     471       3
     450     453     462       3     441     450     453       5     432     441
     450       3     429     432     441       3     420     429     432       5
     600     609     618       3     591     600     609       8     582     591
     600       8     579     582     591       3     576     573     579       9
     573     579     582      10     570     573     576      11     570     573
     579      12     564     570     573      14     558     564     570      15
     549     570     564      15     549     570     573      14     546     543
     558      15     546     549     570      15     543     546     549      15
     543     558     564      15     540     537     543      11     537     543
     546      14     537     543     558      14     534     537     540       9
     534     537     543      12     525     534     537      10     684     693
     702       3     675     684     693       8     666     675     684       8
     663     666     675       3     660     657     663       9     657     663
     666      10     654     657     660      11     654     657     663      12
     648     654     657      14     642     648     654      15     633     654
     648      15     633     654     657      14     630     627     642      15
     630     633     654      15     627     630     633      15     627     642
     648      15     624     621     627      11     621     627     630      14
     621     627     642      14     618     621     624       9     618     621
     627      12     609     618     621      10     768     777     786       3
     759     768     777       8     750     759     768       8     747     750
     759       3     744     741     747       9     741     747     750      10
     738     741     744      11     738     741     747      12     732     738
     741      14     726     732     738      15     717     738     732      15
     717     738     741      14     714     711     726      15     714     717
     738      15     711     714     717      15     711     726     732      15
     708     705     711      11     705     711     714      14     705     711
     726      14     702     705     708       9     702     705     711      12
     693     702     705      10     852     861     870       3     843     852
     861       8     834     843     852       8     831     834     843       3
     828     825     831       9     825     831     834      10     822     825
     828      11     822     825     831      12     816     822     825      14
     810     816     822      15     801     822     816      15     801     822
     825      14     798     795     810      15     798     801     822      15
     795     798     801      15     795     810     816      15     792     789
     795      11     789     795     798      14     789     795     810      14
     786     789     792       9     786     789     795      12     777     786
     789      10     936     945     954       3     927     936     945       8
     918     927     936       8     915     918     927       3     912     909
     915       9     909     915     918      10     906     909     912      11
     906     909     915      12     900     906     909      14     894     900
     906      15     885     906     900      15     885     906     909      14
     882     879     894      15     882     885     906      15     879     882
     885      15     879     894     900      15     876     873     879      11
     873     879     882      14     873     879     894      14     870     873
     876       9     870     873     879      12     861     870     873      10
    1020    1029    1038       3    1011    1020    1029       8    1002    1011
    1020       8     999    1002    1011       3     996     993     999       9
     993     999    1002      10     990     993     996      11     990     993
     999      12     984     990     993      14     978     984     990      15
     969     990     984      15     969     990     993      14     966     963
     978      15     966     969     990      15     963     966     969      15
     963     978     984      15     960     957     963      11     957     963
     966      14     957     963     978      14     954     957     960       9
     954     957     963      12     945     954     957      10    1104    1113
    1122       3    1095    1104    1113       8    1086    1095    1104       8
    1083    1086    1095       3    1080    1077    1083       9    1077    1083
    1086      10    1074    1077    1080      11    1074    1077    1083      12
    1068    1074    1077      14    1062    1068    1074      15    1053    1074
    1068      15    1053    1074    1077      14    1050    1047    1062      15
    1050    1053    1074      15    1047    1050    1053      15    1047    1062
    1068      15    1044    1041    1047      11    1041    1047    1050      14
    1041    1047    1062      14    1038    1041    1044       9    1038    1041
    1047      12    1029    1038    1041      10    1188    1197    1206       3
    1179    1188    1197       8    1170    1179    1188       8    1167    1170
    1179       3    1164    1161    1167       9    1161    1167    1170      10
    1158    1161    1164      11    1158    1161    1167      12    1152    1158
    1161      14    1146    1152    1158      15    1137    1158    1152      15
    1137    1158    1161      14    1134    1131    1146      15    1134    1137
    1158      15    1131    1134    1137      15    1131    1146    1152      15
    1128    1125    1131      11    1125    1131    1134      14    1125    1131
    1146      14    1122    1125    1128       9    1122    1125    1131      12
    1113    1122    1125      10    1272    1281    1290       3    1263    1272
    1281       8    1254    1263    1272       8    1251    1254    1263       3
    1248    1245    1251       9    1245    1251    1254      10    1242    1245
    1248      11    1242    1245    1251      12    1236    1242    1245      14
    1230    1236    1242      15    1221    1242    1236      15    1221    1242
    1245      14    1218    1215    1230      15    1218    1221    1242      15
    1215    1218    1221      15    1215    1230    1236      15    1212    1209
    1215      11    1209    1215    1218      14    1209    1215    1230      14
    1206    1209    1212       9    1206    1209    1215      12    1197    1206
    1209      10    1356    1365    1374       3    1347    1356    1365       8
    1338    1347    1356       8    1335    1338    1347       3    1332    1329
    1335       9    1329    1335    1338      10    1326    1329    1332      11
    1326    1329    1335      12    1320    1326    1329      14    1314    1320
    1326      15    1305    1326    1320      15    1305    1326    1329      14
    1302    1299    1314      15    1302    1305    1326      15    1299    1302
    1305      15    1299    1314    1320      15    1296    1293    1299      11
    1293    1299    1302      14    1293    1299    1314      14    1290    1293
    1296       9    1290    1293    1299      12    1281    1290    1293      10
    1440    1449    1458       3    1431    1440    1449       8    1422    1431
    1440       8    1419    1422    1431       3    1416    1413    1419       9
    1413    1419    1422      10    1410    1413    1416      11    1410    1413
    1419      12    1404    1410    1413      14    1398    1404    1410      15
    1389    1410    1404      15    1389    1410    1413      14    1386    1383
    1398      15    1386    1389    1410      15    1383    1386    1389      15
    1383    1398    1404      15    1380    1377    1383      11    1377    1383
    1386      14    1377    1383    1398      14    1374    1377    1380       9
    1374    1377    1383      12    1365    1374    1377      10    1524    1533
    1542       3    1515    1524    1533       8    1506    1515    1524       8
    1503    1506    1515       3    1500    1497    1503       9    1497    1503
    1506      10    1494    1497    1500      11    1494    1497    1503      12
    1488    1494    1497      14    1482    1488    1494      15    1473    1494
    1488      15    1473    1494    1497      14    1470    1467    1482      15
    1470    1473    1494      15    1467    1470    1473      15    1467    1482
    1488      15    1464    1461    1467      11    1461    1467    1470      14
    1461    1467    1482      14    1458    1461    1464       9    1458    1461
    1467      12    1449    1458    1461      10    1608    1617    1626       3
    1599    1608    1617       8    1590    1599    1608       8    1587    1590
    1599       3    1584    1581    1587       9    1581    1587    1590      10
    1578    1581    1584      11    1578    1581    1587      12    1572    1578
    1581      14    1566    1572    1578      15    1557    1578    1572      15
    1557    1578    1581      14    1554    1551    1566      15    1554    1557
    1578      15    1551    1554    1557      15    1551    1566    1572      15
    1548    1545    1551      11    1545    1551    1554      14    1545    1551
    1566      14    1542    1545    1548       9    1542    1545    1551      12
    1533    1542    1545      10    1692    1701    1710       3    1683    1692
    1701       8    1674    1683    1692       8    1671    1674    1683       3
    1668    1665    1671       9    1665    1671    1674      10    1662    1665
    1668      11    1662    1665    1671      12    1656    1662    1665      14
    1650    1656    1662      15    1641    1662    1656      15    1641    1662
    1665      14    1638    1635    1650      15    1638    1641    1662      15
    1635    1638    1641      15    1635    1650    1656      15    1632    1629
    1635      11    1629    1635    1638      14    1629    1635    1650      14
    1626    1629    1632       9    1626    1629    1635      12    1617    1626
    1629      10    1776    1785    1794       3    1767    1776    1785       8
    1758    1767    1776       8    1755    1758    1767       3    1752    1749
    1755       9    1749    1755    1758      10    1746    1749    1752      11
    1746    1749    1755      12    1740    1746    1749      14    1734    1740
    1746      15    1725    1746    1740      15    1725    1746    1749      14
    1722    1719    1734      15    1722    1725    1746      15    1719    1722
    1725      15    1719    1734    1740      15    1716    1713    1719      11
    1713    1719    1722      14    1713    1719    1734      14    1710    1713
    1716       9    1710    1713    1719      12    1701    1710    1713      10
    1860    1869    1878       3    1851    1860    1869       8    1842    1851
    1860       8    1839    1842    1851       3    1836    1833    1839       9
    1833    1839    1842      10    1830    1833    1836      11    1830    1833
    1839      12    1824    1830    1833      14    1818    1824    1830      15
    1809    1830    1824      15    1809    1830    1833      14    1806    1803
    1818      15    1806    1809    1830      15    1803    1806    1809      15
    1803    1818    1824      15    1800    1797    1803      11    1797    1803
    1806      14    1797    1803    1818      14    1794    1797    1800       9
    1794    1797    1803      12    1785    1794    1797      10    1944    1953
    1962       3    1935    1944    1953       8    1926    1935    1944       8
    1923    1926    1935       3    1920    1917    1923       9    1917    1923
    1926      10    1914    1917    1920      11    1914    1917    1923      12
    1908    1914    1917      14    1902    1908    1914      15    1893    1914
    1908      15    1893    1914    1917      14    1890    1887    1902      15
    1890    1893    1914      15    1887    1890    1893      15    1887    1902
    1908      15    1884    1881    1887      11    1881    1887    1890      14
    1881    1887    1902      14    1878    1881    1884       9    1878    1881
    1887      12    1869    1878    1881      10    2028    2037    2046       3
    2019    2028    2037       8    2010    2019    2028       8    2007    2010
    2019       3    2004    2001    2007       9    2001    2007    2010      10
    1998    2001    2004      11    1998    2001    2007      12    1992    1998
    2001      14    1986    1992    1998      15    1977    1998    1992      15
    1977    1998    2001      14    1974    1971    1986      15    1974    1977
    1998      15    1971    1974    1977      15    1971    1986    1992      15
    1968    1965    1971      11    1965    1971    1974      14    1965    1971
    1986      14    1962    1965    1968       9    1962    1965    1971      12
    1953    1962    1965      10    2112    2121    2130       3    2103    2112
    2121       8    2094    2103    2112       8    2091    2094    2103       3
    2088    2085    2091       9    2085    2091    2094      10    2082    2085
    2088      11    2082    2085    2091      12    2076    2082    2085      14
    2070    2076    2082      15    2061    2082    2076      15    2061    2082
    2085      14    2058    2055    2070      15    2058    2061    2082      15
    2055    2058    2061      15    2055    2070    2076      15    2052    2049
    2055      11    2049    2055    2058      14    2049    2055    2070      14
    2046    2049    2052       9    2046    2049    2055      12    2037    2046
    2049      10    2196    2205    2214       3    2187    2196    2205       8
    2178    2187    2196       8    2175    2178    2187       3    2172    2169
    2175       9    2169    2175    2178      10    2166    2169    2172      11
    2166    2169    2175      12    2160    2166    2169      14    2154    2160
    2166      15    2145    2166    2160      15    2145    2166    2169      14
    2142    2139    2154      15    2142    2145    2166      15    2139    2142
    2145      15    2139    2154    2160      15    2136    2133    2139      11
    2133    2139    2142      14    2133    2139    2154      14    2130    2133
    2136       9    2130    2133    2139      12    2121    2130    2133      10
    2280    2289    2298       3    2271    2280    2289       8    2262    2271
    2280       8    2259    2262    2271       3    2256    2253    2259       9
    2253    2259    2262      10    2250    2253    2256      11    2250    2253
    2259      12    2244    2250    2253      14    2238    2244    2250      15
    2229    2250    2244      15    2229    2250    2253      14    2226    2223
    2238      15    2226    2229    2250      15    2223    2226    2229      15
    2223    2238    2244      15    2220    2217    2223      11    2217    2223
    2226      14    2217    2223    2238      14    2214    2217    2220       9
    2214    2217    2223      12    2205    2214    2217      10    2364    2373
    2382       3    2355    2364    2373       8    2346    2355    2364       8
    2343    2346    2355       3    2340    2337    2343       9    2337    2343
    2346      10    2334    2337    2340      11    2334    2337    2343      12
    2328    2334    2337      14    2322    2328    2334      15    2313    2334
    2328      15    2313    2334    2337      14    2310    2307    2322      15
    2310    2313    2334      15    2307    2310    2313      15    2307    2322
    2328      15    2304    2301    2307      11    2301    2307    2310      14
    2301    2307    2322      14    2298    2301    2304       9    2298    2301
    2307      12    2289    2298    2301      10    2448    2457    2466       3
    2439    2448    2457       8    2430    2439    2448       8    2427    2430
    2439       3    2424    2421    2427       9    2421    2427    2430      10
    2418    2421    2424      11    2418    2421    2427      12    2412    2418
    2421      14    2406    2412    2418      15    2397    2418    2412      15
    2397    2418    2421      14    2394    2391    2406      15    2394    2397
    2418      15    2391    2394    2397      15    2391    2406    2412      15
    2388    2385    2391      11    2385    2391    2394      14    2385    2391
    2406      14    2382    2385    2388       9    2382    2385    2391      12
    2373    2382    2385      10    2532    2541    2550       3    2523    2532
    2541       8    2514    2523    2532       8    2511    2514    2523       3
    2508    2505    2511       9    2505    2511    2514      10    2502    2505
    2508      11    2502    2505    2511      12    2496    2502    2505      14
    2490    2496    2502      15    2481    2502    2496      15    2481    2502
    2505      14    2478    2475    2490      15    2478    2481    2502      15
    2475    2478    2481      15    2475    2490    2496      15    2472    2469
    2475      11    2469    2475    2478      14    2469    2475    2490      14
    2466    2469    2472       9    2466    2469    2475      12    2457    2466
    2469      10    2598    2607    2616       8    2595    2598    2607       3
    2592    2589    2595       9    2589    2595    2598      10    2586    2589
    2592      11    2586    2589    2595      12    2580    2586    2589      14
    2574    2580    2586      15    2565    2586    2580      15    2565    2586
    2589      14    2562    2559    2574      15    2562    2565    2586      15
    2559    2562    2565      15    2559    2574    2580      15    2556    2553
    2559      11    2553    2559    2562      14    2553    2559    2574      14
    2550    2553    2556       9    2550    2553    2559      12    2541    2550
    2553      10
%FLAG DIHEDRALS_INC_HYDROGEN                                                    
%FORMAT(10I8)                                                                   
     102      96     105     108       1     102      96     105     111       1
     102      96     105     114       2     102      96    -105     114       3
      99      96     105     108       1      99      96     105     111       1
      99      96     105     114       2      99      96    -105     114       3
      93      96     105     108       2      93      96    -105     108       3
      93      96     105     111       2      93      96    -105     111       3
      90      84      93      96      10      87      84      93      96      10
      84      93      96      99      10      84      93      96     102      10
      81      75      84      87       1      81      75      84      90       1
      81      75      84      93       2      81      75     -84      93       3
      78      75      84      87       1      78      75      84      90       1
      78      75      84      93       2      78      75     -84      93       3
      72      75      84      87       2      72      75     -84      87       3
      72      75      84      90       2      72      75     -84      90       3
      69      63      72      75      10      66      63      72      75      10
      63      72      75      78      10      63      72      75      81      10
      60      54      63      66       1      60      54      63      69       1
      60      54      63      72       2      60      54     -63      72       3
      57      54      63      66       1      57      54      63      69       1
      57      54      63      72       2      57      54     -63      72       3
      51      54      63      66       2      51      54     -63      66       3
      51      54      63      69       2      51      54     -63      69       3
      48      42      51      54      10      45      42      51      54      10
      42      51      54      57      10      42      51      54      60      10
      39      33      42      45       1      39      33      42      48       1
      39      33      42      51       2      39      33     -42      51       3
      36      33      42      45       1      36      33      42      48       1
      36      33      42      51       2      36      33     -42      51       3
      30      33      42      45       2      30      33     -42      45       3
      30      33      42      48       2      30      33     -42      48       3
      27      21      30      33      10      24      21      30      33      10
      21      30      33      36      10      21      30      33      39      10
      18      12      21      24       1      18      12      21      27       1
      18      12      21      30       2      18      12     -21      30       3
      15      12      21      24       1      15      12      21      27       1
      15      12      21      30       2      15      12     -21      30       3
       9      12      21      24       2       9      12     -21      24       3
       9      12      21      27       2       9      12     -21      27       3
       6       0       9      12      10       3       0       9      12      10
       0       9      12      15      10       0       9      12      18      10
     207     201     210     213       1     207     201     210     216       1
     207     201     210     219       2     207     201    -210     219       3
     204     201     210     213       1     204     201     210     216       1
     204     201     210     219       2     204     201    -210     219       3
     198     201     210     213       2     198     201    -210     213       3
     198     201     210     216       2     198     201    -210     216       3
     195     189     198     201      10     192     189     198     201      10
     189     198     201     204      10     189     198     201     207      10
     186     180     189     192       1     186     180     189     195       1
     186     180     189     198       2     186     180    -189     198       3
     183     180     189     192       1     183     180     189     195       1
     183     180     189     198       2     183     180    -189     198       3
     177     180     189     192       2     177     180    -189     192       3
     177     180     189     195       2     177     180    -189     195       3
     174     168     177     180      10     171     168     177     180      10
     168     177     180     183      10     168     177     180     186      10
     165     159     168     171       1     165     159     168     174       1
     165     159     168     177       2     165     159    -168     177       3
     162     159     168     171       1     162     159     168     174       1
     162     159     168     177       2     162     159    -168     177       3
     156     159     168     171       2     156     159    -168     171       3
     156     159     168     174       2     156     159    -168     174       3
     153     147     156     159      10     150     147     156     159      10
     147     156     159     162      10     147     156     159     165      10
     144     138     147     150       1     144     138     147     153       1
     144     138     147     156       2     144     138    -147     156       3
     141     138     147     150       1     141     138     147     153       1
     141     138     147     156       2     141     138    -147     156       3
     135     138     147     150       2     135     138    -147     150       3
     135     138     147     153       2     135     138    -147     153       3
     132     126     135     138      10     129     126     135     138      10
     126     135     138     141      10     126     135     138     144      10
     123     117     126     129       1     123     117     126     132       1
     123     117     126     135       2     123     117    -126     135       3
     120     117     126     129       1     120     117     126     132       1
     120     117     126     135       2     120     117    -126     135       3
     114     117     126     129       2     114     117    -126     129       3
     114     117     126     132       2     114     117    -126     132       3
     111     105     114     117      10     108     105     114     117      10
     105     114     117     120      10     105     114     117     123      10
     312     306     315     318       1     312     306     315     321       1
     312     306     315     324       2     312     306    -315     324       3
     309     306     315     318       1     309     306     315     321       1
     309     306     315     324       2     309     306    -315     324       3
     303     306     315     318       2     303     306    -315     318       3
     303     306     315     321       2     303     306    -315     321       3
     300     294     303     306      10     297     294     303     306      10
     294     303     306     309      10     294     303     306     312      10
     291     285     294     297       1     291     285     294     300       1
     291     285     294     303       2     291     285    -294     303       3
     288     285     294     297       1     288     285     294     300       1
     288     285     294     303       2     288     285    -294     303       3
     282     285     294     297       2     282     285    -294     297       3
     282     285     294     300       2     282     285    -294     300       3
     279     273     282     285      10     276     273     282     285      10
     273     282     285     288      10     273     282     285     291      10
     270     264     273     276       1     270     264     273     279       1
     270     264     273     282       2     270     264    -273     282       3
     267     264     273     276       1     267     264     273     279       1
     267     264     273     282       2     267     264    -273     282       3
     261     264     273     276       2     261     264    -273     276       3
     261     264     273     279       2     261     264    -273     279       3
     258     252     261     264      10     255     252     261     264      10
     252     261     264     267      10     252     261     264     270      10
     249     243     252     255       1     249     243     252     258       1
     249     243     252     261       2     249     243    -252     261       3
     246     243     252     255       1     246     243     252     258       1
     246     243     252     261       2     246     243    -252     261       3
     240     243     252     255       2     240     243    -252     255       3
     240     243     252     258       2     240     243    -252     258       3
     237     231     240     243      10     234     231     240     243      10
     231     240     243     246      10     231     240     243     249      10
     228     222     231     234       1     228     222     231     237       1
     228     222     231     240       2     228     222    -231     240       3
     225     222     231     234       1     225     222     231     237       1
     225     222     231     240       2     225     222    -231     240       3
     219     222     231     234       2     219     222    -231     234       3
     219     222     231     237       2     219     222    -231     237       3
     216     210     219     222      10     213     210     219     222      10
     210     219     222     225      10     210     219     222     228      10
     417     411     420     423       1     417     411     420     426       1
     417     411     420     429       2     417     411    -420     429       3
     414     411     420     423       1     414     411     420     426       1
     414     411     420     429       2     414     411    -420     429       3
     408     411     420     423       2     408     411    -420     423       3
     408     411     420     426       2     408     411    -420     426       3
     405     399     408     411      10     402     399     408     411      10
     399     408     411     414      10     399     408     411     417      10
     396     390     399     402       1     396     390     399     405       1
     396     390     399     408       2     396     390    -399     408       3
     393     390     399     402       1     393     390     399     405       1
     393     390     399     408       2     393     390    -399     408       3
     387     390     399     402       2     387     390    -399     402       3
     387     390     399     405       2     387     390    -399     405       3
     384     378     387     390      10     381     378     387     390      10
     378     387     390     393      10     378     387     390     396      10
     375     369     378     381       1     375     369     378     384       1
     375     369     378     387       2     375     369    -378     387       3
     372     369     378     381       1     372     369     378     384       1
     372     369     378     387       2     372     369    -378     387       3
     366     369     378     381       2     366     369    -378     381       3
     366     369     378     384       2     366     369    -378     384       3
     363     357     366     369      10     360     357     366     369      10
     357     366     369     372      10     357     366     369     375      10
     354     348     357     360       1     354     348     357     363       1
     354     348     357     366       2     354     348    -357     366       3
     351     348     357     360       1     351     348     357     363       1
     351     348     357     366       2     351     348    -357     366       3
     345     348     357     360       2     345     348    -357     360       3
     345     348     357     363       2     345     348    -357     363       3
     342     336     345     348      10     339     336     345     348      10
     336     345     348     351      10     336     345     348     354      10
     333     327     336     339       1     333     327     336     342       1
     333     327     336     345       2     333     327    -336     345       3
     330     327     336     339       1     330     327     336     342       1
     330     327     336     345       2     330     327    -336     345       3
     324     327     336     339       2     324     327    -336     339       3
     324     327     336     342       2     324     327    -336     342       3
     321     315     324     327      10     318     315     324     327      10
     315     324     327     330      10     315     324     327     333      10
     522     516     525     528       1     522     516     525     531       1
     522     516     525     534       2     522     516    -525     534       3
     519     516     525     528       1     519     516     525     531       1
     519     516     525     534       2     519     516    -525     534       3
     513     516     525     528       2     513     516    -525     528       3
     513     516     525     531       2     513     516    -525     531       3
     510     504     513     516      10     507     504     513     516      10
     504     513     516     519      10     504     513     516     522      10
     501     495     504     507       1     501     495     504     510       1
     501     495     504     513       2     501     495    -504     513       3
     498     495     504     507       1     498     495     504     510       1
     498     495     504     513       2     498     495    -504     513       3
     492     495     504     507       2     492     495    -504     507       3
     492     495     504     510       2     492     495    -504     510       3
     489     483     492     495      10     486     483     492     495      10
     483     492     495     498      10     483     492     495     501      10
     480     474     483     486       1     480     474     483     489       1
     480     474     483     492       2     480     474    -483     492       3
     477     474     483     486       1     477     474     483     489       1
     477     474     483     492       2     477     474    -483     492       3
     471     474     483     486       2     471     474    -483     486       3
     471     474     483     489       2     471     474    -483     489       3
     468     462     471     474      10     465     462     471     474      10
     462     471     474     477      10     462     471     474     480      10
     459     453     462     465       1     459     453     462     468       1
     459     453     462     471       2     459     453    -462     471       3
     456     453     462     465       1     456     453     462     468       1
     456     453     462     471       2     456     453    -462     471       3
     450     453     462     465       2     450     453    -462     465       3
     450     453     462     468       2     450     453    -462     468       3
     447     441     450     453      10     444     441     450     453      10
     441     450     453     456      10     441     450     453     459      10
     438     432     441     444       1     438     432     441     447       1
     438     432     441     450       2     438     432    -441     450       3
     435     432     441     444       1     435     432     441     447       1
     435     432     441     450       2     435     432    -441     450       3
     429     432     441     444       2     429     432    -441     444       3
     429     432     441     447       2     429     432    -441     447       3
     426     420     429     432      10     423     420     429     432      10
     420     429     432     435      10     420     429     432     438      10
     606     600     609     612       1     606     600     609     615       1
     606     600     609     618       2     606     600    -609     618       3
     603     600     609     612       1     603     600     609     615       1
     603     600     609     618       2     603     600    -609     618       3
     597     591     600     603      13     597     591     600     606      13
     597     591     600     609      14     594     591     600     603      13
     594     591     600     606      13     594     591     600     609      14
     591     600     609     612       1     591     600     609     615       1
     588     582     591     594       1     588     582     591     597       1
     588     582     591     600       1     585     582     591     594       1
     585     582     591     597       1     585     582     591     600       1
     582     591     600     603      14     582     591     600     606      14
     579     582     591     594       2     579     582    -591     594       3
     579     582     591     597       2     579     582    -591     597       3
     573     579     582     585      18     573     579     582     588      18
     567     564     570     573      22     561     558     564     567      22
     561     558     564     570      22     555     546     543     558      22
     555     546     549     570      22     552     549     546     555      22
     552     549     570     564      22     552     549     570     573      22
     549     570     564     567      22     546     543     558     561      22
     543     546     549     552      22     543     558     564     567      22
     537     543     546     555      22     537     543     558     561      22
     531     525     534     537      18     528     525     534     537      18
     690     684     693     696       1     690     684     693     699       1
     690     684     693     702       2     690     684    -693     702       3
     687     684     693     696       1     687     684     693     699       1
     687     684     693     702       2     687     684    -693     702       3
     681     675     684     687      13     681     675     684     690      13
     681     675     684     693      14     678     675     684     687      13
     678     675     684     690      13     678     675     684     693      14
     675     684     693     696       1     675     684     693     699       1
     672     666     675     678       1     672     666     675     681       1
     672     666     675     684       1     669     666     675     678       1
     669     666     675     681       1     669     666     675     684       1
     666     675     684     687      14     666     675     684     690      14
     663     666     675     678       2     663     666    -675     678       3
     663     666     675     681       2     663     666    -675     681       3
     657     663     666     669      18     657     663     666     672      18
     651     648     654     657      22     645     642     648     651      22
     645     642     648     654      22     639     630     627     642      22
     639     630     633     654      22     636     633     630     639      22
     636     633     654     648      22     636     633     654     657      22
     633     654     648     651      22     630     627     642     645      22
     627     630     633     636      22     627     642     648     651      22
     621     627     630     639      22     621     627     642     645      22
     615     609     618     621      18     612     609     618     621      18
     774     768     777     780       1     774     768     777     783       1
     774     768     777     786       2     774     768    -777     786       3
     771     768     777     780       1     771     768     777     783       1
     771     768     777     786       2     771     768    -777     786       3
     765     759     768     771      13     765     759     768     774      13
     765     759     768     777      14     762     759     768     771      13
     762     759     768     774      13     762     759     768     777      14
     759     768     777     780       1     759     768     777     783       1
     756     750     759     762       1     756     750     759     765       1
     756     750     759     768       1     753     750     759     762       1
     753     750     759     765       1     753     750     759     768       1
     750     759     768     771      14     750     759     768     774      14
     747     750     759     762       2     747     750    -759     762       3
     747     750     759     765       2     747     750    -759     765       3
     741     747     750     753      18     741     747     750     756      18
     735     732     738     741      22     729     726     732     735      22
     729     726     732     738      22     723     714     711     726      22
     723     714     717     738      22     720     717     714     723      22
     720     717     738     732      22     720     717     738     741      22
     717     738     732     735      22     714     711     726     729      22
     711     714     717     720      22     711     726     732     735      22
     705     711     714     723      22     705     711     726     729      22
     699     693     702     705      18     696     693     702     705      18
     858     852     861     864       1     858     852     861     867       1
     858     852     861     870       2     858     852    -861     870       3
     855     852     861     864       1     855     852     861     867       1
     855     852     861     870       2     855     852    -861     870       3
     849     843     852     855      13     849     843     852     858      13
     849     843     852     861      14     846     843     852     855      13
     846     843     852     858      13     846     843     852     861      14
     843     852     861     864       1     843     852     861     867       1
     840     834     843     846       1     840     834     843     849       1
     840     834     843     852       1     837     834     843     846       1
     837     834     843     849       1     837     834     843     852       1
     834     843     852     855      14     834     843     852     858      14
     831     834     843     846       2     831     834    -843     846       3
     831     834     843     849       2     831     834    -843     849       3
     825     831     834     837      18     825     831     834     840      18
     819     816     822     825      22     813     810     816     819      22
     813     810     816     822      22     807     798     795     810      22
     807     798     801     822      22     804     801     798     807      22
     804     801     822     816      22     804     801     822     825      22
     801     822     816     819      22     798     795     810     813      22
     795     798     801     804      22     795     810     816     819      22
     789     795     798     807      22     789     795     810     813      22
     783     777     786     789      18     780     777     786     789      18
     942     936     945     948       1     942     936     945     951       1
     942     936     945     954       2     942     936    -945     954       3
     939     936     945     948       1     939     936     945     951       1
     939     936     945     954       2     939     936    -945     954       3
     933     927     936     939      13     933     927     936     942      13
     933     927     936     945      14     930     927     936     939      13
     930     927     936     942      13     930     927     936     945      14
     927     936     945     948       1     927     936     945     951       1
     924     918     927     930       1     924     918     927     933       1
     924     918     927     936       1     921     918     927     930       1
     921     918     927     933       1     921     918     927     936       1
     918     927     936     939      14     918     927     936     942      14
     915     918     927     930       2     915     918    -927     930       3
     915     918     927     933       2     915     918    -927     933       3
     909     915     918     921      18     909     915     918     924      18
     903     900     906     909      22     897     894     900     903      22
     897     894     900     906      22     891     882     879     894      22
     891     882     885     906      22     888     885     882     891      22
     888     885     906     900      22     888     885     906     909      22
     885     906     900     903      22     882     879     894     897      22
     879     882     885     888      22     879     894     900     903      22
     873     879     882     891      22     873     879     894     897      22
     867     861     870     873      18     864     861     870     873      18
    1026    1020    1029    1032       1    1026    1020    1029    1035       1
    1026    1020    1029    1038       2    1026    1020   -1029    1038       3
    1023    1020    1029    1032       1    1023    1020    1029    1035       1
    1023    1020    1029    1038       2    1023    1020   -1029    1038       3
    1017    1011    1020    1023      13    1017    1011    1020    1026      13
    1017    1011    1020    1029      14    1014    1011    1020    1023      13
    1014    1011    1020    1026      13    1014    1011    1020    1029      14
    1011    1020    1029    1032       1    1011    1020    1029    1035       1
    1008    1002    1011    1014       1    1008    1002    1011    1017       1
    1008    1002    1011    1020       1    1005    1002    1011    1014       1
    1005    1002    1011    1017       1    1005    1002    1011    1020       1
    1002    1011    1020    1023      14    1002    1011    1020    1026      14
     999    1002    1011    1014       2     999    1002   -1011    1014       3
     999    1002    1011    1017       2     999    1002   -1011    1017       3
     993     999    1002    1005      18     993     999    1002    1008      18
     987     984     990     993      22     981     978     984     987      22
     981     978     984     990      22     975     966     963     978      22
     975     966     969     990      22     972     969     966     975      22
     972     969     990     984      22     972     969     990     993      22
     969     990     984     987      22     966     963     978     981      22
     963     966     969     972      22     963     978     984     987      22
     957     963     966     975      22     957     963     978     981      22
     951     945     954     957      18     948     945     954     957      18
    1110    1104    1113    1116       1    1110    1104    1113    1119       1
    1110    1104    1113    1122       2    1110    1104   -1113    1122       3
    1107    1104    1113    1116       1    1107    1104    1113    1119       1
    1107    1104    1113    1122       2    1107    1104   -1113    1122       3
    1101    1095    1104    1107      13    1101    1095    1104    1110      13
    1101    1095    1104    1113      14    1098    1095    1104    1107      13
    1098    1095    1104    1110      13    1098    1095    1104    1113      14
    1095    1104    1113    1116       1    1095    1104    1113    1119       1
    1092    1086    1095    1098       1    1092    1086    1095    1101       1
    1092    1086    1095    1104       1    1089    1086    1095    1098       1
    1089    1086    1095    1101       1    1089    1086    1095    1104       1
    1086    1095    1104    1107      14    1086    1095    1104    1110      14
    1083    1086    1095    1098       2    1083    1086   -1095    1098       3
    1083    1086    1095    1101       2    1083    1086   -1095    1101       3
    1077    1083    1086    1089      18    1077    1083    1086    1092      18
    1071    1068    1074    1077      22    1065    1062    1068    1071      22
    1065    1062    1068    1074      22    1059    1050    1047    1062      22
    1059    1050    1053    1074      22    1056    1053    1050    1059      22
    1056    1053    1074    1068      22    1056    1053    1074    1077      22
    1053    1074    1068    1071      22    1050    1047    1062    1065      22
    1047    1050    1053    1056      22    1047    1062    1068    1071      22
    1041    1047    1050    1059      22    1041    1047    1062    1065      22
    1035    1029    1038    1041      18    1032    1029    1038    1041      18
    1194    1188    1197    1200       1    1194    1188    1197    1203       1
    1194    1188    1197    1206       2    1194    1188   -1197    1206       3
    1191    1188    1197    1200       1    1191    1188    1197    1203       1
    1191    1188    1197    1206       2    1191    1188   -1197    1206       3
    1185    1179    1188    1191      13    1185    1179    1188    1194      13
    1185    1179    1188    1197      14    1182    1179    1188    1191      13
    1182    1179    1188    1194      13    1182    1179    1188    1197      14
    1179    1188    1197    1200       1    1179    1188    1197    1203       1
    1176    1170    1179    1182       1    1176    1170    1179    1185       1
    1176    1170    1179    1188       1    1173    1170    1179    1182       1
    1173    1170    1179    1185       1    1173    1170    1179    1188       1
    1170    1179    1188    1191      14    1170    1179    1188    1194      14
    1167    1170    1179    1182       2    1167    1170   -1179    1182       3
    1167    1170    1179    1185       2    1167    1170   -1179    1185       3
    1161    1167    1170    1173      18    1161    1167    1170    1176      18
    1155    1152    1158    1161      22    1149    1146    1152    1155      22
    1149    1146    1152    1158      22    1143    1134    1131    1146      22
    1143    1134    1137    1158      22    1140    1137    1134    1143      22
    1140    1137    1158    1152      22    1140    1137    1158    1161      22
    1137    1158    1152    1155      22    1134    1131    1146    1149      22
    1131    1134    1137    1140      22    1131    1146    1152    1155      22
    1125    1131    1134    1143      22    1125    1131    1146    1149      22
    1119    1113    1122    1125      18    1116    1113    1122    1125      18
    1278    1272    1281    1284       1    1278    1272    1281    1287       1
    1278    1272    1281    1290       2    1278    1272   -1281    1290       3
    1275    1272    1281    1284       1    1275    1272    1281    1287       1
    1275    1272    1281    1290       2    1275    1272   -1281    1290       3
    1269    1263    1272    1275      13    1269    1263    1272    1278      13
    1269    1263    1272    1281      14    1266    1263    1272    1275      13
    1266    1263    1272    1278      13    1266    1263    1272    1281      14
    1263    1272    1281    1284       1    1263    1272    1281    1287       1
    1260    1254    1263    1266       1    1260    1254    1263    1269       1
    1260    1254    1263    1272       1    1257    1254    1263    1266       1
    1257    1254    1263    1269       1    1257    1254    1263    1272       1
    1254    1263    1272    1275      14    1254    1263    1272    1278      14
    1251    1254    1263    1266       2    1251    1254   -1263    1266       3
    1251    1254    1263    1269       2    1251    1254   -1263    1269       3
    1245    1251    1254    1257      18    1245    1251    1254    1260      18
    1239    1236    1242    1245      22    1233    1230    1236    1239      22
    1233    1230    1236    1242      22    1227    1218    1215    1230      22
    1227    1218    1221    1242      22    1224    1221    1218    1227      22
    1224    1221    1242    1236      22    1224    1221    1242    1245      22
    1221    1242    1236    1239      22    1218    1215    1230    1233      22
    1215    1218    1221    1224      22    1215    1230    1236    1239      22
    1209    1215    1218    1227      22    1209    1215    1230    1233      22
    1203    1197    1206    1209      18    1200    1197    1206    1209      18
    1362    1356    1365    1368       1    1362    1356    1365    1371       1
    1362    1356    1365    1374       2    1362    1356   -1365    1374       3
    1359    1356    1365    1368       1    1359    1356    1365    1371       1
    1359    1356    1365    1374       2    1359    1356   -1365    1374       3
    1353    1347    1356    1359      13    1353    1347    1356    1362      13
    1353    1347    1356    1365      14    1350    1347    1356    1359      13
    1350    1347    1356    1362      13    1350    1347    1356    1365      14
    1347    1356    1365    1368       1    1347    1356    1365    1371       1
    1344    1338    1347    1350       1    1344    1338    1347    1353       1
    1344    1338    1347    1356       1    1341    1338    1347    1350       1
    1341    1338    1347    1353       1    1341    1338    1347    1356       1
    1338    1347    1356    1359      14    1338    1347    1356    1362      14
    1335    1338    1347    1350       2    1335    1338   -1347    1350       3
    1335    1338    1347    1353       2    1335    1338   -1347    1353       3
    1329    1335    1338    1341      18    1329    1335    1338    1344      18
    1323    1320    1326    1329      22    1317    1314    1320    1323      22
    1317    1314    1320    1326      22    1311    1302    1299    1314      22
    1311    1302    1305    1326      22    1308    1305    1302    1311      22
    1308    1305    1326    1320      22    1308    1305    1326    1329      22
    1305    1326    1320    1323      22    1302    1299    1314    1317      22
    1299    1302    1305    1308      22    1299    1314    1320    1323      22
    1293    1299    1302    1311      22    1293    1299    1314    1317      22
    1287    1281    1290    1293      18    1284    1281    1290    1293      18
    1446    1440    1449    1452       1    1446    1440    1449    1455       1
    1446    1440    1449    1458       2    1446    1440   -1449    1458       3
    1443    1440    1449    1452       1    1443    1440    1449    1455       1
    1443    1440    1449    1458       2    1443    1440   -1449    1458       3
    1437    1431    1440    1443      13    1437    1431    1440    1446      13
    1437    1431    1440    1449      14    1434    1431    1440    1443      13
    1434    1431    1440    1446      13    1434    1431    1440    1449      14
    1431    1440    1449    1452       1    1431    1440    1449    1455       1
    1428    1422    1431    1434       1    1428    1422    1431    1437       1
    1428    1422    1431    1440       1    1425    1422    1431    1434       1
    1425    1422    1431    1437       1    1425    1422    1431    1440       1
    1422    1431    1440    1443      14    1422    1431    1440    1446      14
    1419    1422    1431    1434       2    1419    1422   -1431    1434       3
    1419    1422    1431    1437       2    1419    1422   -1431    1437       3
    1413    1419    1422    1425      18    1413    1419    1422    1428      18
    1407    1404    1410    1413      22    1401    1398    1404    1407      22
    1401    1398    1404    1410      22    1395    1386    1383    1398      22
    1395    1386    1389    1410      22    1392    1389    1386    1395      22
    1392    1389    1410    1404      22    1392    1389    1410    1413      22
    1389    1410    1404    1407      22    1386    1383    1398    1401      22
    1383    1386    1389    1392      22    1383    1398    1404    1407      22
    1377    1383    1386    1395      22    1377    1383    1398    1401      22
    1371    1365    1374    1377      18    1368    1365    1374    1377      18
    1530    1524    1533    1536       1    1530    1524    1533    1539       1
    1530    1524    1533    1542       2    1530    1524   -1533    1542       3
    1527    1524    1533    1536       1    1527    1524    1533    1539       1
    1527    1524    1533    1542       2    1527    1524   -1533    1542       3
    1521    1515    1524    1527      13    1521    1515    1524    1530      13
    1521    1515    1524    1533      14    1518    1515    1524    1527      13
    1518    1515    1524    1530      13    1518    1515    1524    1533      14
    1515    1524    1533    1536       1    1515    1524    1533    1539       1
    1512    1506    1515    1518       1    1512    1506    1515    1521       1
    1512    1506    1515    1524       1    1509    1506    1515    1518       1
    1509    1506    1515    1521       1    1509    1506    1515    1524       1
    1506    1515    1524    1527      14    1506    1515    1524    1530      14
    1503    1506    1515    1518       2    1503    1506   -1515    1518       3
    1503    1506    1515    1521       2    1503    1506   -1515    1521       3
    1497    1503    1506    1509      18    1497    1503    1506    1512      18
    1491    1488    1494    1497      22    1485    1482    1488    1491      22
    1485    1482    1488    1494      22    1479    1470    1467    1482      22
    1479    1470    1473    1494      22    1476    1473    1470    1479      22
    1476    1473    1494    1488      22    1476    1473    1494    1497      22
    1473    1494    1488    1491      22    1470    1467    1482    1485      22
    1467    1470    1473    1476      22    1467    1482    1488    1491      22
    1461    1467    1470    1479      22    1461    1467    1482    1485      22
    1455    1449    1458    1461      18    1452    1449    1458    1461      18
    1614    1608    1617    1620       1    1614    1608    1617    1623       1
    1614    1608    1617    1626       2    1614    1608   -1617    1626       3
    1611    1608    1617    1620       1    1611    1608    1617    1623       1
    1611    1608    1617    1626       2    1611    1608   -1617    1626       3
    1605    1599    1608    1611      13    1605    1599    1608    1614      13
    1605    1599    1608    1617      14    1602    1599    1608    1611      13
    1602    1599    1608    1614      13    1602    1599    1608    1617      14
    1599    1608    1617    1620       1    1599    1608    1617    1623       1
    1596    1590    1599    1602       1    1596    1590    1599    1605       1
    1596    1590    1599    1608       1    1593    1590    1599    1602       1
    1593    1590    1599    1605       1    1593    1590    1599    1608       1
    1590    1599    1608    1611      14    1590    1599    1608    1614      14
    1587    1590    1599    1602       2    1587    1590   -1599    1602       3
    1587    1590    1599    1605       2    1587    1590   -1599    1605       3
    1581    1587    1590    1593      18    1581    1587    1590    1596      18
    1575    1572    1578    1581      22    1569    1566    1572    1575      22
    1569    1566    1572    1578      22    1563    1554    1551    1566      22
    1563    1554    1557    1578      22    1560    1557    1554    1563      22
    1560    1557    1578    1572      22    1560    1557    1578    1581      22
    1557    1578    1572    1575      22    1554    1551    1566    1569      22
    1551    1554    1557    1560      22    1551    1566    1572    1575      22
    1545    1551    1554    1563      22    1545    1551    1566    1569      22
    1539    1533    1542    1545      18    1536    1533    1542    1545      18
    1698    1692    1701    1704       1    1698    1692    1701    1707       1
    1698    1692    1701    1710       2    1698    1692   -1701    1710       3
    1695    1692    1701    1704       1    1695    1692    1701    1707       1
    1695    1692    1701    1710       2    1695    1692   -1701    1710       3
    1689    1683    1692    1695      13    1689    1683    1692    1698      13
    1689    1683    1692    1701      14    1686    1683    1692    1695      13
    1686    1683    1692    1698      13    1686    1683    1692    1701      14
    1683    1692    1701    1704       1    1683    1692    1701    1707       1
    1680    1674    1683    1686       1    1680    1674    1683    1689       1
    1680    1674    1683    1692       1    1677    1674    1683    1686       1
    1677    1674    1683    1689       1    1677    1674    1683    1692       1
    1674    1683    1692    1695      14    1674    1683    1692    1698      14
    1671    1674    1683    1686       2    1671    1674   -1683    1686       3
    1671    1674    1683    1689       2    1671    1674   -1683    1689       3
    1665    1671    1674    1677      18    1665    1671    1674    1680      18
    1659    1656    1662    1665      22    1653    1650    1656    1659      22
    1653    1650    1656    1662      22    1647    1638    1635    1650      22
    1647    1638    1641    1662      22    1644    1641    1638    1647      22
    1644    1641    1662    1656      22    1644    1641    1662    1665      22
    1641    1662    1656    1659      22    1638    1635    1650    1653      22
    1635    1638    1641    1644      22    1635    1650    1656    1659      22
    1629    1635    1638    1647      22    1629    1635    1650    1653      22
    1623    1617    1626    1629      18    1620    1617    1626    1629      18
    1782    1776    1785    1788       1    1782    1776    1785    1791       1
    1782    1776    1785    1794       2    1782    1776   -1785    1794       3
    1779    1776    1785    1788       1    1779    1776    1785    1791       1
    1779    1776    1785    1794       2    1779    1776   -1785    1794       3
    1773    1767    1776    1779      13    1773    1767    1776    1782      13
    1773    1767    1776    1785      14    1770    1767    1776    1779      13
    1770    1767    1776    1782      13    1770    1767    1776    1785      14
    1767    1776    1785    1788       1    1767    1776    1785    1791       1
    1764    1758    1767    1770       1    1764    1758    1767    1773       1
    1764    1758    1767    1776       1    1761    1758    1767    1770       1
    1761    1758    1767    1773       1    1761    1758    1767    1776       1
    1758    1767    1776    1779      14    1758    1767    1776    1782      14
    1755    1758    1767    1770       2    1755    1758   -1767    1770       3
    1755    1758    1767    1773       2    1755    1758   -1767    1773       3
    1749    1755    1758    1761      18    1749    1755    1758    1764      18
    1743    1740    1746    1749      22    1737    1734    1740    1743      22
    1737    1734    1740    1746      22    1731    1722    1719    1734      22
    1731    1722    1725    1746      22    1728    1725    1722    1731      22
    1728    1725    1746    1740      22    1728    1725    1746    1749      22
    1725    1746    1740    1743      22    1722    1719    1734    1737      22
    1719    1722    1725    1728      22    1719    1734    1740    1743      22
    1713    1719    1722    1731      22    1713    1719    1734    1737      22
    1707    1701    1710    1713      18    1704    1701    1710    1713      18
    1866    1860    1869    1872       1    1866    1860    1869    1875       1
    1866    1860    1869    1878       2    1866    1860   -1869    1878       3
    1863    1860    1869    1872       1    1863    1860    1869    1875       1
    1863    1860    1869    1878       2    1863    1860   -1869    1878       3
    1857    1851    1860    1863      13    1857    1851    1860    1866      13
    1857    1851    1860    1869      14    1854    1851    1860    1863      13
    1854    1851    1860    1866      13    1854    1851    1860    1869      14
    1851    1860    1869    1872       1    1851    1860    1869    1875       1
    1848    1842    1851    1854       1    1848    1842    1851    1857       1
    1848    1842    1851    1860       1    1845    1842    1851    1854       1
    1845    1842    1851    1857       1    1845    1842    1851    1860       1
    1842    1851    1860    1863      14    1842    1851    1860    1866      14
    1839    1842    1851    1854       2    1839    1842   -1851    1854       3
    1839    1842    1851    1857       2    1839    1842   -1851    1857       3
    1833    1839    1842    1845      18    1833    1839    1842    1848      18
    1827    1824    1830    1833      22    1821    1818    1824    1827      22
    1821    1818    1824    1830      22    1815    1806    1803    1818      22
    1815    1806    1809    1830      22    1812    1809    1806    1815      22
    1812    1809    1830    1824      22    1812    1809    1830    1833      22
    1809    1830    1824    1827      22    1806    1803    1818    1821      22
    1803    1806    1809    1812      22    1803    1818    1824    1827      22
    1797    1803    1806    1815      22    1797    1803    1818    1821      22
    1791    1785    1794    1797      18    1788    1785    1794    1797      18
    1950    1944    1953    1956       1    1950    1944    1953    1959       1
    1950    1944    1953    1962       2    1950    1944   -1953    1962       3
    1947    1944    1953    1956       1    1947    1944    1953    1959       1
    1947    1944    1953    1962       2    1947    1944   -1953    1962       3
    1941    1935    1944    1947      13    1941    1935    1944    1950      13
    1941    1935    1944    1953      14    1938    1935    1944    1947      13
    1938    1935    1944    1950      13    1938    1935    1944    1953      14
    1935    1944    1953    1956       1    1935    1944    1953    1959       1
    1932    1926    1935    1938       1    1932    1926    1935    1941       1
    1932    1926    1935    1944       1    1929    1926    1935    1938       1
    1929    1926    1935    1941       1    1929    1926    1935    1944       1
    1926    1935    1944    1947      14    1926    1935    1944    1950      14
    1923    1926    1935    1938       2    1923    1926   -1935    1938       3
    1923    1926    1935    1941       2    1923    1926   -1935    1941       3
    1917    1923    1926    1929      18    1917    1923    1926    1932      18
    1911    1908    1914    1917      22    1905    1902    1908    1911      22
    1905    1902    1908    1914      22    1899    1890    1887    1902      22
    1899    1890    1893    1914      22    1896    1893    1890    1899      22
    1896    1893    1914    1908      22    1896    1893    1914    1917      22
    1893    1914    1908    1911      22    1890    1887    1902    1905      22
    1887    1890    1893    1896      22    1887    1902    1908    1911      22
    1881    1887    1890    1899      22    1881    1887    1902    1905      22
    1875    1869    1878    1881      18    1872    1869    1878    1881      18
    2034    2028    2037    2040       1    2034    2028    2037    2043       1
    2034    2028    2037    2046       2    2034    2028   -2037    2046       3
    2031    2028    2037    2040       1    2031    2028    2037    2043       1
    2031    2028    2037    2046       2    2031    2028   -2037    2046       3
    2025    2019    2028    2031      13    2025    2019    2028    2034      13
    2025    2019    2028    2037      14    2022    2019    2028    2031      13
    2022    2019    2028    2034      13    2022    2019    2028    2037      14
    2019    2028    2037    2040       1    2019    2028    2037    2043       1
    2016    2010    2019    2022       1    2016    2010    2019    2025       1
    2016    2010    2019    2028       1    2013    2010    2019    2022       1
    2013    2010    2019    2025       1    2013    2010    2019    2028       1
    2010    2019    2028    2031      14    2010    2019    2028    2034      14
    2007    2010    2019    2022       2    2007    2010   -2019    2022       3
    2007    2010    2019    2025       2    2007    2010   -2019    2025       3
    2001    2007    2010    2013      18    2001    2007    2010    2016      18
    1995    1992    1998    2001      22    1989    1986    1992    1995      22
    1989    1986    1992    1998      22    1983    1974    1971    1986      22
    1983    1974    1977    1998      22    1980    1977    1974    1983      22
    1980    1977    1998    1992      22    1980    1977    1998    2001      22
    1977    1998    1992    1995      22    1974    1971    1986    1989      22
    1971    1974    1977    1980      22    1971    1986    1992    1995      22
    1965    1971    1974    1983      22    1965    1971    1986    1989      22
    1959    1953    1962    1965      18    1956    1953    1962    1965      18
    2118    2112    2121    2124       1    2118    2112    2121    2127       1
    2118    2112    2121    2130       2    2118    2112   -2121    2130       3
    2115    2112    2121    2124       1    2115    2112    2121    2127       1
    2115    2112    2121    2130       2    2115    2112   -2121    2130       3
    2109    2103    2112    2115      13    2109    2103    2112    2118      13
    2109    2103    2112    2121      14    2106    2103    2112    2115      13
    2106    2103    2112    2118      13    2106    2103    2112    2121      14
    2103    2112    2121    2124       1    2103    2112    2121    2127       1
    2100    2094    2103    2106       1    2100    2094    2103    2109       1
    2100    2094    2103    2112       1    2097    2094    2103    2106       1
    2097    2094    2103    2109       1    2097    2094    2103    2112       1
    2094    2103    2112    2115      14    2094    2103    2112    2118      14
    2091    2094    2103    2106       2    2091    2094   -2103    2106       3
    2091    2094    2103    2109       2    2091    2094   -2103    2109       3
    2085    2091    2094    2097      18    2085    2091    2094    2100      18
    2079    2076    2082    2085      22    2073    2070    2076    2079      22
    2073    2070    2076    2082      22    2067    2058    2055    2070      22
    2067    2058    2061    2082      22    2064    2061    2058    2067      22
    2064    2061    2082    2076      22    2064    2061    2082    2085      22
    2061    2082    2076    2079      22    2058    2055    2070    2073      22
    2055    2058    2061    2064      22    2055    2070    2076    2079      22
    2049    2055    2058    2067      22    2049    2055    2070    2073      22
    2043    2037    2046    2049      18    2040    2037    2046    2049      18
    2202    2196    2205    2208       1    2202    2196    2205    2211       1
    2202    2196    2205    2214       2    2202    2196   -2205    2214       3
    2199    2196    2205    2208       1    2199    2196    2205    2211       1
    2199    2196    2205    2214       2    2199    2196   -2205    2214       3
    2193    2187    2196    2199      13    2193    2187    2196    2202      13
    2193    2187    2196    2205      14    2190    2187    2196    2199      13
    2190    2187    2196    2202      13    2190    2187    2196    2205      14
    2187    2196    2205    2208       1    2187    2196    2205    2211       1
    2184    2178    2187    2190       1    2184    2178    2187    2193       1
    2184    2178    2187    2196       1    2181    2178    2187    2190       1
    2181    2178    2187    2193       1    2181    2178    2187    2196       1
    2178    2187    2196    2199      14    2178    2187    2196    2202      14
    2175    2178    2187    2190       2    2175    2178   -2187    2190       3
    2175    2178    2187    2193       2    2175    2178   -2187    2193       3
    2169    2175    2178    2181      18    2169    2175    2178    2184      18
    2163    2160    2166    2169      22    2157    2154    2160    2163      22
    2157    2154    2160    2166      22    2151    2142    2139    2154      22
    2151    2142    2145    2166      22    2148    2145    2142    2151      22
    2148    2145    2166    2160      22    2148    2145    2166    2169      22
    2145    2166    2160    2163      22    2142    2139    2154    2157      22
    2139    2142    2145    2148      22    2139    2154    2160    2163      22
    2133    2139    2142    2151      22    2133    2139    2154    2157      22
    2127    2121    2130    2133      18    2124    2121    2130    2133      18
    2286    2280    2289    2292       1    2286    2280    2289    2295       1
    2286    2280    2289    2298       2    2286    2280   -2289    2298       3
    2283    2280    2289    2292       1    2283    2280    2289    2295       1
    2283    2280    2289    2298       2    2283    2280   -2289    2298       3
    2277    2271    2280    2283      13    2277    2271    2280    2286      13
    2277    2271    2280    2289      14    2274    2271    2280    2283      13
    2274    2271    2280    2286      13    2274    2271    2280    2289      14
    2271    2280    2289    2292       1    2271    2280    2289    2295       1
    2268    2262    2271    2274       1    2268    2262    2271    2277       1
    2268    2262    2271    2280       1    2265    2262    2271    2274       1
    2265    2262    2271    2277       1    2265    2262    2271    2280       1
    2262    2271    2280    2283      14    2262    2271    2280    2286      14
    2259    2262    2271    2274       2    2259    2262   -2271    2274       3
    2259    2262    2271    2277       2    2259    2262   -2271    2277       3
    2253    2259    2262    2265      18    2253    2259    2262    2268      18
    2247    2244    2250    2253      22    2241    2238    2244    2247      22
    2241    2238    2244    2250      22    2235    2226    2223    2238      22
    2235    2226    2229    2250      22    2232    2229    2226    2235      22
    2232    2229    2250    2244      22    2232    2229    2250    2253      22
    2229    2250    2244    2247      22    2226    2223    2238    2241      22
    2223    2226    2229    2232      22    2223    2238    2244    2247      22
    2217    2223    2226    2235      22    2217    2223    2238    2241      22
    2211    2205    2214    2217      18    2208    2205    2214    2217      18
    2370    2364    2373    2376       1    2370    2364    2373    2379       1
    2370    2364    2373    2382       2    2370    2364   -2373    2382       3
    2367    2364    2373    2376       1    2367    2364    2373    2379       1
    2367    2364    2373    2382       2    2367    2364   -2373    2382       3
    2361    2355    2364    2367      13    2361    2355    2364    2370      13
    2361    2355    2364    2373      14    2358    2355    2364    2367      13
    2358    2355    2364    2370      13    2358    2355    2364    2373      14
    2355    2364    2373    2376       1    2355    2364    2373    2379       1
    2352    2346    2355    2358       1    2352    2346    2355    2361       1
    2352    2346    2355    2364       1    2349    2346    2355    2358       1
    2349    2346    2355    2361       1    2349    2346    2355    2364       1
    2346    2355    2364    2367      14    2346    2355    2364    2370      14
    2343    2346    2355    2358       2    2343    2346   -2355    2358       3
    2343    2346    2355    2361       2    2343    2346   -2355    2361       3
    2337    2343    2346    2349      18    2337    2343    2346    2352      18
    2331    2328    2334    2337      22    2325    2322    2328    2331      22
    2325    2322    2328    2334      22    2319    2310    2307    2322      22
    2319    2310    2313    2334      22    2316    2313    2310    2319      22
    2316    2313    2334    2328      22    2316    2313    2334    2337      22
    2313    2334    2328    2331      22    2310    2307    2322    2325      22
    2307    2310    2313    2316      22    2307    2322    2328    2331      22
    2301    2307    2310    2319      22    2301    2307    2322    2325      22
    2295    2289    2298    2301      18    2292    2289    2298    2301      18
    2454    2448    2457    2460       1    2454    2448    2457    2463       1
    2454    2448    2457    2466       2    2454    2448   -2457    2466       3
    2451    2448    2457    2460       1    2451    2448    2457    2463       1
    2451    2448    2457    2466       2    2451    2448   -2457    2466       3
    2445    2439    2448    2451      13    2445    2439    2448    2454      13
    2445    2439    2448    2457      14    2442    2439    2448    2451      13
    2442    2439    2448    2454      13    2442    2439    2448    2457      14
    2439    2448    2457    2460       1    2439    2448    2457    2463       1
    2436    2430    2439    2442       1    2436    2430    2439    2445       1
    2436    2430    2439    2448       1    2433    2430    2439    2442       1
    2433    2430    2439    2445       1    2433    2430    2439    2448       1
    2430    2439    2448    2451      14    2430    2439    2448    2454      14
    2427    2430    2439    2442       2    2427    2430   -2439    2442       3
    2427    2430    2439    2445       2    2427    2430   -2439    2445       3
    2421    2427    2430    2433      18    2421    2427    2430    2436      18
    2415    2412    2418    2421      22    2409    2406    2412    2415      22
    2409    2406    2412    2418      22    2403    2394    2391    2406      22
    2403    2394    2397    2418      22    2400    2397    2394    2403      22
    2400    2397    2418    2412      22    2400    2397    2418    2421      22
    2397    2418    2412    2415      22    2394    2391    2406    2409      22
    2391    2394    2397    2400      22    2391    2406    2412    2415      22
    2385    2391    2394    2403      22    2385    2391    2406    2409      22
    2379    2373    2382    2385      18    2376    2373    2382    2385      18
    2538    2532    2541    2544       1    2538    2532    2541    2547       1
    2538    2532    2541    2550       2    2538    2532   -2541    2550       3
    2535    2532    2541    2544       1    2535    2532    2541    2547       1
    2535    2532    2541    2550       2    2535    2532   -2541    2550       3
    2529    2523    2532    2535      13    2529    2523    2532    2538      13
    2529    2523    2532    2541      14    2526    2523    2532    2535      13
    2526    2523    2532    2538      13    2526    2523    2532    2541      14
    2523    2532    2541    2544       1    2523    2532    2541    2547       1
    2520    2514    2523    2526       1    2520    2514    2523    2529       1
    2520    2514    2523    2532       1    2517    2514    2523    2526       1
    2517    2514    2523    2529       1    2517    2514    2523    2532       1
    2514    2523    2532    2535      14    2514    2523    2532    2538      14
    2511    2514    2523    2526       2    2511    2514   -2523    2526       3
    2511    2514    2523    2529       2    2511    2514   -2523    2529       3
    2505    2511    2514    2517      18    2505    2511    2514    2520      18
    2499    2496    2502    2505      22    2493    2490    2496    2499      22
    2493    2490    2496    2502      22    2487    2478    2475    2490      22
    2487    2478    2481    2502      22    2484    2481    2478    2487      22
    2484    2481    2502    2496      22    2484    2481    2502    2505      22
    2481    2502    2496    2499      22    2478    2475    2490    2493      22
    2475    2478    2481    2484      22    2475    2490    2496    2499      22
    2469    2475    2478    2487      22    2469    2475    2490    2493      22
    2463    2457    2466    2469      18    2460    2457    2466    2469      18
    2613    2607    2616    2619      13    2613    2607    2616    2622      13
    2610    2607    2616    2619      13    2610    2607    2616    2622      13
    2604    2598    2607    2610       1    2604    2598    2607    2613       1
    2604    2598    2607    2616       1    2601    2598    2607    2610       1
    2601    2598    2607    2613       1    2601    2598    2607    2616       1
    2598    2607    2616    2619      14    2598    2607    2616    2622      14
    2595    2598    2607    2610       2    2595    2598   -2607    2610       3
    2595    2598    2607    2613       2    2595    2598   -2607    2613       3
    2589    2595    2598    2601      18    2589    2595    2598    2604      18
    2583    2580    2586    2589      22    2577    2574    2580    2583      22
    2577    2574    2580    2586      22    2571    2562    2559    2574      22
    2571    2562    2565    2586      22    2568    2565    2562    2571      22
    2568    2565    2586    2580      22    2568    2565    2586    2589      22
    2565    2586    2580    2583      22    2562    2559    2574    2577      22
    2559    2562    2565    2568      22    2559    2574    2580    2583      22
    2553    2559    2562    2571      22    2553    2559    2574    2577      22
    2547    2541    2550    2553      18    2544    2541    2550    2553      18
     558     570    -564    -567      26     543     564    -558    -561      26
     546     570    -549    -552      26     543     549    -546    -555      26
     642     654    -648    -651      26     627     648    -642    -645      26
     630     654    -633    -636      26     627     633    -630    -639      26
     726     738    -732    -735      26     711     732    -726    -729      26
     714     738    -717    -720      26     711     717    -714    -723      26
     810     822    -816    -819      26     795     816    -810    -813      26
     798     822    -801    -804      26     795     801    -798    -807      26
     894     906    -900    -903      26     879     900    -894    -897      26
     882     906    -885    -888      26     879     885    -882    -891      26
     978     990    -984    -987      26     963     984    -978    -981      26
     966     990    -969    -972      26     963     969    -966    -975      26
    1062    1074   -1068   -1071      26    1047    1068   -1062   -1065      26
    1050    1074   -1053   -1056      26    1047    1053   -1050   -1059      26
    1146    1158   -1152   -1155      26    1131    1152   -1146   -1149      26
    1134    1158   -1137   -1140      26    1131    1137   -1134   -1143      26
    1230    1242   -1236   -1239      26    1215    1236   -1230   -1233      26
    1218    1242   -1221   -1224      26    1215    1221   -1218   -1227      26
    1314    1326   -1320   -1323      26    1299    1320   -1314   -1317      26
    1302    1326   -1305   -1308      26    1299    1305   -1302   -1311      26
    1398    1410   -1404   -1407      26    1383    1404   -1398   -1401      26
    1386    1410   -1389   -1392      26    1383    1389   -1386   -1395      26
    1482    1494   -1488   -1491      26    1467    1488   -1482   -1485      26
    1470    1494   -1473   -1476      26    1467    1473   -1470   -1479      26
    1566    1578   -1572   -1575      26    1551    1572   -1566   -1569      26
    1554    1578   -1557   -1560      26    1551    1557   -1554   -1563      26
    1650    1662   -1656   -1659      26    1635    1656   -1650   -1653      26
    1638    1662   -1641   -1644      26    1635    1641   -1638   -1647      26
    1734    1746   -1740   -1743      26    1719    1740   -1734   -1737      26
    1722    1746   -1725   -1728      26    1719    1725   -1722   -1731      26
    1818    1830   -1824   -1827      26    1803    1824   -1818   -1821      26
    1806    1830   -1809   -1812      26    1803    1809   -1806   -1815      26
    1902    1914   -1908   -1911      26    1887    1908   -1902   -1905      26
    1890    1914   -1893   -1896      26    1887    1893   -1890   -1899      26
    1986    1998   -1992   -1995      26    1971    1992   -1986   -1989      26
    1974    1998   -1977   -1980      26    1971    1977   -1974   -1983      26
    2070    2082   -2076   -2079      26    2055    2076   -2070   -2073      26
    2058    2082   -2061   -2064      26    2055    2061   -2058   -2067      26
    2154    2166   -2160   -2163      26    2139    2160   -2154   -2157      26
    2142    2166   -2145   -2148      26    2139    2145   -2142   -2151      26
    2238    2250   -2244   -2247      26    2223    2244   -2238   -2241      26
    2226    2250   -2229   -2232      26    2223    2229   -2226   -2235      26
    2322    2334   -2328   -2331      26    2307    2328   -2322   -2325      26
    2310    2334   -2313   -2316      26    2307    2313   -2310   -2319      26
    2406    2418   -2412   -2415      26    2391    2412   -2406   -2409      26
    2394    2418   -2397   -2400      26    2391    2397   -2394   -2403      26
    2490    2502   -2496   -2499      26    2475    2496   -2490   -2493      26
    2478    2502   -2481   -2484      26    2475    2481   -2478   -2487      26
    2574    2586   -2580   -2583      26    2559    2580   -2574   -2577      26
    2562    2586   -2565   -2568      26    2559    2565   -2562   -2571      26
%FLAG DIHEDRALS_WITHOUT_HYDROGEN                                                
%FORMAT(10I8)                                                                   
      96     105     114     117       4      96     105    -114     117       5
      96     105    -114     117       6      93      96     105     114       7
      93      96    -105     114       8      93      96    -105     114       9
      84      93      96     105       4      84      93     -96     105       5
      84      93     -96     105       6      75      84      93      96       4
      75      84     -93      96       5      75      84     -93      96       6
      72      75      84      93       7      72      75     -84      93       8
      72      75     -84      93       9      63      72      75      84       4
      63      72     -75      84       5      63      72     -75      84       6
      54      63      72      75       4      54      63     -72      75       5
      54      63     -72      75       6      51      54      63      72       7
      51      54     -63      72       8      51      54     -63      72       9
      42      51      54      63       4      42      51     -54      63       5
      42      51     -54      63       6      33      42      51      54       4
      33      42     -51      54       5      33      42     -51      54       6
      30      33      42      51       7      30      33     -42      51       8
      30      33     -42      51       9      21      30      33      42       4
      21      30     -33      42       5      21      30     -33      42       6
      12      21      30      33       4      12      21     -30      33       5
      12      21     -30      33       6       9      12      21      30       7
       9      12     -21      30       8       9      12     -21      30       9
       0       9      12      21       4       0       9     -12      21       5
       0       9     -12      21       6     201     210     219     222       4
     201     210    -219     222       5     201     210    -219     222       6
     198     201     210     219       7     198     201    -210     219       8
     198     201    -210     219       9     189     198     201     210       4
     189     198    -201     210       5     189     198    -201     210       6
     180     189     198     201       4     180     189    -198     201       5
     180     189    -198     201       6     177     180     189     198       7
     177     180    -189     198       8     177     180    -189     198       9
     168     177     180     189       4     168     177    -180     189       5
     168     177    -180     189       6     159     168     177     180       4
     159     168    -177     180       5     159     168    -177     180       6
     156     159     168     177       7     156     159    -168     177       8
     156     159    -168     177       9     147     156     159     168       4
     147     156    -159     168       5     147     156    -159     168       6
     138     147     156     159       4     138     147    -156     159       5
     138     147    -156     159       6     135     138     147     156       7
     135     138    -147     156       8     135     138    -147     156       9
     126     135     138     147       4     126     135    -138     147       5
     126     135    -138     147       6     117     126     135     138       4
     117     126    -135     138       5     117     126    -135     138       6
     114     117     126     135       7     114     117    -126     135       8
     114     117    -126     135       9     105     114     117     126       4
     105     114    -117     126       5     105     114    -117     126       6
     306     315     324     327       4     306     315    -324     327       5
     306     315    -324     327       6     303     306     315     324       7
     303     306    -315     324       8     303     306    -315     324       9
     294     303     306     315       4     294     303    -306     315       5
     294     303    -306     315       6     285     294     303     306       4
     285     294    -303     306       5     285     294    -303     306       6
     282     285     294     303       7     282     285    -294     303       8
     282     285    -294     303       9     273     282     285     294       4
     273     282    -285     294       5     273     282    -285     294       6
     264     273     282     285       4     264     273    -282     285       5
     264     273    -282     285       6     261     264     273     282       7
     261     264    -273     282       8     261     264    -273     282       9
     252     261     264     273       4     252     261    -264     273       5
     252     261    -264     273       6     243     252     261     264       4
     243     252    -261     264       5     243     252    -261     264       6
     240     243     252     261       7     240     243    -252     261       8
     240     243    -252     261       9     231     240     243     252       4
     231     240    -243     252       5     231     240    -243     252       6
     222     231     240     243       4     222     231    -240     243       5
     222     231    -240     243       6     219     222     231     240       7
     219     222    -231     240       8     219     222    -231     240       9
     210     219     222     231       4     210     219    -222     231       5
     210     219    -222     231       6     411     420     429     432       4
     411     420    -429     432       5     411     420    -429     432       6
     408     411     420     429       7     408     411    -420     429       8
     408     411    -420     429       9     399     408     411     420       4
     399     408    -411     420       5     399     408    -411     420       6
     390     399     408     411       4     390     399    -408     411       5
     390     399    -408     411       6     387     390     399     408       7
     387     390    -399     408       8     387     390    -399     408       9
     378     387     390     399       4     378     387    -390     399       5
     378     387    -390     399       6     369     378     387     390       4
     369     378    -387     390       5     369     378    -387     390       6
     366     369     378     387       7     366     369    -378     387       8
     366     369    -378     387       9     357     366     369     378       4
     357     366    -369     378       5     357     366    -369     378       6
     348     357     366     369       4     348     357    -366     369       5
     348     357    -366     369       6     345     348     357     366       7
     345     348    -357     366       8     345     348    -357     366       9
     336     345     348     357       4     336     345    -348     357       5
     336     345    -348     357       6     327     336     345     348       4
     327     336    -345     348       5     327     336    -345     348       6
     324     327     336     345       7     324     327    -336     345       8
     324     327    -336     345       9     315     324     327     336       4
     315     324    -327     336       5     315     324    -327     336       6
     516     525     534     537      11     516     525    -534     537      12
     513     516     525     534       7     513     516    -525     534       8
     513     516    -525     534       9     504     513     516     525       4
     504     513    -516     525       5     504     513    -516     525       6
     495     504     513     516       4     495     504    -513     516       5
     495     504    -513     516       6     492     495     504     513       7
     492     495    -504     513       8     492     495    -504     513       9
     483     492     495     504       4     483     492    -495     504       5
     483     492    -495     504       6     474     483     492     495       4
     474     483    -492     495       5     474     483    -492     495       6
     471     474     483     492       7     471     474    -483     492       8
     471     474    -483     492       9     462     471     474     483       4
     462     471    -474     483       5     462     471    -474     483       6
     453     462     471     474       4     453     462    -471     474       5
     453     462    -471     474       6     450     453     462     471       7
     450     453    -462     471       8     450     453    -462     471       9
     441     450     453     462       4     441     450    -453     462       5
     441     450    -453     462       6     432     441     450     453       4
     432     441    -450     453       5     432     441    -450     453       6
     429     432     441     450       7     429     432    -441     450       8
     429     432    -441     450       9     420     429     432     441       4
     420     429    -432     441       5     420     429    -432     441       6
     600     609     618     621      11     600     609    -618     621      12
     591     600     609     618       1     582     591     600     609      15
     579     582     591     600       1     576     573     579     582      16
     576     573    -579     582      17     573     579     582     591      11
     573     579    -582     591      12     570     573     579     582      19
     570     573    -579     582      20     570     573    -579     582      21
     564     570     573     576      23     564     570     573     579      24
     558     564     570     573      22     549     546     543     558      22
     549     570    -564     558      22     549     570     573     576      23
     549     570     573     579      24     546     543     558     564      22
     546     549    -570     564      22     546     549     570     573      22
     543     546     549     570      22     543     558    -564     570      22
     540     537     543     546      23     540     537     543     558      23
     537     543     546     549      22     537     543     558     564      22
     534     537     543     546      24     534     537     543     558      24
     525     534     537     540      16     525     534    -537     540      17
     525     534     537     543      19     525     534    -537     543      20
     525     534    -537     543      21     684     693     702     705      11
     684     693    -702     705      12     675     684     693     702       1
     666     675     684     693      15     663     666     675     684       1
     660     657     663     666      16     660     657    -663     666      17
     657     663     666     675      11     657     663    -666     675      12
     654     657     663     666      19     654     657    -663     666      20
     654     657    -663     666      21     648     654     657     660      23
     648     654     657     663      24     642     648     654     657      22
     633     630     627     642      22     633     654    -648     642      22
     633     654     657     660      23     633     654     657     663      24
     630     627     642     648      22     630     633    -654     648      22
     630     633     654     657      22     627     630     633     654      22
     627     642    -648     654      22     624     621     627     630      23
     624     621     627     642      23     621     627     630     633      22
     621     627     642     648      22     618     621     627     630      24
     618     621     627     642      24     609     618     621     624      16
     609     618    -621     624      17     609     618     621     627      19
     609     618    -621     627      20     609     618    -621     627      21
     768     777     786     789      11     768     777    -786     789      12
     759     768     777     786       1     750     759     768     777      15
     747     750     759     768       1     744     741     747     750      16
     744     741    -747     750      17     741     747     750     759      11
     741     747    -750     759      12     738     741     747     750      19
     738     741    -747     750      20     738     741    -747     750      21
     732     738     741     744      23     732     738     741     747      24
     726     732     738     741      22     717     714     711     726      22
     717     738    -732     726      22     717     738     741     744      23
     717     738     741     747      24     714     711     726     732      22
     714     717    -738     732      22     714     717     738     741      22
     711     714     717     738      22     711     726    -732     738      22
     708     705     711     714      23     708     705     711     726      23
     705     711     714     717      22     705     711     726     732      22
     702     705     711     714      24     702     705     711     726      24
     693     702     705     708      16     693     702    -705     708      17
     693     702     705     711      19     693     702    -705     711      20
     693     702    -705     711      21     852     861     870     873      11
     852     861    -870     873      12     843     852     861     870       1
     834     843     852     861      15     831     834     843     852       1
     828     825     831     834      16     828     825    -831     834      17
     825     831     834     843      11     825     831    -834     843      12
     822     825     831     834      19     822     825    -831     834      20
     822     825    -831     834      21     816     822     825     828      23
     816     822     825     831      24     810     816     822     825      22
     801     798     795     810      22     801     822    -816     810      22
     801     822     825     828      23     801     822     825     831      24
     798     795     810     816      22     798     801    -822     816      22
     798     801     822     825      22     795     798     801     822      22
     795     810    -816     822      22     792     789     795     798      23
     792     789     795     810      23     789     795     798     801      22
     789     795     810     816      22     786     789     795     798      24
     786     789     795     810      24     777     786     789     792      16
     777     786    -789     792      17     777     786     789     795      19
     777     786    -789     795      20     777     786    -789     795      21
     936     945     954     957      11     936     945    -954     957      12
     927     936     945     954       1     918     927     936     945      15
     915     918     927     936       1     912     909     915     918      16
     912     909    -915     918      17     909     915     918     927      11
     909     915    -918     927      12     906     909     915     918      19
     906     909    -915     918      20     906     909    -915     918      21
     900     906     909     912      23     900     906     909     915      24
     894     900     906     909      22     885     882     879     894      22
     885     906    -900     894      22     885     906     909     912      23
     885     906     909     915      24     882     879     894     900      22
     882     885    -906     900      22     882     885     906     909      22
     879     882     885     906      22     879     894    -900     906      22
     876     873     879     882      23     876     873     879     894      23
     873     879     882     885      22     873     879     894     900      22
     870     873     879     882      24     870     873     879     894      24
     861     870     873     876      16     861     870    -873     876      17
     861     870     873     879      19     861     870    -873     879      20
     861     870    -873     879      21    1020    1029    1038    1041      11
    1020    1029   -1038    1041      12    1011    1020    1029    1038       1
    1002    1011    1020    1029      15     999    1002    1011    1020       1
     996     993     999    1002      16     996     993    -999    1002      17
     993     999    1002    1011      11     993     999   -1002    1011      12
     990     993     999    1002      19     990     993    -999    1002      20
     990     993    -999    1002      21     984     990     993     996      23
     984     990     993     999      24     978     984     990     993      22
     969     966     963     978      22     969     990    -984     978      22
     969     990     993     996      23     969     990     993     999      24
     966     963     978     984      22     966     969    -990     984      22
     966     969     990     993      22     963     966     969     990      22
     963     978    -984     990      22     960     957     963     966      23
     960     957     963     978      23     957     963     966     969      22
     957     963     978     984      22     954     957     963     966      24
     954     957     963     978      24     945     954     957     960      16
     945     954    -957     960      17     945     954     957     963      19
     945     954    -957     963      20     945     954    -957     963      21
    1104    1113    1122    1125      11    1104    1113   -1122    1125      12
    1095    1104    1113    1122       1    1086    1095    1104    1113      15
    1083    1086    1095    1104       1    1080    1077    1083    1086      16
    1080    1077   -1083    1086      17    1077    1083    1086    1095      11
    1077    1083   -1086    1095      12    1074    1077    1083    1086      19
    1074    1077   -1083    1086      20    1074    1077   -1083    1086      21
    1068    1074    1077    1080      23    1068    1074    1077    1083      24
    1062    1068    1074    1077      22    1053    1050    1047    1062      22
    1053    1074   -1068    1062      22    1053    1074    1077    1080      23
    1053    1074    1077    1083      24    1050    1047    1062    1068      22
    1050    1053   -1074    1068      22    1050    1053    1074    1077      22
    1047    1050    1053    1074      22    1047    1062   -1068    1074      22
    1044    1041    1047    1050      23    1044    1041    1047    1062      23
    1041    1047    1050    1053      22    1041    1047    1062    1068      22
    1038    1041    1047    1050      24    1038    1041    1047    1062      24
    1029    1038    1041    1044      16    1029    1038   -1041    1044      17
    1029    1038    1041    1047      19    1029    1038   -1041    1047      20
    1029    1038   -1041    1047      21    1188    1197    1206    1209      11
    1188    1197   -1206    1209      12    1179    1188    1197    1206       1
    1170    1179    1188    1197      15    1167    1170    1179    1188       1
    1164    1161    1167    1170      16    1164    1161   -1167    1170      17
    1161    1167    1170    1179      11    1161    1167   -1170    1179      12
    1158    1161    1167    1170      19    1158    1161   -1167    1170      20
    1158    1161   -1167    1170      21    1152    1158    1161    1164      23
    1152    1158    1161    1167      24    1146    1152    1158    1161      22
    1137    1134    1131    1146      22    1137    1158   -1152    1146      22
    1137    1158    1161    1164      23    1137    1158    1161    1167      24
    1134    1131    1146    1152      22    1134    1137   -1158    1152      22
    1134    1137    1158    1161      22    1131    1134    1137    1158      22
    1131    1146   -1152    1158      22    1128    1125    1131    1134      23
    1128    1125    1131    1146      23    1125    1131    1134    1137      22
    1125    1131    1146    1152      22    1122    1125    1131    1134      24
    1122    1125    1131    1146      24    1113    1122    1125    1128      16
    1113    1122   -1125    1128      17    1113    1122    1125    1131      19
    1113    1122   -1125    1131      20    1113    1122   -1125    1131      21
    1272    1281    1290    1293      11    1272    1281   -1290    1293      12
    1263    1272    1281    1290       1    1254    1263    1272    1281      15
    1251    1254    1263    1272       1    1248    1245    1251    1254      16
    1248    1245   -1251    1254      17    1245    1251    1254    1263      11
    1245    1251   -1254    1263      12    1242    1245    1251    1254      19
    1242    1245   -1251    1254      20    1242    1245   -1251    1254      21
    1236    1242    1245    1248      23    1236    1242    1245    1251      24
    1230    1236    1242    1245      22    1221    1218    1215    1230      22
    1221    1242   -1236    1230      22    1221    1242    1245    1248      23
    1221    1242    1245    1251      24    1218    1215    1230    1236      22
    1218    1221   -1242    1236      22    1218    1221    1242    1245      22
    1215    1218    1221    1242      22    1215    1230   -1236    1242      22
    1212    1209    1215    1218      23    1212    1209    1215    1230      23
    1209    1215    1218    1221      22    1209    1215    1230    1236      22
    1206    1209    1215    1218      24    1206    1209    1215    1230      24
    1197    1206    1209    1212      16    1197    1206   -1209    1212      17
    1197    1206    1209    1215      19    1197    1206   -1209    1215      20
    1197    1206   -1209    1215      21    1356    1365    1374    1377      11
    1356    1365   -1374    1377      12    1347    1356    1365    1374       1
    1338    1347    1356    1365      15    1335    1338    1347    1356       1
    1332    1329    1335    1338      16    1332    1329   -1335    1338      17
    1329    1335    1338    1347      11    1329    1335   -1338    1347      12
    1326    1329    1335    1338      19    1326    1329   -1335    1338      20
    1326    1329   -1335    1338      21    1320    1326    1329    1332      23
    1320    1326    1329    1335      24    1314    1320    1326    1329      22
    1305    1302    1299    1314      22    1305    1326   -1320    1314      22
    1305    1326    1329    1332      23    1305    1326    1329    1335      24
    1302    1299    1314    1320      22    1302    1305   -1326    1320      22
    1302    1305    1326    1329      22    1299    1302    1305    1326      22
    1299    1314   -1320    1326      22    1296    1293    1299    1302      23
    1296    1293    1299    1314      23    1293    1299    1302    1305      22
    1293    1299    1314    1320      22    1290    1293    1299    1302      24
    1290    1293    1299    1314      24    1281    1290    1293    1296      16
    1281    1290   -1293    1296      17    1281    1290    1293    1299      19
    1281    1290   -1293    1299      20    1281    1290   -1293    1299      21
    1440    1449    1458    1461      11    1440    1449   -1458    1461      12
    1431    1440    1449    1458       1    1422    1431    1440    1449      15
    1419    1422    1431    1440       1    1416    1413    1419    1422      16
    1416    1413   -1419    1422      17    1413    1419    1422    1431      11
    1413    1419   -1422    1431      12    1410    1413    1419    1422      19
    1410    1413   -1419    1422      20    1410    1413   -1419    1422      21
    1404    1410    1413    1416      23    1404    1410    1413    1419      24
    1398    1404    1410    1413      22    1389    1386    1383    1398      22
    1389    1410   -1404    1398      22    1389    1410    1413    1416      23
    1389    1410    1413    1419      24    1386    1383    1398    1404      22
    1386    1389   -1410    1404      22    1386    1389    1410    1413      22
    1383    1386    1389    1410      22    1383    1398   -1404    1410      22
    1380    1377    1383    1386      23    1380    1377    1383    1398      23
    1377    1383    1386    1389      22    1377    1383    1398    1404      22
    1374    1377    1383    1386      24    1374    1377    1383    1398      24
    1365    1374    1377    1380      16    1365    1374   -1377    1380      17
    1365    1374    1377    1383      19    1365    1374   -1377    1383      20
    1365    1374   -1377    1383      21    1524    1533    1542    1545      11
    1524    1533   -1542    1545      12    1515    1524    1533    1542       1
    1506    1515    1524    1533      15    1503    1506    1515    1524       1
    1500    1497    1503    1506      16    1500    1497   -1503    1506      17
    1497    1503    1506    1515      11    1497    1503   -1506    1515      12
    1494    1497    1503    1506      19    1494    1497   -1503    1506      20
    1494    1497   -1503    1506      21    1488    1494    1497    1500      23
    1488    1494    1497    1503      24    1482    1488    1494    1497      22
    1473    1470    1467    1482      22    1473    1494   -1488    1482      22
    1473    1494    1497    1500      23    1473    1494    1497    1503      24
    1470    1467    1482    1488      22    1470    1473   -1494    1488      22
    1470    1473    1494    1497      22    1467    1470    1473    1494      22
    1467    1482   -1488    1494      22    1464    1461    1467    1470      23
    1464    1461    1467    1482      23    1461    1467    1470    1473      22
    1461    1467    1482    1488      22    1458    1461    1467    1470      24
    1458    1461    1467    1482      24    1449    1458    1461    1464      16
    1449    1458   -1461    1464      17    1449    1458    1461    1467      19
    1449    1458   -1461    1467      20    1449    1458   -1461    1467      21
    1608    1617    1626    1629      11    1608    1617   -1626    1629      12
    1599    1608    1617    1626       1    1590    1599    1608    1617      15
    1587    1590    1599    1608       1    1584    1581    1587    1590      16
    1584    1581   -1587    1590      17    1581    1587    1590    1599      11
    1581    1587   -1590    1599      12    1578    1581    1587    1590      19
    1578    1581   -1587    1590      20    1578    1581   -1587    1590      21
    1572    1578    1581    1584      23    1572    1578    1581    1587      24
    1566    1572    1578    1581      22    1557    1554    1551    1566      22
    1557    1578   -1572    1566      22    1557    1578    1581    1584      23
    1557    1578    1581    1587      24    1554    1551    1566    1572      22
    1554    1557   -1578    1572      22    1554    1557    1578    1581      22
    1551    1554    1557    1578      22    1551    1566   -1572    1578      22
    1548    1545    1551    1554      23    1548    1545    1551    1566      23
    1545    1551    1554    1557      22    1545    1551    1566    1572      22
    1542    1545    1551    1554      24    1542    1545    1551    1566      24
    1533    1542    1545    1548      16    1533    1542   -1545    1548      17
    1533    1542    1545    1551      19    1533    1542   -1545    1551      20
    1533    1542   -1545    1551      21    1692    1701    1710    1713      11
    1692    1701   -1710    1713      12    1683    1692    1701    1710       1
    1674    1683    1692    1701      15    1671    1674    1683    1692       1
    1668    1665    1671    1674      16    1668    1665   -1671    1674      17
    1665    1671    1674    1683      11    1665    1671   -1674    1683      12
    1662    1665    1671    1674      19    1662    1665   -1671    1674      20
    1662    1665   -1671    1674      21    1656    1662    1665    1668      23
    1656    1662    1665    1671      24    1650    1656    1662    1665      22
    1641    1638    1635    1650      22    1641    1662   -1656    1650      22
    1641    1662    1665    1668      23    1641    1662    1665    1671      24
    1638    1635    1650    1656      22    1638    1641   -1662    1656      22
    1638    1641    1662    1665      22    1635    1638    1641    1662      22
    1635    1650   -1656    1662      22    1632    1629    1635    1638      23
    1632    1629    1635    1650      23    1629    1635    1638    1641      22
    1629    1635    1650    1656      22    1626    1629    1635    1638      24
    1626    1629    1635    1650      24    1617    1626    1629    1632      16
    1617    1626   -1629    1632      17    1617    1626    1629    1635      19
    1617    1626   -1629    1635      20    1617    1626   -1629    1635      21
    1776    1785    1794    1797      11    1776    1785   -1794    1797      12
    1767    1776    1785    1794       1    1758    1767    1776    1785      15
    1755    1758    1767    1776       1    1752    1749    1755    1758      16
    1752    1749   -1755    1758      17    1749    1755    1758    1767      11
    1749    1755   -1758    1767      12    1746    1749    1755    1758      19
    1746    1749   -1755    1758      20    1746    1749   -1755    1758      21
    1740    1746    1749    1752      23    1740    1746    1749    1755      24
    1734    1740    1746    1749      22    1725    1722    1719    1734      22
    1725    1746   -1740    1734      22    1725    1746    1749    1752      23
    1725    1746    1749    1755      24    1722    1719    1734    1740      22
    1722    1725   -1746    1740      22    1722    1725    1746    1749      22
    1719    1722    1725    1746      22    1719    1734   -1740    1746      22
    1716    1713    1719    1722      23    1716    1713    1719    1734      23
    1713    1719    1722    1725      22    1713    1719    1734    1740      22
    1710    1713    1719    1722      24    1710    1713    1719    1734      24
    1701    1710    1713    1716      16    1701    1710   -1713    1716      17
    1701    1710    1713    1719      19    1701    1710   -1713    1719      20
    1701    1710   -1713    1719      21    1860    1869    1878    1881      11
    1860    1869   -1878    1881      12    1851    1860    1869    1878       1
    1842    1851    1860    1869      15    1839    1842    1851    1860       1
    1836    1833    1839    1842      16    1836    1833   -1839    1842      17
    1833    1839    1842    1851      11    1833    1839   -1842    1851      12
    1830    1833    1839    1842      19    1830    1833   -1839    1842      20
    1830    1833   -1839    1842      21    1824    1830    1833    1836      23
    1824    1830    1833    1839      24    1818    1824    1830    1833      22
    1809    1806    1803    1818      22    1809    1830   -1824    1818      22
    1809    1830    1833    1836      23    1809    1830    1833    1839      24
    1806    1803    1818    1824      22    1806    1809   -1830    1824      22
    1806    1809    1830    1833      22    1803    1806    1809    1830      22
    1803    1818   -1824    1830      22    1800    1797    1803    1806      23
    1800    1797    1803    1818      23    1797    1803    1806    1809      22
    1797    1803    1818    1824      22    1794    1797    1803    1806      24
    1794    1797    1803    1818      24    1785    1794    1797    1800      16
    1785    1794   -1797    1800      17    1785    1794    1797    1803      19
    1785    1794   -1797    1803      20    1785    1794   -1797    1803      21
    1944    1953    1962    1965      11    1944    1953   -1962    1965      12
    1935    1944    1953    1962       1    1926    1935    1944    1953      15
    1923    1926    1935    1944       1    1920    1917    1923    1926      16
    1920    1917   -1923    1926      17    1917    1923    1926    1935      11
    1917    1923   -1926    1935      12    1914    1917    1923    1926      19
    1914    1917   -1923    1926      20    1914    1917   -1923    1926      21
    1908    1914    1917    1920      23    1908    1914    1917    1923      24
    1902    1908    1914    1917      22    1893    1890    1887    1902      22
    1893    1914   -1908    1902      22    1893    1914    1917    1920      23
    1893    1914    1917    1923      24    1890    1887    1902    1908      22
    1890    1893   -1914    1908      22    1890    1893    1914    1917      22
    1887    1890    1893    1914      22    1887    1902   -1908    1914      22
    1884    1881    1887    1890      23    1884    1881    1887    1902      23
    1881    1887    1890    1893      22    1881    1887    1902    1908      22
    1878    1881    1887    1890      24    1878    1881    1887    1902      24
    1869    1878    1881    1884      16    1869    1878   -1881    1884      17
    1869    1878    1881    1887      19    1869    1878   -1881    1887      20
    1869    1878   -1881    1887      21    2028    2037    2046    2049      11
    2028    2037   -2046    2049      12    2019    2028    2037    2046       1
    2010    2019    2028    2037      15    2007    2010    2019    2028       1
    2004    2001    2007    2010      16    2004    2001   -2007    2010      17
    2001    2007    2010    2019      11    2001    2007   -2010    2019      12
    1998    2001    2007    2010      19    1998    2001   -2007    2010      20
    1998    2001   -2007    2010      21    1992    1998    2001    2004      23
    1992    1998    2001    2007      24    1986    1992    1998    2001      22
    1977    1974    1971    1986      22    1977    1998   -1992    1986      22
    1977    1998    2001    2004      23    1977    1998    2001    2007      24
    1974    1971    1986    1992      22    1974    1977   -1998    1992      22
    1974    1977    1998    2001      22    1971    1974    1977    1998      22
    1971    1986   -1992    1998      22    1968    1965    1971    1974      23
    1968    1965    1971    1986      23    1965    1971    1974    1977      22
    1965    1971    1986    1992      22    1962    1965    1971    1974      24
    1962    1965    1971    1986      24    1953    1962    1965    1968      16
    1953    1962   -1965    1968      17    1953    1962    1965    1971      19
    1953    1962   -1965    1971      20    1953    1962   -1965    1971      21
    2112    2121    2130    2133      11    2112    2121   -2130    2133      12
    2103    2112    2121    2130       1    2094    2103    2112    2121      15
    2091    2094    2103    2112       1    2088    2085    2091    2094      16
    2088    2085   -2091    2094      17    2085    2091    2094    2103      11
    2085    2091   -2094    2103      12    2082    2085    2091    2094      19
    2082    2085   -2091    2094      20    2082    2085   -2091    2094      21
    2076    2082    2085    2088      23    2076    2082    2085    2091      24
    2070    2076    2082    2085      22    2061    2058    2055    2070      22
    2061    2082   -2076    2070      22    2061    2082    2085    2088      23
    2061    2082    2085    2091      24    2058    2055    2070    2076      22
    2058    2061   -2082    2076      22    2058    2061    2082    2085      22
    2055    2058    2061    2082      22    2055    2070   -2076    2082      22
    2052    2049    2055    2058      23    2052    2049    2055    2070      23
    2049    2055    2058    2061      22    2049    2055    2070    2076      22
    2046    2049    2055    2058      24    2046    2049    2055    2070      24
    2037    2046    2049    2052      16    2037    2046   -2049    2052      17
    2037    2046    2049    2055      19    2037    2046   -2049    2055      20
    2037    2046   -2049    2055      21    2196    2205    2214    2217      11
    2196    2205   -2214    2217      12    2187    2196    2205    2214       1
    2178    2187    2196    2205      15    2175    2178    2187    2196       1
    2172    2169    2175    2178      16    2172    2169   -2175    2178      17
    2169    2175    2178    2187      11    2169    2175   -2178    2187      12
    2166    2169    2175    2178      19    2166    2169   -2175    2178      20
    2166    2169   -2175    2178      21    2160    2166    2169    2172      23
    2160    2166    2169    2175      24    2154    2160    2166    2169      22
    2145    2142    2139    2154      22    2145    2166   -2160    2154      22
    2145    2166    2169    2172      23    2145    2166    2169    2175      24
    2142    2139    2154    2160      22    2142    2145   -2166    2160      22
    2142    2145    2166    2169      22    2139    2142    2145    2166      22
    2139    2154   -2160    2166      22    2136    2133    2139    2142      23
    2136    2133    2139    2154      23    2133    2139    2142    2145      22
    2133    2139    2154    2160      22    2130    2133    2139    2142      24
    2130    2133    2139    2154      24    2121    2130    2133    2136      16
    2121    2130   -2133    2136      17    2121    2130    2133    2139      19
    2121    2130   -2133    2139      20    2121    2130   -2133    2139      21
    2280    2289    2298    2301      11    2280    2289   -2298    2301      12
    2271    2280    2289    2298       1    2262    2271    2280    2289      15
    2259    2262    2271    2280       1    2256    2253    2259    2262      16
    2256    2253   -2259    2262      17    2253    2259    2262    2271      11
    2253    2259   -2262    2271      12    2250    2253    2259    2262      19
    2250    2253   -2259    2262      20    2250    2253   -2259    2262      21
    2244    2250    2253    2256      23    2244    2250    2253    2259      24
    2238    2244    2250    2253      22    2229    2226    2223    2238      22
    2229    2250   -2244    2238      22    2229    2250    2253    2256      23
    2229    2250    2253    2259      24    2226    2223    2238    2244      22
    2226    2229   -2250    2244      22    2226    2229    2250    2253      22
    2223    2226    2229    2250      22    2223    2238   -2244    2250      22
    2220    2217    2223    2226      23    2220    2217    2223    2238      23
    2217    2223    2226    2229      22    2217    2223    2238    2244      22
    2214    2217    2223    2226      24    2214    2217    2223    2238      24
    2205    2214    2217    2220      16    2205    2214   -2217    2220      17
    2205    2214    2217    2223      19    2205    2214   -2217    2223      20
    2205    2214   -2217    2223      21    2364    2373    2382    2385      11
    2364    2373   -2382    2385      12    2355    2364    2373    2382       1
    2346    2355    2364    2373      15    2343    2346    2355    2364       1
    2340    2337    2343    2346      16    2340    2337   -2343    2346      17
    2337    2343    2346    2355      11    2337    2343   -2346    2355      12
    2334    2337    2343    2346      19    2334    2337   -2343    2346      20
    2334    2337   -2343    2346      21    2328    2334    2337    2340      23
    2328    2334    2337    2343      24    2322    2328    2334    2337      22
    2313    2310    2307    2322      22    2313    2334   -2328    2322      22
    2313    2334    2337    2340      23    2313    2334    2337    2343      24
    2310    2307    2322    2328      22    2310    2313   -2334    2328      22
    2310    2313    2334    2337      22    2307    2310    2313    2334      22
    2307    2322   -2328    2334      22    2304    2301    2307    2310      23
    2304    2301    2307    2322      23    2301    2307    2310    2313      22
    2301    2307    2322    2328      22    2298    2301    2307    2310      24
    2298    2301    2307    2322      24    2289    2298    2301    2304      16
    2289    2298   -2301    2304      17    2289    2298    2301    2307      19
    2289    2298   -2301    2307      20    2289    2298   -2301    2307      21
    2448    2457    2466    2469      11    2448    2457   -2466    2469      12
    2439    2448    2457    2466       1    2430    2439    2448    2457      15
    2427    2430    2439    2448       1    2424    2421    2427    2430      16
    2424    2421   -2427    2430      17    2421    2427    2430    2439      11
    2421    2427   -2430    2439      12    2418    2421    2427    2430      19
    2418    2421   -2427    2430      20    2418    2421   -2427    2430      21
    2412    2418    2421    2424      23    2412    2418    2421    2427      24
    2406    2412    2418    2421      22    2397    2394    2391    2406      22
    2397    2418   -2412    2406      22    2397    2418    2421    2424      23
    2397    2418    2421    2427      24    2394    2391    2406    2412      22
    2394    2397   -2418    2412      22    2394    2397    2418    2421      22
    2391    2394    2397    2418      22    2391    2406   -2412    2418      22
    2388    2385    2391    2394      23    2388    2385    2391    2406      23
    2385    2391    2394    2397      22    2385    2391    2406    2412      22
    2382    2385    2391    2394      24    2382    2385    2391    2406      24
    2373    2382    2385    2388      16    2373    2382   -2385    2388      17
    2373    2382    2385    2391      19    2373    2382   -2385    2391      20
    2373    2382   -2385    2391      21    2532    2541    2550    2553      11
    2532    2541   -2550    2553      12    2523    2532    2541    2550       1
    2514    2523    2532    2541      15    2511    2514    2523    2532       1
    2508    2505    2511    2514      16    2508    2505   -2511    2514      17
    2505    2511    2514    2523      11    2505    2511   -2514    2523      12
    2502    2505    2511    2514      19    2502    2505   -2511    2514      20
    2502    2505   -2511    2514      21    2496    2502    2505    2508      23
    2496    2502    2505    2511      24    2490    2496    2502    2505      22
    2481    2478    2475    2490      22    2481    2502   -2496    2490      22
    2481    2502    2505    2508      23    2481    2502    2505    2511      24
    2478    2475    2490    2496      22    2478    2481   -2502    2496      22
    2478    2481    2502    2505      22    2475    2478    2481    2502      22
    2475    2490   -2496    2502      22    2472    2469    2475    2478      23
    2472    2469    2475    2490      23    2469    2475    2478    2481      22
    2469    2475    2490    2496      22    2466    2469    2475    2478      24
    2466    2469    2475    2490      24    2457    2466    2469    2472      16
    2457    2466   -2469    2472      17    2457    2466    2469    2475      19
    2457    2466   -2469    2475      20    2457    2466   -2469    2475      21
    2595    2598    2607    2616       1    2592    2589    2595    2598      16
    2592    2589   -2595    2598      17    2589    2595    2598    2607      11
    2589    2595   -2598    2607      12    2586    2589    2595    2598      19
    2586    2589   -2595    2598      20    2586    2589   -2595    2598      21
    2580    2586    2589    2592      23    2580    2586    2589    2595      24
    2574    2580    2586    2589      22    2565    2562    2559    2574      22
    2565    2586   -2580    2574      22    2565    2586    2589    2592      23
    2565    2586    2589    2595      24    2562    2559    2574    2580      22
    2562    2565   -2586    2580      22    2562    2565    2586    2589      22
    2559    2562    2565    2586      22    2559    2574   -2580    2586      22
    2556    2553    2559    2562      23    2556    2553    2559    2574      23
    2553    2559    2562    2565      22    2553    2559    2574    2580      22
    2550    2553    2559    2562      24    2550    2553    2559    2574      24
    2541    2550    2553    2556      16    2541    2550   -2553    2556      17
    2541    2550    2553    2559      19    2541    2550   -2553    2559      20
    2541    2550   -2553    2559      21     570     579    -573    -576      25
     534     543    -537    -540      25     654     663    -657    -660      25
     618     627    -621    -624      25     738     747    -741    -744      25
     702     711    -705    -708      25     822     831    -825    -828      25
     786     795    -789    -792      25     906     915    -909    -912      25
     870     879    -873    -876      25     990     999    -993    -996      25
     954     963    -957    -960      25    1074    1083   -1077   -1080      25
    1038    1047   -1041   -1044      25    1158    1167   -1161   -1164      25
    1122    1131   -1125   -1128      25    1242    1251   -1245   -1248      25
    1206    1215   -1209   -1212      25    1326    1335   -1329   -1332      25
    1290    1299   -1293   -1296      25    1410    1419   -1413   -1416      25
    1374    1383   -1377   -1380      25    1494    1503   -1497   -1500      25
    1458    1467   -1461   -1464      25    1578    1587   -1581   -1584      25
    1542    1551   -1545   -1548      25    1662    1671   -1665   -1668      25
    1626    1635   -1629   -1632      25    1746    1755   -1749   -1752      25
    1710    1719   -1713   -1716      25    1830    1839   -1833   -1836      25
    1794    1803   -1797   -1800      25    1914    1923   -1917   -1920      25
    1878    1887   -1881   -1884      25    1998    2007   -2001   -2004      25
    1962    1971   -1965   -1968      25    2082    2091   -2085   -2088      25
    2046    2055   -2049   -2052      25    2166    2175   -2169   -2172      25
    2130    2139   -2133   -2136      25    2250    2259   -2253   -2256      25
    2214    2223   -2217   -2220      25    2334    2343   -2337   -2340      25
    2298    2307   -2301   -2304      25    2418    2427   -2421   -2424      25
    2382    2391   -2385   -2388      25    2502    2511   -2505   -2508      25
    2466    2475   -2469   -2472      25    2586    2595   -2589   -2592      25
    2550    2559   -2553   -2556      25
%FLAG EXCLUDED_ATOMS_LIST                                                       
%FORMAT(10I8)                                                                   
       2       3       4       5       6       7       8       3       4       5
       4       5       5       6       7       8       9      10      11       6
       7       8       9      10      11      12       7       8       9      10
      11       8       9      10      11       9      10      11      12      13
      14      15      10      11      12      11      12      12      13      14
      15      16      17      18      13      14      15      16      17      18
      19      14      15      16      17      18      15      16      17      18
      16      17      18      19      20      21      22      17      18      19
      18      19      19      20      21      22      23      24      25      20
      21      22      23      24      25      26      21      22      23      24
      25      22      23      24      25      23      24      25      26      27
      28      29      24      25      26      25      26      26      27      28
      29      30      31      32      27      28      29      30      31      32
      33      28      29      30      31      32      29      30      31      32
      30      31      32      33      34      35      36      31      32      33
      32      33      33      34      35      36      37      38      39      34
      35      36      37      38      39      40      35      36      37      38
      39      36      37      38      39      37      38      39      40      41
      42      43      38      39      40      39      40      40      41      42
      43      44      45      46      41      42      43      44      45      46
      47      42      43      44      45      46      43      44      45      46
      44      45      46      47      48      49      50      45      46      47
      46      47      47      48      49      50      51      52      53      48
      49      50      51      52      53      54      49      50      51      52
      53      50      51      52      53      51      52      53      54      55
      56      57      52      53      54      53      54      54      55      56
      57      58      59      60      55      56      57      58      59      60
      61      56      57      58      59      60      57      58      59      60
      58      59      60      61      62      63      64      59      60      61
      60      61      61      62      63      64      65      66      67      62
      63      64      65      66      67      68      63      64      65      66
      67      64      65      66      67      65      66      67      68      69
      70      71      66      67      68      67      68      68      69      70
      71      72      73      74      69      70      71      72      73      74
      75      70      71      72      73      74      71      72      73      74
      72      73      74      75      76      77      78      73      74      75
      74      75      75      76      77      78      79      80      81      76
      77      78      79      80      81      82      77      78      79      80
      81      78      79      80      81      79      80      81      82      83
      84      85      80      81      82      81      82      82      83      84
      85      86      87      88      83      84      85      86      87      88
      89      84      85      86      87      88      85      86      87      88
      86      87      88      89      90      91      92      87      88      89
      88      89      89      90      91      92      93      94      95      90
      91      92      93      94      95      96      91      92      93      94
      95      92      93      94      95      93      94      95      96      97
      98      99      94      95      96      95      96      96      97      98
      99     100     101     102      97      98      99     100     101     102
     103      98      99     100     101     102      99     100     101     102
     100     101     102     103     104     105     106     101     102     103
     102     103     103     104     105     106     107     108     109     104
     105     106     107     108     109     110     105     106     107     108
     109     106     107     108     109     107     108     109     110     111
     112     113     108     109     110     109     110     110     111     112
     113     114     115     116     111     112     113     114     115     116
     117     112     113     114     115     116     113     114     115     116
     114     115     116     117     118     119     120     115     116     117
     116     117     117     118     119     120     121     122     123     118
     119     120     121     122     123     124     119     120     121     122
     123     120     121     122     123     121     122     123     124     125
     126     127     122     123     124     123     124     124     125     126
     127     128     129     130     125     126     127     128     129     130
     131     126     127     128     129     130     127     128     129     130
     128     129     130     131     132     133     134     129     130     131
     130     131     131     132     133     134     135     136     137     132
     133     134     135     136     137     138     133     134     135     136
     137     134     135     136     137     135     136     137     138     139
     140     141     136     137     138     137     138     138     139     140
     141     142     143     144     139     140     141     142     143     144
     145     140     141     142     143     144     141     142     143     144
     142     143     144     145     146     147     148     143     144     145
     144     145     145     146     147     148     149     150     151     146
     147     148     149     150     151     152     147     148     149     150
     151     148     149     150     151     149     150     151     152     153
     154     155     150     151     152     151     152     152     153     154
     155     156     157     158     153     154     155     156     157     158
     159     154     155     156     157     158     155     156     157     158
     156     157     158     159     160     161     162     157     158     159
     158     159     159     160     161     162     163     164     165     160
     161     162     163     164     165     166     161     162     163     164
     165     162     163     164     165     163     164     165     166     167
     168     169     164     165     166     165     166     166     167     168
     169     170     171     172     167     168     169     170     171     172
     173     168     169     170     171     172     169     170     171     172
     170     171     172     173     174     175     176     171     172     173
     172     173     173     174     175     176     177     178     179     174
     175     176     177     178     179     180     175     176     177     178
     179     176     177     178     179     177     178     179     180     181
     182     178     179     180     179     180     180     181     182     183
     187     181     182     183     184     186     187     188     189     182
     183     187     183     184     185     186     187     188     189     190
     191     184     185     186     187     188     189     191     192     185
     186     187     189     190     191     192     193     194     186     189
     191     192     187     191     188     189     190     191     192     189
     190     191     190     191     192     193     194     191     192     192
     193     194     195     193     194     195     196     197     198     194
     195     195     196     197     198     199     200     201     196     197
     198     199     200     201     202     203     204     197     198     199
     200     201     198     199     200     201     199     200     201     202
     203     204     205     206     207     200     201     202     203     204
     201     202     203     204     202     203     204     205     206     207
     208     203     204     205     206     207     204     205     206     207
     205     206     207     208     209     210     206     207     208     207
     208     208     209     210     211     215     209     210     211     212
     214     215     216     217     210     211     215     211     212     213
     214     215     216     217     218     219     212     213     214     215
     216     217     219     220     213     214     215     217     218     219
     220     221     222     214     217     219     220     215     219     216
     217     218     219     220     217     218     219     218     219     220
     221     222     219     220     220     221     222     223     221     222
     223     224     225     226     222     223     223     224     225     226
     227     228     229     224     225     226     227     228     229     230
     231     232     225     226     227     228     229     226     227     228
     229     227     228     229     230     231     232     233     234     235
     228     229     230     231     232     229     230     231     232     230
     231     232     233     234     235     236     231     232     233     234
     235     232     233     234     235     233     234     235     236     237
     238     234     235     236     235     236     236     237     238     239
     243     237     238     239     240     242     243     244     245     238
     239     243     239     240     241     242     243     244     245     246
     247     240     241     242     243     244     245     247     248     241
     242     243     245     246     247     248     249     250     242     245
     247     248     243     247     244     245     246     247     248     245
     246     247     246     247     248     249     250     247     248     248
     249     250     251     249     250     251     252     253     254     250
     251     251     252     253     254     255     256     257     252     253
     254     255     256     257     258     259     260     253     254     255
     256     257     254     255     256     257     255     256     257     258
     259     260     261     262     263     256     257     258     259     260
     257     258     259     260     258     259     260     261     262     263
     264     259     260     261     262     263     260     261     262     263
     261     262     263     264     265     266     262     263     264     263
     264     264     265     266     267     271     265     266     267     268
     270     271     272     273     266     267     271     267     268     269
     270     271     272     273     274     275     268     269     270     271
     272     273     275     276     269     270     271     273     274     275
     276     277     278     270     273     275     276     271     275     272
     273     274     275     276     273     274     275     274     275     276
     277     278     275     276     276     277     278     279     277     278
     279     280     281     282     278     279     279     280     281     282
     283     284     285     280     281     282     283     284     285     286
     287     288     281     282     283     284     285     282     283     284
     285     283     284     285     286     287     288     289     290     291
     284     285     286     287     288     285     286     287     288     286
     287     288     289     290     291     292     287     288     289     290
     291     288     289     290     291     289     290     291     292     293
     294     290     291     292     291     292     292     293     294     295
     299     293     294     295     296     298     299     300     301     294
     295     299     295     296     297     298     299     300     301     302
     303     296     297     298     299     300     301     303     304     297
     298     299     301     302     303     304     305     306     298     301
     303     304     299     303     300     301     302     303     304     301
     302     303     302     303     304     305     306     303     304     304
     305     306     307     305     306     307     308     309     310     306
     307     307     308     309     310     311     312     313     308     309
     310     311     312     313     314     315     316     309     310     311
     312     313     310     311     312     313     311     312     313     314
     315     316     317     318     319     312     313     314     315     316
     313     314     315     316     314     315     316     317     318     319
     320     315     316     317     318     319     316     317     318     319
     317     318     319     320     321     322     318     319     320     319
     320     320     321     322     323     327     321     322     323     324
     326     327     328     329     322     323     327     323     324     325
     326     327     328     329     330     331     324     325     326     327
     328     329     331     332     325     326     327     329     330     331
     332     333     334     326     329     331     332     327     331     328
     329     330     331     332     329     330     331     330     331     332
     333     334     331     332     332     333     334     335     333     334
     335     336     337     338     334     335     335     336     337     338
     339     340     341     336     337     338     339     340     341     342
     343     344     337     338     339     340     341     338     339     340
     341     339     340     341     342     343     344     345     346     347
     340     341     342     343     344     341     342     343     344     342
     343     344     345     346     347     348     343     344     345     346
     347     344     345     346     347     345     346     347     348     349
     350     346     347     348     347     348     348     349     350     351
     355     349     350     351     352     354     355     356     357     350
     351     355     351     352     353     354     355     356     357     358
     359     352     353     354     355     356     357     359     360     353
     354     355     357     358     359     360     361     362     354     357
     359     360     355     359     356     357     358     359     360     357
     358     359     358     359     360     361     362     359     360     360
     361     362     363     361     362     363     364     365     366     362
     363     363     364     365     366     367     368     369     364     365
     366     367     368     369     370     371     372     365     366     367
     368     369     366     367     368     369     367     368     369     370
     371     372     373     374     375     368     369     370     371     372
     369     370     371     372     370     371     372     373     374     375
     376     371     372     373     374     375     372     373     374     375
     373     374     375     376     377     378     374     375     376     375
     376     376     377     378     379     383     377     378     379     380
     382     383     384     385     378     379     383     379     380     381
     382     383     384     385     386     387     380     381     382     383
     384     385     387     388     381     382     383     385     386     387
     388     389     390     382     385     387     388     383     387     384
     385     386     387     388     385     386     387     386     387     388
     389     390     387     388     388     389     390     391     389     390
     391     392     393     394     390     391     391     392     393     394
     395     396     397     392     393     394     395     396     397     398
     399     400     393     394     395     396     397     394     395     396
     397     395     396     397     398     399     400     401     402     403
     396     397     398     399     400     397     398     399     400     398
     399     400     401     402     403     404     399     400     401     402
     403     400     401     402     403     401     402     403     404     405
     406     402     403     404     403     404     404     405     406     407
     411     405     406     407     408     410     411     412     413     406
     407     411     407     408     409     410     411     412     413     414
     415     408     409     410     411     412     413     415     416     409
     410     411     413     414     415     416     417     418     410     413
     415     416     411     415     412     413     414     415     416     413
     414     415     414     415     416     417     418     415     416     416
     417     418     419     417     418     419     420     421     422     418
     419     419     420     421     422     423     424     425     420     421
     422     423     424     425     426     427     428     421     422     423
     424     425     422     423     424     425     423     424     425     426
     427     428     429     430     431     424     425     426     427     428
     425     426     427     428     426     427     428     429     430     431
     432     427     428     429     430     431     428     429     430     431
     429     430     431     432     433     434     430     431     432     431
     432     432     433     434     435     439     433     434     435     436
     438     439     440     441     434     435     439     435     436     437
     438     439     440     441     442     443     436     437     438     439
     440     441     443     444     437     438     439     441     442     443
     444     445     446     438     441     443     444     439     443     440
     441     442     443     444     441     442     443     442     443     444
     445     446     443     444     444     445     446     447     445     446
     447     448     449     450     446     447     447     448     449     450
     451     452     453     448     449     450     451     452     453     454
     455     456     449     450     451     452     453     450     451     452
     453     451     452     453     454     455     456     457     458     459
     452     453     454     455     456     453     454     455     456     454
     455     456     457     458     459     460     455     456     457     458
     459     456     457     458     459     457     458     459     460     461
     462     458     459     460     459     460     460     461     462     463
     467     461     462     463     464     466     467     468     469     462
     463     467     463     464     465     466     467     468     469     470
     471     464     465     466     467     468     469     471     472     465
     466     467     469     470     471     472     473     474     466     469
     471     472     467     471     468     469     470     471     472     469
     470     471     470     471     472     473     474     471     472     472
     473     474     475     473     474     475     476     477     478     474
     475     475     476     477     478     479     480     481     476     477
     478     479     480     481     482     483     484     477     478     479
     480     481     478     479     480     481     479     480     481     482
     483     484     485     486     487     480     481     482     483     484
     481     482     483     484     482     483     484     485     486     487
     488     483     484     485     486     487     484     485     486     487
     485     486     487     488     489     490     486     487     488     487
     488     488     489     490     491     495     489     490     491     492
     494     495     496     497     490     491     495     491     492     493
     494     495     496     497     498     499     492     493     494     495
     496     497     499     500     493     494     495     497     498     499
     500     501     502     494     497     499     500     495     499     496
     497     498     499     500     497     498     499     498     499     500
     501     502     499     500     500     501     502     503     501     502
     503     504     505     506     502     503     503     504     505     506
     507     508     509     504     505     506     507     508     509     510
     511     512     505     506     507     508     509     506     507     508
     509     507     508     509     510     511     512     513     514     515
     508     509     510     511     512     509     510     511     512     510
     511     512     513     514     515     516     511     512     513     514
     515     512     513     514     515     513     514     515     516     517
     518     514     515     516     515     516     516     517     518     519
     523     517     518     519     520     522     523     524     525     518
     519     523     519     520     521     522     523     524     525     526
     527     520     521     522     523     524     525     527     528     521
     522     523     525     526     527     528     529     530     522     525
     527     528     523     527     524     525     526     527     528     525
     526     527     526     527     528     529     530     527     528     528
     529     530     531     529     530     531     532     533     534     530
     531     531     532     533     534     535     536     537     532     533
     534     535     536     537     538     539     540     533     534     535
     536     537     534     535     536     537     535     536     537     538
     539     540     541     542     543     536     537     538     539     540
     537     538     539     540     538     539     540     541     542     543
     544     539     540     541     542     543     540     541     542     543
     541     542     543     544     545     546     542     543     544     543
     544     544     545     546     547     551     545     546     547     548
     550     551     552     553     546     547     551     547     548     549
     550     551     552     553     554     555     548     549     550     551
     552     553     555     556     549     550     551     553     554     555
     556     557     558     550     553     555     556     551     555     552
     553     554     555     556     553     554     555     554     555     556
     557     558     555     556     556     557     558     559     557     558
     559     560     561     562     558     559     559     560     561     562
     563     564     565     560     561     562     563     564     565     566
     567     568     561     562     563     564     565     562     563     564
     565     563     564     565     566     567     568     569     570     571
     564     565     566     567     568     565     566     567     568     566
     567     568     569     570     571     572     567     568     569     570
     571     568     569     570     571     569     570     571     572     573
     574     570     571     572     571     572     572     573     574     575
     579     573     574     575     576     578     579     580     581     574
     575     579     575     576     577     578     579     580     581     582
     583     576     577     578     579     580     581     583     584     577
     578     579     581     582     583     584     585     586     578     581
     583     584     579     583     580     581     582     583     584     581
     582     583     582     583     584     585     586     583     584     584
     585     586     587     585     586     587     588     589     590     586
     587     587     588     589     590     591     592     593     588     589
     590     591     592     593     594     595     596     589     590     591
     592     593     590     591     592     593     591     592     593     594
     595     596     597     598     599     592     593     594     595     596
     593     594     595     596     594     595     596     597     598     599
     600     595     596     597     598     599     596     597     598     599
     597     598     599     600     601     602     598     599     600     599
     600     600     601     602     603     607     601     602     603     604
     606     607     608     609     602     603     607     603     604     605
     606     607     608     609     610     611     604     605     606     607
     608     609     611     612     605     606     607     609     610     611
     612     613     614     606     609     611     612     607     611     608
     609     610     611     612     609     610     611     610     611     612
     613     614     611     612     612     613     614     615     613     614
     615     616     617     618     614     615     615     616     617     618
     619     620     621     616     617     618     619     620     621     622
     623     624     617     618     619     620     621     618     619     620
     621     619     620     621     622     623     624     625     626     627
     620     621     622     623     624     621     622     623     624     622
     623     624     625     626     627     628     623     624     625     626
     627     624     625     626     627     625     626     627     628     629
     630     626     627     628     627     628     628     629     630     631
     635     629     630     631     632     634     635     636     637     630
     631     635     631     632     633     634     635     636     637     638
     639     632     633     634     635     636     637     639     640     633
     634     635     637     638     639     640     641     642     634     637
     639     640     635     639     636     637     638     639     640     637
     638     639     638     639     640     641     642     639     640     640
     641     642     643     641     642     643     644     645     646     642
     643     643     644     645     646     647     648     649     644     645
     646     647     648     649     650     651     652     645     646     647
     648     649     646     647     648     649     647     648     649     650
     651     652     653     654     655     648     649     650     651     652
     649     650     651     652     650     651     652     653     654     655
     656     651     652     653     654     655     652     653     654     655
     653     654     655     656     657     658     654     655     656     655
     656     656     657     658     659     663     657     658     659     660
     662     663     664     665     658     659     663     659     660     661
     662     663     664     665     666     667     660     661     662     663
     664     665     667     668     661     662     663     665     666     667
     668     669     670     662     665     667     668     663     667     664
     665     666     667     668     665     666     667     666     667     668
     669     670     667     668     668     669     670     671     669     670
     671     672     673     674     670     671     671     672     673     674
     675     676     677     672     673     674     675     676     677     678
     679     680     673     674     675     676     677     674     675     676
     677     675     676     677     678     679     680     681     682     683
     676     677     678     679     680     677     678     679     680     678
     679     680     681     682     683     684     679     680     681     682
     683     680     681     682     683     681     682     683     684     685
     686     682     683     684     683     684     684     685     686     687
     691     685     686     687     688     690     691     692     693     686
     687     691     687     688     689     690     691     692     693     694
     695     688     689     690     691     692     693     695     696     689
     690     691     693     694     695     696     697     698     690     693
     695     696     691     695     692     693     694     695     696     693
     694     695     694     695     696     697     698     695     696     696
     697     698     699     697     698     699     700     701     702     698
     699     699     700     701     702     703     704     705     700     701
     702     703     704     705     706     707     708     701     702     703
     704     705     702     703     704     705     703     704     705     706
     707     708     709     710     711     704     705     706     707     708
     705     706     707     708     706     707     708     709     710     711
     712     707     708     709     710     711     708     709     710     711
     709     710     711     712     713     714     710     711     712     711
     712     712     713     714     715     719     713     714     715     716
     718     719     720     721     714     715     719     715     716     717
     718     719     720     721     722     723     716     717     718     719
     720     721     723     724     717     718     719     721     722     723
     724     725     726     718     721     723     724     719     723     720
     721     722     723     724     721     722     723     722     723     724
     725     726     723     724     724     725     726     727     725     726
     727     728     729     730     726     727     727     728     729     730
     731     732     733     728     729     730     731     732     733     734
     735     736     729     730     731     732     733     730     731     732
     733     731     732     733     734     735     736     737     738     739
     732     733     734     735     736     733     734     735     736     734
     735     736     737     738     739     740     735     736     737     738
     739     736     737     738     739     737     738     739     740     741
     742     738     739     740     739     740     740     741     742     743
     747     741     742     743     744     746     747     748     749     742
     743     747     743     744     745     746     747     748     749     750
     751     744     745     746     747     748     749     751     752     745
     746     747     749     750     751     752     753     754     746     749
     751     752     747     751     748     749     750     751     752     749
     750     751     750     751     752     753     754     751     752     752
     753     754     755     753     754     755     756     757     758     754
     755     755     756     757     758     759     760     761     756     757
     758     759     760     761     762     763     764     757     758     759
     760     761     758     759     760     761     759     760     761     762
     763     764     765     766     767     760     761     762     763     764
     761     762     763     764     762     763     764     765     766     767
     768     763     764     765     766     767     764     765     766     767
     765     766     767     768     769     770     766     767     768     767
     768     768     769     770     771     775     769     770     771     772
     774     775     776     777     770     771     775     771     772     773
     774     775     776     777     778     779     772     773     774     775
     776     777     779     780     773     774     775     777     778     779
     780     781     782     774     777     779     780     775     779     776
     777     778     779     780     777     778     779     778     779     780
     781     782     779     780     780     781     782     783     781     782
     783     784     785     786     782     783     783     784     785     786
     787     788     789     784     785     786     787     788     789     790
     791     792     785     786     787     788     789     786     787     788
     789     787     788     789     790     791     792     793     794     795
     788     789     790     791     792     789     790     791     792     790
     791     792     793     794     795     796     791     792     793     794
     795     792     793     794     795     793     794     795     796     797
     798     794     795     796     795     796     796     797     798     799
     803     797     798     799     800     802     803     804     805     798
     799     803     799     800     801     802     803     804     805     806
     807     800     801     802     803     804     805     807     808     801
     802     803     805     806     807     808     809     810     802     805
     807     808     803     807     804     805     806     807     808     805
     806     807     806     807     808     809     810     807     808     808
     809     810     811     809     810     811     812     813     814     810
     811     811     812     813     814     815     816     817     812     813
     814     815     816     817     818     819     820     813     814     815
     816     817     814     815     816     817     815     816     817     818
     819     820     821     822     823     816     817     818     819     820
     817     818     819     820     818     819     820     821     822     823
     824     819     820     821     822     823     820     821     822     823
     821     822     823     824     825     826     822     823     824     823
     824     824     825     826     827     831     825     826     827     828
     830     831     832     833     826     827     831     827     828     829
     830     831     832     833     834     835     828     829     830     831
     832     833     835     836     829     830     831     833     834     835
     836     837     838     830     833     835     836     831     835     832
     833     834     835     836     833     834     835     834     835     836
     837     838     835     836     836     837     838     839     837     838
     839     840     841     842     838     839     839     840     841     842
     843     844     845     840     841     842     843     844     845     846
     847     848     841     842     843     844     845     842     843     844
     845     843     844     845     846     847     848     849     850     851
     844     845     846     847     848     845     846     847     848     846
     847     848     849     850     851     852     847     848     849     850
     851     848     849     850     851     849     850     851     852     853
     854     850     851     852     851     852     852     853     854     855
     859     853     854     855     856     858     859     860     861     854
     855     859     855     856     857     858     859     860     861     862
     863     856     857     858     859     860     861     863     864     857
     858     859     861     862     863     864     865     866     858     861
     863     864     859     863     860     861     862     863     864     861
     862     863     862     863     864     865     866     863     864     864
     865     866     867     865     866     867     868     869     870     866
     867     867     868     869     870     871     872     873     868     869
     870     871     872     873     874     875     869     870     871     872
     873     870     871     872     873     871     872     873     874     875
     872     873     874     875     873     874     875     874     875     875
       0
%FLAG HBOND_ACOEF                                                               
%FORMAT(5E16.8)                                                                 

%FLAG HBOND_BCOEF                                                               
%FORMAT(5E16.8)                                                                 

%FLAG HBCUT                                                                     
%FORMAT(5E16.8)                                                                 

%FLAG AMBER_ATOM_TYPE                                                           
%FORMAT(20a4)                                                                   
c3  h1  h1  os  c3  h1  h1  c3  h1  h1  os  c3  h1  h1  c3  h1  h1  os  c3  h1  
h1  c3  h1  h1  os  c3  h1  h1  c3  h1  h1  os  c3  h1  h1  c3  h1  h1  os  c3  
h1  h1  c3  h1  h1  os  c3  h1  h1  c3  h1  h1  os  c3  h1  h1  c3  h1  h1  os  
c3  h1  h1  c3  h1  h1  os  c3  h1  h1  c3  h1  h1  os  c3  h1  h1  c3  h1  h1  
os  c3  h1  h1  c3  h1  h1  os  c3  h1  h1  c3  h1  h1  os  c3  h1  h1  c3  h1  
h1  os  c3  h1  h1  c3  h1  h1  os  c3  h1  h1  c3  h1  h1  os  c3  h1  h1  c3  
h1  h1  os  c3  h1  h1  c3  h1  h1  os  c3  h1  h1  c3  h1  h1  os  c3  h1  h1  
c3  h1  h1  os  c3  h1  h1  c3  h1  h1  os  c3  h1  h1  c3  h1  h1  os  c3  h1  
h1  c3  h1  h1  os  c3  h1  h1  c3  h1  h1  os  c3  h1  h1  c3  h1  h1  os  c   
o   ca  ca  ca  ha  ha  ca  ha  ca  ha  ca  c   o   os  c3  h1  h1  c3  hc  hc  
c3  hc  hc  c3  h1  h1  os  c   o   ca  ca  ca  ha  ha  ca  ha  ca  ha  ca  c   
o   os  c3  h1  h1  c3  hc  hc  c3  hc  hc  c3  h1  h1  os  c   o   ca  ca  ca  
ha  ha  ca  ha  ca  ha  ca  c   o   os  c3  h1  h1  c3  hc  hc  c3  hc  hc  c3  
h1  h1  os  c   o   ca  ca  ca  ha  ha  ca  ha  ca  ha  ca  c   o   os  c3  h1  
h1  c3  hc  hc  c3  hc  hc  c3  h1  h1  os  c   o   ca  ca  ca  ha  ha  ca  ha  
ca  ha  ca  c   o   os  c3  h1  h1  c3  hc  hc  c3  hc  hc  c3  h1  h1  os  c   
o   ca  ca  ca  ha  ha  ca  ha  ca  ha  ca  c   o   os  c3  h1  h1  c3  hc  hc  
c3  hc  hc  c3  h1  h1  os  c   o   ca  ca  ca  ha  ha  ca  ha  ca  ha  ca  c   
o   os  c3  h1  h1  c3  hc  hc  c3  hc  hc  c3  h1  h1  os  c   o   ca  ca  ca  
ha  ha  ca  ha  ca  ha  ca  c   o   os  c3  h1  h1  c3  hc  hc  c3  hc  hc  c3  
h1  h1  os  c   o   ca  ca  ca  ha  ha  ca  ha  ca  ha  ca  c   o   os  c3  h1  
h1  c3  hc  hc  c3  hc  hc  c3  h1  h1  os  c   o   ca  ca  ca  ha  ha  ca  ha  
ca  ha  ca  c   o   os  c3  h1  h1  c3  hc  hc  c3  hc  hc  c3  h1  h1  os  c   
o   ca  ca  ca  ha  ha  ca  ha  ca  ha  ca  c   o   os  c3  h1  h1  c3  hc  hc  
c3  hc  hc  c3  h1  h1  os  c   o   ca  ca  ca  ha  ha  ca  ha  ca  ha  ca  c   
o   os  c3  h1  h1  c3  hc  hc  c3  hc  hc  c3  h1  h1  os  c   o   ca  ca  ca  
ha  ha  ca  ha  ca  ha  ca  c   o   os  c3  h1  h1  c3  hc  hc  c3  hc  hc  c3  
h1  h1  os  c   o   ca  ca  ca  ha  ha  ca  ha  ca  ha  ca  c   o   os  c3  h1  
h1  c3  hc  hc  c3  hc  hc  c3  h1  h1  os  c   o   ca  ca  ca  ha  ha  ca  ha  
ca  ha  ca  c   o   os  c3  h1  h1  c3  hc  hc  c3  hc  hc  c3  h1  h1  os  c   
o   ca  ca  ca  ha  ha  ca  ha  ca  ha  ca  c   o   os  c3  h1  h1  c3  hc  hc  
c3  hc  hc  c3  h1  h1  os  c   o   ca  ca  ca  ha  ha  ca  ha  ca  ha  ca  c   
o   os  c3  h1  h1  c3  hc  hc  c3  hc  hc  c3  h1  h1  os  c   o   ca  ca  ca  
ha  ha  ca  ha  ca  ha  ca  c   o   os  c3  h1  h1  c3  hc  hc  c3  hc  hc  c3  
h1  h1  os  c   o   ca  ca  ca  ha  ha  ca  ha  ca  ha  ca  c   o   os  c3  h1  
h1  c3  hc  hc  c3  hc  hc  c3  h1  h1  os  c   o   ca  ca  ca  ha  ha  ca  ha  
ca  ha  ca  c   o   os  c3  h1  h1  c3  hc  hc  c3  hc  hc  c3  h1  h1  os  c   
o   ca  ca  ca  ha  ha  ca  ha  ca  ha  ca  c   o   os  c3  h1  h1  c3  hc  hc  
c3  hc  hc  c3  h1  h1  os  c   o   ca  ca  ca  ha  ha  ca  ha  ca  ha  ca  c   
o   os  c3  h1  h1  c3  hc  hc  c3  hc  hc  c3  h1  h1  os  c   o   ca  ca  ca  
ha  ha  ca  ha  ca  ha  ca  c   o   os  c3  h1  h1  c3  hc  hc  c3  hc  hc  c3  
h1  h1  os  c   o   ca  ca  ca  ha  ha  ca  ha  ca  ha  ca  c   o   os  c3  h1  
h1  c3  hc  hc  c3  hc  hc  c3  h1  h1  os  c   o   ca  ca  ca  ha  ha  ca  ha  
ca  ha  ca  c   o   os  c3  h1  h1  c3  hc  hc  c3  hc  hc  
%FLAG TREE_CHAIN_CLASSIFICATION                                                 
%FORMAT(20a4)                                                                   
M   E   E   M   M   E   E   M   E   E   M   M   E   E   M   E   E   M   M   E   
E   M   E   E   M   M   E   E   M   E   E   M   M   E   E   M   E   E   M   M   
E   E   M   E   E   M   M   E   E   M   E   E   M   M   E   E   M   E   E   M   
M   E   E   M   E   E   M   M   E   E   M   E   E   M   M   E   E   M   E   E   
M   M   E   E   M   E   E   M   M   E   E   M   E   E   M   M   E   E   M   E   
E   M   M   E   E   M   E   E   M   M   E   E   M   E   E   M   M   E   E   M   
E   E   M   M   E   E   M   E   E   M   M   E   E   M   E   E   M   M   E   E   
M   E   E   M   M   E   E   M   E   E   M   M   E   E   M   E   E   M   M   E   
E   M   E   E   M   M   E   E   M   E   E   M   M   E   E   M   E   E   M   M   
E   M   B   S   E   E   M   E   M   E   M   M   E   M   M   E   E   M   E   E   
M   E   E   M   E   E   M   M   E   M   B   S   E   E   M   E   M   E   M   M   
E   M   M   E   E   M   E   E   M   E   E   M   E   E   M   M   E   M   B   S   
E   E   M   E   M   E   M   M   E   M   M   E   E   M   E   E   M   E   E   M   
E   E   M   M   E   M   B   S   E   E   M   E   M   E   M   M   E   M   M   E   
E   M   E   E   M   E   E   M   E   E   M   M   E   M   B   S   E   E   M   E   
M   E   M   M   E   M   M   E   E   M   E   E   M   E   E   M   E   E   M   M   
E   M   B   S   E   E   M   E   M   E   M   M   E   M   M   E   E   M   E   E   
M   E   E   M   E   E   M   M   E   M   B   S   E   E   M   E   M   E   M   M   
E   M   M   E   E   M   E   E   M   E   E   M   E   E   M   M   E   M   B   S   
E   E   M   E   M   E   M   M   E   M   M   E   E   M   E   E   M   E   E   M   
E   E   M   M   E   M   B   S   E   E   M   E   M   E   M   M   E   M   M   E   
E   M   E   E   M   E   E   M   E   E   M   M   E   M   B   S   E   E   M   E   
M   E   M   M   E   M   M   E   E   M   E   E   M   E   E   M   E   E   M   M   
E   M   B   S   E   E   M   E   M   E   M   M   E   M   M   E   E   M   E   E   
M   E   E   M   E   E   M   M   E   M   B   S   E   E   M   E   M   E   M   M   
E   M   M   E   E   M   E   E   M   E   E   M   E   E   M   M   E   M   B   S   
E   E   M   E   M   E   M   M   E   M   M   E   E   M   E   E   M   E   E   M   
E   E   M   M   E   M   B   S   E   E   M   E   M   E   M   M   E   M   M   E   
E   M   E   E   M   E   E   M   E   E   M   M   E   M   B   S   E   E   M   E   
M   E   M   M   E   M   M   E   E   M   E   E   M   E   E   M   E   E   M   M   
E   M   B   S   E   E   M   E   M   E   M   M   E   M   M   E   E   M   E   E   
M   E   E   M   E   E   M   M   E   M   B   S   E   E   M   E   M   E   M   M   
E   M   M   E   E   M   E   E   M   E   E   M   E   E   M   M   E   M   B   S   
E   E   M   E   M   E   M   M   E   M   M   E   E   M   E   E   M   E   E   M   
E   E   M   M   E   M   B   S   E   E   M   E   M   E   M   M   E   M   M   E   
E   M   E   E   M   E   E   M   E   E   M   M   E   M   B   S   E   E   M   E   
M   E   M   M   E   M   M   E   E   M   E   E   M   E   E   M   E   E   M   M   
E   M   B   S   E   E   M   E   M   E   M   M   E   M   M   E   E   M   E   E   
M   E   E   M   E   E   M   M   E   M   B   S   E   E   M   E   M   E   M   M   
E   M   M   E   E   M   E   E   M   E   E   M   E   E   M   M   E   M   B   S   
E   E   M   E   M   E   M   M   E   M   M   E   E   M   E   E   M   E   E   M   
E   E   M   M   E   M   B   S   E   E   M   E   M   E   M   M   E   M   M   E   
E   M   E   E   M   E   E   M   E   E   M   M   E   M   B   S   E   E   M   E   
M   E   M   M   E   M   M   E   E   M   E   E   M   E   E   
%FLAG JOIN_ARRAY                                                                
%FORMAT(10I8)                                                                   
       0       0       0       0       0       0       0       0       0       0
       0       0       0       0       0       0       0       0       0       0
       0       0       0       0       0       0       0       0       0       0
       0       0       0       0       0       0       0       0       0       0
       0       0       0       0       0       0       0       0       0       0
       0       0       0       0       0       0       0       0       0       0
       0       0       0       0       0       0       0       0       0       0
       0       0       0       0       0       0       0       0       0       0
       0       0       0       0       0       0       0       0       0       0
       0       0       0       0       0       0       0       0       0       0
       0       0       0       0       0       0       0       0       0       0
       0       0       0       0       0       0       0       0       0       0
       0       0       0       0       0       0       0       0       0       0
       0       0       0       0       0       0       0       0       0       0
       0       0       0       0       0       0       0       0       0       0
       0       0       0       0       0       0       0       0       0       0
       0       0       0       0       0       0       0       0       0       0
       0       0       0       0       0       0       0       0       0       0
       0       0       0       0       0       0       0       0       0       0
       0       0       0       0       0       0       0       0       0       0
       0       0       0       0       0       0       0       0       0       0
       0       0       0       0       0       0       0       0       0       0
       0       0       0       0       0       0       0       0       0       0
       0       0       0       0       0       0       0       0       0       0
       0       0       0       0       0       0       0       0       0       0
       0       0       0       0       0       0       0       0       0       0
       0       0       0       0       0       0       0       0       0       0
       0       0       0       0       0       0       0       0       0       0
       0       0       0       0       0       0       0       0       0       0
       0       0       0       0       0       0       0       0       0       0
       0       0       0       0       0       0       0       0       0       0
       0       0       0       0       0       0       0       0       0       0
       0       0       0       0       0       0       0       0       0       0
       0       0       0       0       0       0       0       0       0       0
       0       0       0       0       0       0       0       0       0       0
       0       0       0       0       0       0       0       0       0       0
       0       0       0       0       0       0       0       0       0       0
       0       0       0       0       0       0       0       0       0       0
       0       0       0       0       0       0       0       0       0       0
       0       0       0       0       0       0       0       0       0       0
       0       0       0       0       0       0       0       0       0       0
       0       0       0       0       0       0       0       0       0       0
       0       0       0       0       0       0       0       0       0       0
       0       0       0       0       0       0       0       0       0       0
       0       0       0       0       0       0       0       0       0       0
       0       0       0       0       0       0       0       0       0       0
       0       0       0       0       0       0       0       0       0       0
       0       0       0       0       0       0       0       0       0       0
       0       0       0       0       0       0       0       0       0       0
       0       0       0       0       0       0       0       0       0       0
       0       0       0       0       0       0       0       0       0       0
       0       0       0       0       0       0       0       0       0       0
       0       0       0       0       0       0       0       0       0       0
       0       0       0       0       0       0       0       0       0       0
       0       0       0       0       0       0       0       0       0       0
       0       0       0       0       0       0       0       0       0       0
       0       0       0       0       0       0       0       0       0       0
       0       0       0       0       0       0       0       0       0       0
       0       0       0       0       0       0       0       0       0       0
       0       0       0       0       0       0       0       0       0       0
       0       0       0       0       0       0       0       0       0       0
       0       0       0       0       0       0       0       0       0       0
       0       0       0       0       0       0       0       0       0       0
       0       0       0       0       0       0       0       0       0       0
       0       0       0       0       0       0       0       0       0       0
       0       0       0       0       0       0       0       0       0       0
       0       0       0       0       0       0       0       0       0       0
       0       0       0       0       0       0       0       0       0       0
       0       0       0       0       0       0       0       0       0       0
       0       0       0       0       0       0       0       0       0       0
       0       0       0       0       0       0       0       0       0       0
       0       0       0       0       0       0       0       0       0       0
       0       0       0       0       0       0       0       0       0       0
       0       0       0       0       0       0       0       0       0       0
       0       0       0       0       0       0       0       0       0       0
       0       0       0       0       0       0       0       0       0       0
       0       0       0       0       0       0       0       0       0       0
       0       0       0       0       0       0       0       0       0       0
       0       0       0       0       0       0       0       0       0       0
       0       0       0       0       0       0       0       0       0       0
       0       0       0       0       0       0       0       0       0       0
       0       0       0       0       0       0       0       0       0       0
       0       0       0       0       0       0       0       0       0       0
       0       0       0       0       0       0       0       0       0       0
       0       0       0       0       0       0       0       0       0       0
       0       0       0       0       0       0       0       0       0       0
       0       0       0       0       0       0       0       0       0       0
       0       0       0       0       0
%FLAG IROTAT                                                                    
%FORMAT(10I8)                                                                   
       0       0       0       0       0       0       0       0       0       0
       0       0       0       0       0       0       0       0       0       0
       0       0       0       0       0       0       0       0       0       0
       0       0       0       0       0       0       0       0       0       0
       0       0       0       0       0       0       0       0       0       0
       0       0       0       0       0       0       0       0       0       0
       0       0       0       0       0       0       0       0       0       0
       0       0       0       0       0       0       0       0       0       0
       0       0       0       0       0       0       0       0       0       0
       0       0       0       0       0       0       0       0       0       0
       0       0       0       0       0       0       0       0       0       0
       0       0       0       0       0       0       0       0       0       0
       0       0       0       0       0       0       0       0       0       0
       0       0       0       0       0       0       0       0       0       0
       0       0       0       0       0       0       0       0       0       0
       0       0       0       0       0       0       0       0       0       0
       0       0       0       0       0       0       0       0       0       0
       0       0       0       0       0       0       0       0       0       0
       0       0       0       0       0       0       0       0       0       0
       0       0       0       0       0       0       0       0       0       0
       0       0       0       0       0       0       0       0       0       0
       0       0       0       0       0       0       0       0       0       0
       0       0       0       0       0       0       0       0       0       0
       0       0       0       0       0       0       0       0       0       0
       0       0       0       0       0       0       0       0       0       0
       0       0       0       0       0       0       0       0       0       0
       0       0       0       0       0       0       0       0       0       0
       0       0       0       0       0       0       0       0       0       0
       0       0       0       0       0       0       0       0       0       0
       0       0       0       0       0       0       0       0       0       0
       0       0       0       0       0       0       0       0       0       0
       0       0       0       0       0       0       0       0       0       0
       0       0       0       0       0       0       0       0       0       0
       0       0       0       0       0       0       0       0       0       0
       0       0       0       0       0       0       0       0       0       0
       0       0       0       0       0       0       0       0       0       0
       0       0       0       0       0       0       0       0       0       0
       0       0       0       0       0       0       0       0       0       0
       0       0       0       0       0       0       0       0       0       0
       0       0       0       0       0       0       0       0       0       0
       0       0       0       0       0       0       0       0       0       0
       0       0       0       0       0       0       0       0       0       0
       0       0       0       0       0       0       0       0       0       0
       0       0       0       0       0       0       0       0       0       0
       0       0       0       0       0       0       0       0       0       0
       0       0       0       0       0       0       0       0       0       0
       0       0       0       0       0       0       0       0       0       0
       0       0       0       0       0       0       0       0       0       0
       0       0       0       0       0       0       0       0       0       0
       0       0       0       0       0       0       0       0       0       0
       0       0       0       0       0       0       0       0       0       0
       0       0       0       0       0       0       0       0       0       0
       0       0       0       0       0       0       0       0       0       0
       0       0       0       0       0       0       0       0       0       0
       0       0       0       0       0       0       0       0       0       0
       0       0       0       0       0       0       0       0       0       0
       0       0       0       0       0       0       0       0       0       0
       0       0       0       0       0       0       0       0       0       0
       0       0       0       0       0       0       0       0       0       0
       0       0       0       0       0       0       0       0       0       0
       0       0       0       0       0       0       0       0       0       0
       0       0       0       0       0       0       0       0       0       0
       0       0       0       0       0       0       0       0       0       0
       0       0       0       0       0       0       0       0       0       0
       0       0       0       0       0       0       0       0       0       0
       0       0       0       0       0       0       0       0       0       0
       0       0       0       0       0       0       0       0       0       0
       0       0       0       0       0       0       0       0       0       0
       0       0       0       0       0       0       0       0       0       0
       0       0       0       0       0       0       0       0       0       0
       0       0       0       0       0       0       0       0       0       0
       0       0       0       0       0       0       0       0       0       0
       0       0       0       0       0       0       0       0       0       0
       0       0       0       0       0       0       0       0       0       0
       0       0       0       0       0       0       0       0       0       0
       0       0       0       0       0       0       0       0       0       0
       0       0       0       0       0       0       0       0       0       0
       0       0       0       0       0       0       0       0       0       0
       0       0       0       0       0       0       0       0       0       0
       0       0       0       0       0       0       0       0       0       0
       0       0       0       0       0       0       0       0       0       0
       0       0       0       0       0       0       0       0       0       0
       0       0       0       0       0       0       0       0       0       0
       0       0       0       0       0       0       0       0       0       0
       0       0       0       0       0       0       0       0       0       0
       0       0       0       0       0       0       0       0       0       0
       0       0       0       0       0       0       0       0       0       0
       0       0       0       0       0
%FLAG RADIUS_SET                                                                
%FORMAT(1a80)                                                                   
modified Bondi radii (mbondi)                                                   
%FLAG RADII                                                                     
%FORMAT(5E16.8)                                                                 
  1.70000000E+00  1.30000000E+00  1.30000000E+00  1.50000000E+00  1.70000000E+00
  1.30000000E+00  1.30000000E+00  1.70000000E+00  1.30000000E+00  1.30000000E+00
  1.50000000E+00  1.70000000E+00  1.30000000E+00  1.30000000E+00  1.70000000E+00
  1.30000000E+00  1.30000000E+00  1.50000000E+00  1.70000000E+00  1.30000000E+00
  1.30000000E+00  1.70000000E+00  1.30000000E+00  1.30000000E+00  1.50000000E+00
  1.70000000E+00  1.30000000E+00  1.30000000E+00  1.70000000E+00  1.30000000E+00
  1.30000000E+00  1.50000000E+00  1.70000000E+00  1.30000000E+00  1.30000000E+00
  1.70000000E+00  1.30000000E+00  1.30000000E+00  1.50000000E+00  1.70000000E+00
  1.30000000E+00  1.30000000E+00  1.70000000E+00  1.30000000E+00  1.30000000E+00
  1.50000000E+00  1.70000000E+00  1.30000000E+00  1.30000000E+00  1.70000000E+00
  1.30000000E+00  1.30000000E+00  1.50000000E+00  1.70000000E+00  1.30000000E+00
  1.30000000E+00  1.70000000E+00  1.30000000E+00  1.30000000E+00  1.50000000E+00
  1.70000000E+00  1.30000000E+00  1.30000000E+00  1.70000000E+00  1.30000000E+00
  1.30000000E+00  1.50000000E+00  1.70000000E+00  1.30000000E+00  1.30000000E+00
  1.70000000E+00  1.30000000E+00  1.30000000E+00  1.50000000E+00  1.70000000E+00
  1.30000000E+00  1.30000000E+00  1.70000000E+00  1.30000000E+00  1.30000000E+00
  1.50000000E+00  1.70000000E+00  1.30000000E+00  1.30000000E+00  1.70000000E+00
  1.30000000E+00  1.30000000E+00  1.50000000E+00  1.70000000E+00  1.30000000E+00
  1.30000000E+00  1.70000000E+00  1.30000000E+00  1.30000000E+00  1.50000000E+00
  1.70000000E+00  1.30000000E+00  1.30000000E+00  1.70000000E+00  1.30000000E+00
  1.30000000E+00  1.50000000E+00  1.70000000E+00  1.30000000E+00  1.30000000E+00
  1.70000000E+00  1.30000000E+00  1.30000000E+00  1.50000000E+00  1.70000000E+00
  1.30000000E+00  1.30000000E+00  1.70000000E+00  1.30000000E+00  1.30000000E+00
  1.50000000E+00  1.70000000E+00  1.30000000E+00  1.30000000E+00  1.70000000E+00
  1.30000000E+00  1.30000000E+00  1.50000000E+00  1.70000000E+00  1.30000000E+00
  1.30000000E+00  1.70000000E+00  1.30000000E+00  1.30000000E+00  1.50000000E+00
  1.70000000E+00  1.30000000E+00  1.30000000E+00  1.70000000E+00  1.30000000E+00
  1.30000000E+00  1.50000000E+00  1.70000000E+00  1.30000000E+00  1.30000000E+00
  1.70000000E+00  1.30000000E+00  1.30000000E+00  1.50000000E+00  1.70000000E+00
  1.30000000E+00  1.30000000E+00  1.70000000E+00  1.30000000E+00  1.30000000E+00
  1.50000000E+00  1.70000000E+00  1.30000000E+00  1.30000000E+00  1.70000000E+00
  1.30000000E+00  1.30000000E+00  1.50000000E+00  1.70000000E+00  1.30000000E+00
  1.30000000E+00  1.70000000E+00  1.30000000E+00  1.30000000E+00  1.50000000E+00
  1.70000000E+00  1.30000000E+00  1.30000000E+00  1.70000000E+00  1.30000000E+00
  1.30000000E+00  1.50000000E+00  1.70000000E+00  1.30000000E+00  1.30000000E+00
  1.70000000E+00  1.30000000E+00  1.30000000E+00  1.50000000E+00  1.70000000E+00
  1.50000000E+00  1.70000000E+00  1.70000000E+00  1.70000000E+00  1.30000000E+00
  1.30000000E+00  1.70000000E+00  1.30000000E+00  1.70000000E+00  1.30000000E+00
  1.70000000E+00  1.70000000E+00  1.50000000E+00  1.50000000E+00  1.70000000E+00
  1.30000000E+00  1.30000000E+00  1.70000000E+00  1.30000000E+00  1.30000000E+00
  1.70000000E+00  1.30000000E+00  1.30000000E+00  1.70000000E+00  1.30000000E+00
  1.30000000E+00  1.50000000E+00  1.70000000E+00  1.50000000E+00  1.70000000E+00
  1.70000000E+00  1.70000000E+00  1.30000000E+00  1.30000000E+00  1.70000000E+00
  1.30000000E+00  1.70000000E+00  1.30000000E+00  1.70000000E+00  1.70000000E+00
  1.50000000E+00  1.50000000E+00  1.70000000E+00  1.30000000E+00  1.30000000E+00
  1.70000000E+00  1.30000000E+00  1.30000000E+00  1.70000000E+00  1.30000000E+00
  1.30000000E+00  1.70000000E+00  1.30000000E+00  1.30000000E+00  1.50000000E+00
  1.70000000E+00  1.50000000E+00  1.70000000E+00  1.70000000E+00  1.70000000E+00
  1.30000000E+00  1.30000000E+00  1.70000000E+00  1.30000000E+00  1.70000000E+00
  1.30000000E+00  1.70000000E+00  1.70000000E+00  1.50000000E+00  1.50000000E+00
  1.70000000E+00  1.30000000E+00  1.30000000E+00  1.70000000E+00  1.30000000E+00
  1.30000000E+00  1.70000000E+00  1.30000000E+00  1.30000000E+00  1.70000000E+00
  1.30000000E+00  1.30000000E+00  1.50000000E+00  1.70000000E+00  1.50000000E+00
  1.70000000E+00  1.70000000E+00  1.70000000E+00  1.30000000E+00  1.30000000E+00
  1.70000000E+00  1.30000000E+00  1.70000000E+00  1.30000000E+00  1.70000000E+00
  1.70000000E+00  1.50000000E+00  1.50000000E+00  1.70000000E+00  1.30000000E+00
  1.30000000E+00  1.70000000E+00  1.30000000E+00  1.30000000E+00  1.70000000E+00
  1.30000000E+00  1.30000000E+00  1.70000000E+00  1.30000000E+00  1.30000000E+00
  1.50000000E+00  1.70000000E+00  1.50000000E+00  1.70000000E+00  1.70000000E+00
  1.70000000E+00  1.30000000E+00  1.30000000E+00  1.70000000E+00  1.30000000E+00
  1.70000000E+00  1.30000000E+00  1.70000000E+00  1.70000000E+00  1.50000000E+00
  1.50000000E+00  1.70000000E+00  1.30000000E+00  1.30000000E+00  1.70000000E+00
  1.30000000E+00  1.30000000E+00  1.70000000E+00  1.30000000E+00  1.30000000E+00
  1.70000000E+00  1.30000000E+00  1.30000000E+00  1.50000000E+00  1.70000000E+00
  1.50000000E+00  1.70000000E+00  1.70000000E+00  1.70000000E+00  1.30000000E+00
  1.30000000E+00  1.70000000E+00  1.30000000E+00  1.70000000E+00  1.30000000E+00
  1.70000000E+00  1.70000000E+00  1.50000000E+00  1.50000000E+00  1.70000000E+00
  1.30000000E+00  1.30000000E+00  1.70000000E+00  1.30000000E+00  1.30000000E+00
  1.70000000E+00  1.30000000E+00  1.30000000E+00  1.70000000E+00  1.30000000E+00
  1.30000000E+00  1.50000000E+00  1.70000000E+00  1.50000000E+00  1.70000000E+00
  1.70000000E+00  1.70000000E+00  1.30000000E+00  1.30000000E+00  1.70000000E+00
  1.30000000E+00  1.70000000E+00  1.30000000E+00  1.70000000E+00  1.70000000E+00
  1.50000000E+00  1.50000000E+00  1.70000000E+00  1.30000000E+00  1.30000000E+00
  1.70000000E+00  1.30000000E+00  1.30000000E+00  1.70000000E+00  1.30000000E+00
  1.30000000E+00  1.70000000E+00  1.30000000E+00  1.30000000E+00  1.50000000E+00
  1.70000000E+00  1.50000000E+00  1.70000000E+00  1.70000000E+00  1.70000000E+00
  1.30000000E+00  1.30000000E+00  1.70000000E+00  1.30000000E+00  1.70000000E+00
  1.30000000E+00  1.70000000E+00  1.70000000E+00  1.50000000E+00  1.50000000E+00
  1.70000000E+00  1.30000000E+00  1.30000000E+00  1.70000000E+00  1.30000000E+00
  1.30000000E+00  1.70000000E+00  1.30000000E+00  1.30000000E+00  1.70000000E+00
  1.30000000E+00  1.30000000E+00  1.50000000E+00  1.70000000E+00  1.50000000E+00
  1.70000000E+00  1.70000000E+00  1.70000000E+00  1.30000000E+00  1.30000000E+00
  1.70000000E+00  1.30000000E+00  1.70000000E+00  1.30000000E+00  1.70000000E+00
  1.70000000E+00  1.50000000E+00  1.50000000E+00  1.70000000E+00  1.30000000E+00
  1.30000000E+00  1.70000000E+00  1.30000000E+00  1.30000000E+00  1.70000000E+00
  1.30000000E+00  1.30000000E+00  1.70000000E+00  1.30000000E+00  1.30000000E+00
  1.50000000E+00  1.70000000E+00  1.50000000E+00  1.70000000E+00  1.70000000E+00
  1.70000000E+00  1.30000000E+00  1.30000000E+00  1.70000000E+00  1.30000000E+00
  1.70000000E+00  1.30000000E+00  1.70000000E+00  1.70000000E+00  1.50000000E+00
  1.50000000E+00  1.70000000E+00  1.30000000E+00  1.30000000E+00  1.70000000E+00
  1.30000000E+00  1.30000000E+00  1.70000000E+00  1.30000000E+00  1.30000000E+00
  1.70000000E+00  1.30000000E+00  1.30000000E+00  1.50000000E+00  1.70000000E+00
  1.50000000E+00  1.70000000E+00  1.70000000E+00  1.70000000E+00  1.30000000E+00
  1.30000000E+00  1.70000000E+00  1.30000000E+00  1.70000000E+00  1.30000000E+00
  1.70000000E+00  1.70000000E+00  1.50000000E+00  1.50000000E+00  1.70000000E+00
  1.30000000E+00  1.30000000E+00  1.70000000E+00  1.30000000E+00  1.30000000E+00
  1.70000000E+00  1.30000000E+00  1.30000000E+00  1.70000000E+00  1.30000000E+00
  1.30000000E+00  1.50000000E+00  1.70000000E+00  1.50000000E+00  1.70000000E+00
  1.70000000E+00  1.70000000E+00  1.30000000E+00  1.30000000E+00  1.70000000E+00
  1.30000000E+00  1.70000000E+00  1.30000000E+00  1.70000000E+00  1.70000000E+00
  1.50000000E+00  1.50000000E+00  1.70000000E+00  1.30000000E+00  1.30000000E+00
  1.70000000E+00  1.30000000E+00  1.30000000E+00  1.70000000E+00  1.30000000E+00
  1.30000000E+00  1.70000000E+00  1.30000000E+00  1.30000000E+00  1.50000000E+00
  1.70000000E+00  1.50000000E+00  1.70000000E+00  1.70000000E+00  1.70000000E+00
  1.30000000E+00  1.30000000E+00  1.70000000E+00  1.30000000E+00  1.70000000E+00
  1.30000000E+00  1.70000000E+00  1.70000000E+00  1.50000000E+00  1.50000000E+00
  1.70000000E+00  1.30000000E+00  1.30000000E+00  1.70000000E+00  1.30000000E+00
  1.30000000E+00  1.70000000E+00  1.30000000E+00  1.30000000E+00  1.70000000E+00
  1.30000000E+00  1.30000000E+00  1.50000000E+00  1.70000000E+00  1.50000000E+00
  1.70000000E+00  1.70000000E+00  1.70000000E+00  1.30000000E+00  1.30000000E+00
  1.70000000E+00  1.30000000E+00  1.70000000E+00  1.30000000E+00  1.70000000E+00
  1.70000000E+00  1.50000000E+00  1.50000000E+00  1.70000000E+00  1.30000000E+00
  1.30000000E+00  1.70000000E+00  1.30000000E+00  1.30000000E+00  1.70000000E+00
  1.30000000E+00  1.30000000E+00  1.70000000E+00  1.30000000E+00  1.30000000E+00
  1.50000000E+00  1.70000000E+00  1.50000000E+00  1.70000000E+00  1.70000000E+00
  1.70000000E+00  1.30000000E+00  1.30000000E+00  1.70000000E+00  1.30000000E+00
  1.70000000E+00  1.30000000E+00  1.70000000E+00  1.70000000E+00  1.50000000E+00
  1.50000000E+00  1.70000000E+00  1.30000000E+00  1.30000000E+00  1.70000000E+00
  1.30000000E+00  1.30000000E+00  1.70000000E+00  1.30000000E+00  1.30000000E+00
  1.70000000E+00  1.30000000E+00  1.30000000E+00  1.50000000E+00  1.70000000E+00
  1.50000000E+00  1.70000000E+00  1.70000000E+00  1.70000000E+00  1.30000000E+00
  1.30000000E+00  1.70000000E+00  1.30000000E+00  1.70000000E+00  1.30000000E+00
  1.70000000E+00  1.70000000E+00  1.50000000E+00  1.50000000E+00  1.70000000E+00
  1.30000000E+00  1.30000000E+00  1.70000000E+00  1.30000000E+00  1.30000000E+00
  1.70000000E+00  1.30000000E+00  1.30000000E+00  1.70000000E+00  1.30000000E+00
  1.30000000E+00  1.50000000E+00  1.70000000E+00  1.50000000E+00  1.70000000E+00
  1.70000000E+00  1.70000000E+00  1.30000000E+00  1.30000000E+00  1.70000000E+00
  1.30000000E+00  1.70000000E+00  1.30000000E+00  1.70000000E+00  1.70000000E+00
  1.50000000E+00  1.50000000E+00  1.70000000E+00  1.30000000E+00  1.30000000E+00
  1.70000000E+00  1.30000000E+00  1.30000000E+00  1.70000000E+00  1.30000000E+00
  1.30000000E+00  1.70000000E+00  1.30000000E+00  1.30000000E+00  1.50000000E+00
  1.70000000E+00  1.50000000E+00  1.70000000E+00  1.70000000E+00  1.70000000E+00
  1.30000000E+00  1.30000000E+00  1.70000000E+00  1.30000000E+00  1.70000000E+00
  1.30000000E+00  1.70000000E+00  1.70000000E+00  1.50000000E+00  1.50000000E+00
  1.70000000E+00  1.30000000E+00  1.30000000E+00  1.70000000E+00  1.30000000E+00
  1.30000000E+00  1.70000000E+00  1.30000000E+00  1.30000000E+00  1.70000000E+00
  1.30000000E+00  1.30000000E+00  1.50000000E+00  1.70000000E+00  1.50000000E+00
  1.70000000E+00  1.70000000E+00  1.70000000E+00  1.30000000E+00  1.30000000E+00
  1.70000000E+00  1.30000000E+00  1.70000000E+00  1.30000000E+00  1.70000000E+00
  1.70000000E+00  1.50000000E+00  1.50000000E+00  1.70000000E+00  1.30000000E+00
  1.30000000E+00  1.70000000E+00  1.30000000E+00  1.30000000E+00  1.70000000E+00
  1.30000000E+00  1.30000000E+00  1.70000000E+00  1.30000000E+00  1.30000000E+00
  1.50000000E+00  1.70000000E+00  1.50000000E+00  1.70000000E+00  1.70000000E+00
  1.70000000E+00  1.30000000E+00  1.30000000E+00  1.70000000E+00  1.30000000E+00
  1.70000000E+00  1.30000000E+00  1.70000000E+00  1.70000000E+00  1.50000000E+00
  1.50000000E+00  1.70000000E+00  1.30000000E+00  1.30000000E+00  1.70000000E+00
  1.30000000E+00  1.30000000E+00  1.70000000E+00  1.30000000E+00  1.30000000E+00
  1.70000000E+00  1.30000000E+00  1.30000000E+00  1.50000000E+00  1.70000000E+00
  1.50000000E+00  1.70000000E+00  1.70000000E+00  1.70000000E+00  1.30000000E+00
  1.30000000E+00  1.70000000E+00  1.30000000E+00  1.70000000E+00  1.30000000E+00
  1.70000000E+00  1.70000000E+00  1.50000000E+00  1.50000000E+00  1.70000000E+00
  1.30000000E+00  1.30000000E+00  1.70000000E+00  1.30000000E+00  1.30000000E+00
  1.70000000E+00  1.30000000E+00  1.30000000E+00  1.70000000E+00  1.30000000E+00
  1.30000000E+00  1.50000000E+00  1.70000000E+00  1.50000000E+00  1.70000000E+00
  1.70000000E+00  1.70000000E+00  1.30000000E+00  1.30000000E+00  1.70000000E+00
  1.30000000E+00  1.70000000E+00  1.30000000E+00  1.70000000E+00  1.70000000E+00
  1.50000000E+00  1.50000000E+00  1.70000000E+00  1.30000000E+00  1.30000000E+00
  1.70000000E+00  1.30000000E+00  1.30000000E+00  1.70000000E+00  1.30000000E+00
  1.30000000E+00  1.70000000E+00  1.30000000E+00  1.30000000E+00  1.50000000E+00
  1.70000000E+00  1.50000000E+00  1.70000000E+00  1.70000000E+00  1.70000000E+00
  1.30000000E+00  1.30000000E+00  1.70000000E+00  1.30000000E+00  1.70000000E+00
  1.30000000E+00  1.70000000E+00  1.70000000E+00  1.50000000E+00  1.50000000E+00
  1.70000000E+00  1.30000000E+00  1.30000000E+00  1.70000000E+00  1.30000000E+00
  1.30000000E+00  1.70000000E+00  1.30000000E+00  1.30000000E+00  1.70000000E+00
  1.30000000E+00  1.30000000E+00  1.50000000E+00  1.70000000E+00  1.50000000E+00
  1.70000000E+00  1.70000000E+00  1.70000000E+00  1.30000000E+00  1.30000000E+00
  1.70000000E+00  1.30000000E+00  1.70000000E+00  1.30000000E+00  1.70000000E+00
  1.70000000E+00  1.50000000E+00  1.50000000E+00  1.70000000E+00  1.30000000E+00
  1.30000000E+00  1.70000000E+00  1.30000000E+00  1.30000000E+00  1.70000000E+00
  1.30000000E+00  1.30000000E+00  1.70000000E+00  1.30000000E+00  1.30000000E+00
  1.50000000E+00  1.70000000E+00  1.50000000E+00  1.70000000E+00  1.70000000E+00
  1.70000000E+00  1.30000000E+00  1.30000000E+00  1.70000000E+00  1.30000000E+00
  1.70000000E+00  1.30000000E+00  1.70000000E+00  1.70000000E+00  1.50000000E+00
  1.50000000E+00  1.70000000E+00  1.30000000E+00  1.30000000E+00  1.70000000E+00
  1.30000000E+00  1.30000000E+00  1.70000000E+00  1.30000000E+00  1.30000000E+00
%FLAG SCREEN                                                                    
%FORMAT(5E16.8)                                                                 
  7.20000000E-01  8.50000000E-01  8.50000000E-01  8.50000000E-01  7.20000000E-01
  8.50000000E-01  8.50000000E-01  7.20000000E-01  8.50000000E-01  8.50000000E-01
  8.50000000E-01  7.20000000E-01  8.50000000E-01  8.50000000E-01  7.20000000E-01
  8.50000000E-01  8.50000000E-01  8.50000000E-01  7.20000000E-01  8.50000000E-01
  8.50000000E-01  7.20000000E-01  8.50000000E-01  8.50000000E-01  8.50000000E-01
  7.20000000E-01  8.50000000E-01  8.50000000E-01  7.20000000E-01  8.50000000E-01
  8.50000000E-01  8.50000000E-01  7.20000000E-01  8.50000000E-01  8.50000000E-01
  7.20000000E-01  8.50000000E-01  8.50000000E-01  8.50000000E-01  7.20000000E-01
  8.50000000E-01  8.50000000E-01  7.20000000E-01  8.50000000E-01  8.50000000E-01
  8.50000000E-01  7.20000000E-01  8.50000000E-01  8.50000000E-01  7.20000000E-01
  8.50000000E-01  8.50000000E-01  8.50000000E-01  7.20000000E-01  8.50000000E-01
  8.50000000E-01  7.20000000E-01  8.50000000E-01  8.50000000E-01  8.50000000E-01
  7.20000000E-01  8.50000000E-01  8.50000000E-01  7.20000000E-01  8.50000000E-01
  8.50000000E-01  8.50000000E-01  7.20000000E-01  8.50000000E-01  8.50000000E-01
  7.20000000E-01  8.50000000E-01  8.50000000E-01  8.50000000E-01  7.20000000E-01
  8.50000000E-01  8.50000000E-01  7.20000000E-01  8.50000000E-01  8.50000000E-01
  8.50000000E-01  7.20000000E-01  8.50000000E-01  8.50000000E-01  7.20000000E-01
  8.50000000E-01  8.50000000E-01  8.50000000E-01  7.20000000E-01  8.50000000E-01
  8.50000000E-01  7.20000000E-01  8.50000000E-01  8.50000000E-01  8.50000000E-01
  7.20000000E-01  8.50000000E-01  8.50000000E-01  7.20000000E-01  8.50000000E-01
  8.50000000E-01  8.50000000E-01  7.20000000E-01  8.50000000E-01  8.50000000E-01
  7.20000000E-01  8.50000000E-01  8.50000000E-01  8.50000000E-01  7.20000000E-01
  8.50000000E-01  8.50000000E-01  7.20000000E-01  8.50000000E-01  8.50000000E-01
  8.50000000E-01  7.20000000E-01  8.50000000E-01  8.50000000E-01  7.20000000E-01
  8.50000000E-01  8.50000000E-01  8.50000000E-01  7.20000000E-01  8.50000000E-01
  8.50000000E-01  7.20000000E-01  8.50000000E-01  8.50000000E-01  8.50000000E-01
  7.20000000E-01  8.50000000E-01  8.50000000E-01  7.20000000E-01  8.50000000E-01
  8.50000000E-01  8.50000000E-01  7.20000000E-01  8.50000000E-01  8.50000000E-01
  7.20000000E-01  8.50000000E-01  8.50000000E-01  8.50000000E-01  7.20000000E-01
  8.50000000E-01  8.50000000E-01  7.20000000E-01  8.50000000E-01  8.50000000E-01
  8.50000000E-01  7.20000000E-01  8.50000000E-01  8.50000000E-01  7.20000000E-01
  8.50000000E-01  8.50000000E-01  8.50000000E-01  7.20000000E-01  8.50000000E-01
  8.50000000E-01  7.20000000E-01  8.50000000E-01  8.50000000E-01  8.50000000E-01
  7.20000000E-01  8.50000000E-01  8.50000000E-01  7.20000000E-01  8.50000000E-01
  8.50000000E-01  8.50000000E-01  7.20000000E-01  8.50000000E-01  8.50000000E-01
  7.20000000E-01  8.50000000E-01  8.50000000E-01  8.50000000E-01  7.20000000E-01
  8.50000000E-01  7.20000000E-01  7.20000000E-01  7.20000000E-01  8.50000000E-01
  8.50000000E-01  7.20000000E-01  8.50000000E-01  7.20000000E-01  8.50000000E-01
  7.20000000E-01  7.20000000E-01  8.50000000E-01  8.50000000E-01  7.20000000E-01
  8.50000000E-01  8.50000000E-01  7.20000000E-01  8.50000000E-01  8.50000000E-01
  7.20000000E-01  8.50000000E-01  8.50000000E-01  7.20000000E-01  8.50000000E-01
  8.50000000E-01  8.50000000E-01  7.20000000E-01  8.50000000E-01  7.20000000E-01
  7.20000000E-01  7.20000000E-01  8.50000000E-01  8.50000000E-01  7.20000000E-01
  8.50000000E-01  7.20000000E-01  8.50000000E-01  7.20000000E-01  7.20000000E-01
  8.50000000E-01  8.50000000E-01  7.20000000E-01  8.50000000E-01  8.50000000E-01
  7.20000000E-01  8.50000000E-01  8.50000000E-01  7.20000000E-01  8.50000000E-01
  8.50000000E-01  7.20000000E-01  8.50000000E-01  8.50000000E-01  8.50000000E-01
  7.20000000E-01  8.50000000E-01  7.20000000E-01  7.20000000E-01  7.20000000E-01
  8.50000000E-01  8.50000000E-01  7.20000000E-01  8.50000000E-01  7.20000000E-01
  8.50000000E-01  7.20000000E-01  7.20000000E-01  8.50000000E-01  8.50000000E-01
  7.20000000E-01  8.50000000E-01  8.50000000E-01  7.20000000E-01  8.50000000E-01
  8.50000000E-01  7.20000000E-01  8.50000000E-01  8.50000000E-01  7.20000000E-01
  8.50000000E-01  8.50000000E-01  8.50000000E-01  7.20000000E-01  8.50000000E-01
  7.20000000E-01  7.20000000E-01  7.20000000E-01  8.50000000E-01  8.50000000E-01
  7.20000000E-01  8.50000000E-01  7.20000000E-01  8.50000000E-01  7.20000000E-01
  7.20000000E-01  8.50000000E-01  8.50000000E-01  7.20000000E-01  8.50000000E-01
  8.50000000E-01  7.20000000E-01  8.50000000E-01  8.50000000E-01  7.20000000E-01
  8.50000000E-01  8.50000000E-01  7.20000000E-01  8.50000000E-01  8.50000000E-01
  8.50000000E-01  7.20000000E-01  8.50000000E-01  7.20000000E-01  7.20000000E-01
  7.20000000E-01  8.50000000E-01  8.50000000E-01  7.20000000E-01  8.50000000E-01
  7.20000000E-01  8.50000000E-01  7.20000000E-01  7.20000000E-01  8.50000000E-01
  8.50000000E-01  7.20000000E-01  8.50000000E-01  8.50000000E-01  7.20000000E-01
  8.50000000E-01  8.50000000E-01  7.20000000E-01  8.50000000E-01  8.50000000E-01
  7.20000000E-01  8.50000000E-01  8.50000000E-01  8.50000000E-01  7.20000000E-01
  8.50000000E-01  7.20000000E-01  7.20000000E-01  7.20000000E-01  8.50000000E-01
  8.50000000E-01  7.20000000E-01  8.50000000E-01  7.20000000E-01  8.50000000E-01
  7.20000000E-01  7.20000000E-01  8.50000000E-01  8.50000000E-01  7.20000000E-01
  8.50000000E-01  8.50000000E-01  7.20000000E-01  8.50000000E-01  8.50000000E-01
  7.20000000E-01  8.50000000E-01  8.50000000E-01  7.20000000E-01  8.50000000E-01
  8.50000000E-01  8.50000000E-01  7.20000000E-01  8.50000000E-01  7.20000000E-01
  7.20000000E-01  7.20000000E-01  8.50000000E-01  8.50000000E-01  7.20000000E-01
  8.50000000E-01  7.20000000E-01  8.50000000E-01  7.20000000E-01  7.20000000E-01
  8.50000000E-01  8.50000000E-01  7.20000000E-01  8.50000000E-01  8.50000000E-01
  7.20000000E-01  8.50000000E-01  8.50000000E-01  7.20000000E-01  8.50000000E-01
  8.50000000E-01  7.20000000E-01  8.50000000E-01  8.50000000E-01  8.50000000E-01
  7.20000000E-01  8.50000000E-01  7.20000000E-01  7.20000000E-01  7.20000000E-01
  8.50000000E-01  8.50000000E-01  7.20000000E-01  8.50000000E-01  7.20000000E-01
  8.50000000E-01  7.20000000E-01  7.20000000E-01  8.50000000E-01  8.50000000E-01
  7.20000000E-01  8.50000000E-01  8.50000000E-01  7.20000000E-01  8.50000000E-01
  8.50000000E-01  7.20000000E-01  8.50000000E-01  8.50000000E-01  7.20000000E-01
  8.50000000E-01  8.50000000E-01  8.50000000E-01  7.20000000E-01  8.50000000E-01
  7.20000000E-01  7.20000000E-01  7.20000000E-01  8.50000000E-01  8.50000000E-01
  7.20000000E-01  8.50000000E-01  7.20000000E-01  8.50000000E-01  7.20000000E-01
  7.20000000E-01  8.50000000E-01  8.50000000E-01  7.20000000E-01  8.50000000E-01
  8.50000000E-01  7.20000000E-01  8.50000000E-01  8.50000000E-01  7.20000000E-01
  8.50000000E-01  8.50000000E-01  7.20000000E-01  8.50000000E-01  8.50000000E-01
  8.50000000E-01  7.20000000E-01  8.50000000E-01  7.20000000E-01  7.20000000E-01
  7.20000000E-01  8.50000000E-01  8.50000000E-01  7.20000000E-01  8.50000000E-01
  7.20000000E-01  8.50000000E-01  7.20000000E-01  7.20000000E-01  8.50000000E-01
  8.50000000E-01  7.20000000E-01  8.50000000E-01  8.50000000E-01  7.20000000E-01
  8.50000000E-01  8.50000000E-01  7.20000000E-01  8.50000000E-01  8.50000000E-01
  7.20000000E-01  8.50000000E-01  8.50000000E-01  8.50000000E-01  7.20000000E-01
  8.50000000E-01  7.20000000E-01  7.20000000E-01  7.20000000E-01  8.50000000E-01
  8.50000000E-01  7.20000000E-01  8.50000000E-01  7.20000000E-01  8.50000000E-01
  7.20000000E-01  7.20000000E-01  8.50000000E-01  8.50000000E-01  7.20000000E-01
  8.50000000E-01  8.50000000E-01  7.20000000E-01  8.50000000E-01  8.50000000E-01
  7.20000000E-01  8.50000000E-01  8.50000000E-01  7.20000000E-01  8.50000000E-01
  8.50000000E-01  8.50000000E-01  7.20000000E-01  8.50000000E-01  7.20000000E-01
  7.20000000E-01  7.20000000E-01  8.50000000E-01  8.50000000E-01  7.20000000E-01
  8.50000000E-01  7.20000000E-01  8.50000000E-01  7.20000000E-01  7.20000000E-01
  8.50000000E-01  8.50000000E-01  7.20000000E-01  8.50000000E-01  8.50000000E-01
  7.20000000E-01  8.50000000E-01  8.50000000E-01  7.20000000E-01  8.50000000E-01
  8.50000000E-01  7.20000000E-01  8.50000000E-01  8.50000000E-01  8.50000000E-01
  7.20000000E-01  8.50000000E-01  7.20000000E-01  7.20000000E-01  7.20000000E-01
  8.50000000E-01  8.50000000E-01  7.20000000E-01  8.50000000E-01  7.20000000E-01
  8.50000000E-01  7.20000000E-01  7.20000000E-01  8.50000000E-01  8.50000000E-01
  7.20000000E-01  8.50000000E-01  8.50000000E-01  7.20000000E-01  8.50000000E-01
  8.50000000E-01  7.20000000E-01  8.50000000E-01  8.50000000E-01  7.20000000E-01
  8.50000000E-01  8.50000000E-01  8.50000000E-01  7.20000000E-01  8.50000000E-01
  7.20000000E-01  7.20000000E-01  7.20000000E-01  8.50000000E-01  8.50000000E-01
  7.20000000E-01  8.50000000E-01  7.20000000E-01  8.50000000E-01  7.20000000E-01
  7.20000000E-01  8.50000000E-01  8.50000000E-01  7.20000000E-01  8.50000000E-01
  8.50000000E-01  7.20000000E-01  8.50000000E-01  8.50000000E-01  7.20000000E-01
  8.50000000E-01  8.50000000E-01  7.20000000E-01  8.50000000E-01  8.50000000E-01
  8.50000000E-01  7.20000000E-01  8.50000000E-01  7.20000000E-01  7.20000000E-01
  7.20000000E-01  8.50000000E-01  8.50000000E-01  7.20000000E-01  8.50000000E-01
  7.20000000E-01  8.50000000E-01  7.20000000E-01  7.20000000E-01  8.50000000E-01
  8.50000000E-01  7.20000000E-01  8.50000000E-01  8.50000000E-01  7.20000000E-01
  8.50000000E-01  8.50000000E-01  7.20000000E-01  8.50000000E-01  8.50000000E-01
  7.20000000E-01  8.50000000E-01  8.50000000E-01  8.50000000E-01  7.20000000E-01
  8.50000000E-01  7.20000000E-01  7.20000000E-01  7.20000000E-01  8.50000000E-01
  8.50000000E-01  7.20000000E-01  8.50000000E-01  7.20000000E-01  8.50000000E-01
  7.20000000E-01  7.20000000E-01  8.50000000E-01  8.50000000E-01  7.20000000E-01
  8.50000000E-01  8.50000000E-01  7.20000000E-01  8.50000000E-01  8.50000000E-01
  7.20000000E-01  8.50000000E-01  8.50000000E-01  7.20000000E-01  8.50000000E-01
  8.50000000E-01  8.50000000E-01  7.20000000E-01  8.50000000E-01  7.20000000E-01
  7.20000000E-01  7.20000000E-01  8.50000000E-01  8.50000000E-01  7.20000000E-01
  8.50000000E-01  7.20000000E-01  8.50000000E-01  7.20000000E-01  7.20000000E-01
  8.50000000E-01  8.50000000E-01  7.20000000E-01  8.50000000E-01  8.50000000E-01
  7.20000000E-01  8.50000000E-01  8.50000000E-01  7.20000000E-01  8.50000000E-01
  8.50000000E-01  7.20000000E-01  8.50000000E-01  8.50000000E-01  8.50000000E-01
  7.20000000E-01  8.50000000E-01  7.20000000E-01  7.20000000E-01  7.20000000E-01
  8.50000000E-01  8.50000000E-01  7.20000000E-01  8.50000000E-01  7.20000000E-01
  8.50000000E-01  7.20000000E-01  7.20000000E-01  8.50000000E-01  8.50000000E-01
  7.20000000E-01  8.50000000E-01  8.50000000E-01  7.20000000E-01  8.50000000E-01
  8.50000000E-01  7.20000000E-01  8.50000000E-01  8.50000000E-01  7.20000000E-01
  8.50000000E-01  8.50000000E-01  8.50000000E-01  7.20000000E-01  8.50000000E-01
  7.20000000E-01  7.20000000E-01  7.20000000E-01  8.50000000E-01  8.50000000E-01
  7.20000000E-01  8.50000000E-01  7.20000000E-01  8.50000000E-01  7.20000000E-01
  7.20000000E-01  8.50000000E-01  8.50000000E-01  7.20000000E-01  8.50000000E-01
  8.50000000E-01  7.20000000E-01  8.50000000E-01  8.50000000E-01  7.20000000E-01
  8.50000000E-01  8.50000000E-01  7.20000000E-01  8.50000000E-01  8.50000000E-01
  8.50000000E-01  7.20000000E-01  8.50000000E-01  7.20000000E-01  7.20000000E-01
  7.20000000E-01  8.50000000E-01  8.50000000E-01  7.20000000E-01  8.50000000E-01
  7.20000000E-01  8.50000000E-01  7.20000000E-01  7.20000000E-01  8.50000000E-01
  8.50000000E-01  7.20000000E-01  8.50000000E-01  8.50000000E-01  7.20000000E-01
  8.50000000E-01  8.50000000E-01  7.20000000E-01  8.50000000E-01  8.50000000E-01
  7.20000000E-01  8.50000000E-01  8.50000000E-01  8.50000000E-01  7.20000000E-01
  8.50000000E-01  7.20000000E-01  7.20000000E-01  7.20000000E-01  8.50000000E-01
  8.50000000E-01  7.20000000E-01  8.50000000E-01  7.20000000E-01  8.50000000E-01
  7.20000000E-01  7.20000000E-01  8.50000000E-01  8.50000000E-01  7.20000000E-01
  8.50000000E-01  8.50000000E-01  7.20000000E-01  8.50000000E-01  8.50000000E-01
  7.20000000E-01  8.50000000E-01  8.50000000E-01  7.20000000E-01  8.50000000E-01
  8.50000000E-01  8.50000000E-01  7.20000000E-01  8.50000000E-01  7.20000000E-01
  7.20000000E-01  7.20000000E-01  8.50000000E-01  8.50000000E-01  7.20000000E-01
  8.50000000E-01  7.20000000E-01  8.50000000E-01  7.20000000E-01  7.20000000E-01
  8.50000000E-01  8.50000000E-01  7.20000000E-01  8.50000000E-01  8.50000000E-01
  7.20000000E-01  8.50000000E-01  8.50000000E-01  7.20000000E-01  8.50000000E-01
  8.50000000E-01  7.20000000E-01  8.50000000E-01  8.50000000E-01  8.50000000E-01
  7.20000000E-01  8.50000000E-01  7.20000000E-01  7.20000000E-01  7.20000000E-01
  8.50000000E-01  8.50000000E-01  7.20000000E-01  8.50000000E-01  7.20000000E-01
  8.50000000E-01  7.20000000E-01  7.20000000E-01  8.50000000E-01  8.50000000E-01
  7.20000000E-01  8.50000000E-01  8.50000000E-01  7.20000000E-01  8.50000000E-01
  8.50000000E-01  7.20000000E-01  8.50000000E-01  8.50000000E-01  7.20000000E-01
  8.50000000E-01  8.50000000E-01  8.50000000E-01  7.20000000E-01  8.50000000E-01
  7.20000000E-01  7.20000000E-01  7.20000000E-01  8.50000000E-01  8.50000000E-01
  7.20000000E-01  8.50000000E-01  7.20000000E-01  8.50000000E-01  7.20000000E-01
  7.20000000E-01  8.50000000E-01  8.50000000E-01  7.20000000E-01  8.50000000E-01
  8.50000000E-01  7.20000000E-01  8.50000000E-01  8.50000000E-01  7.20000000E-01
  8.50000000E-01  8.50000000E-01  7.20000000E-01  8.50000000E-01  8.50000000E-01
  8.50000000E-01  7.20000000E-01  8.50000000E-01  7.20000000E-01  7.20000000E-01
  7.20000000E-01  8.50000000E-01  8.50000000E-01  7.20000000E-01  8.50000000E-01
  7.20000000E-01  8.50000000E-01  7.20000000E-01  7.20000000E-01  8.50000000E-01
  8.50000000E-01  7.20000000E-01  8.50000000E-01  8.50000000E-01  7.20000000E-01
  8.50000000E-01  8.50000000E-01  7.20000000E-01  8.50000000E-01  8.50000000E-01
%FLAG IPOL                                                                      
%FORMAT(1I8)                                                                    
       0
