GROningen MAchine for Chemical Simulation
  875
    1PEO     C1    1   0.354   0.142   0.000
    1PEO     H3    2   0.390   0.091  -0.090
    1PEO     H4    3   0.390   0.089   0.089
    1PEO      O    4   0.403   0.276   0.002
    1PEO     C2    5   0.545   0.279   0.002
    1PEO     H5    6   0.584   0.229  -0.087
    1PEO     H6    7   0.584   0.227   0.090
    1PEO     C3    8   0.592   0.424   0.004
    1PEO     H7    9   0.554   0.475   0.093
    1PEO     H8   10   0.554   0.477  -0.084
    1PEO     O1   11   0.735   0.426   0.004
    1PEO     C4   12   0.785   0.560   0.006
    1PEO     H9   13   0.749   0.612   0.095
    1PEO    H10   14   0.749   0.614  -0.082
    1PEO     C5   15   0.937   0.556   0.006
    1PEO    H11   16   0.973   0.503  -0.083
    1PEO    H12   17   0.973   0.501   0.094
    1PEO     O2   18   0.986   0.690   0.008
    1PEO     C6   19   1.129   0.692   0.008
    1PEO    H13   20   1.168   0.641  -0.081
    1PEO    H14   21   1.167   0.639   0.096
    1PEO     C7   22   1.176   0.836   0.010
    1PEO    H15   23   1.137   0.887   0.099
    1PEO    H16   24   1.138   0.889  -0.078
    1PEO     O3   25   1.319   0.839   0.010
    1PEO     C8   26   1.368   0.972   0.012
    1PEO    H17   27   1.332   1.025   0.101
    1PEO    H18   28   1.332   1.027  -0.076
    1PEO     C9   29   1.520   0.969   0.012
    1PEO    H19   30   1.556   0.916  -0.077
    1PEO    H20   31   1.556   0.914   0.100
    1PEO     O4   32   1.571   1.102   0.014
    1PEO    C10   33   1.713   1.103   0.014
    1PEO    H21   34   1.751   1.053  -0.076
    1PEO    H22   35   1.750   1.051   0.102
    2PEO     C1   36   1.758   1.250   0.015
    2PEO     H3   37   1.720   1.299   0.105
    2PEO     H4   38   1.720   1.301  -0.073
    2PEO      O   39   1.901   1.251   0.015
    2PEO     C2   40   1.951   1.385   0.018
    2PEO     H5   41   1.915   1.437   0.108
    2PEO     H6   42   1.915   1.440  -0.069
    2PEO     C3   43   2.103   1.381   0.018
    2PEO     H7   44   2.140   1.330  -0.072
    2PEO     H8   45   2.140   1.326   0.106
    2PEO     O1   46   2.153   1.515   0.021
    2PEO     C4   47   2.295   1.518   0.021
    2PEO     H9   48   2.334   1.468  -0.069
    2PEO    H10   49   2.334   1.464   0.108
    2PEO     C5   50   2.342   1.662   0.024
    2PEO    H11   51   2.304   1.712   0.114
    2PEO    H12   52   2.303   1.716  -0.064
    2PEO     O2   53   2.485   1.665   0.024
    2PEO     C6   54   2.534   1.799   0.026
    2PEO    H13   55   2.498   1.850   0.116
    2PEO    H14   56   2.498   1.854  -0.061
    2PEO     C7   57   2.686   1.795   0.026
    2PEO    H15   58   2.722   1.744  -0.063
    2PEO    H16   59   2.722   1.740   0.114
    2PEO     O3   60   2.735   1.929   0.029
    2PEO     C8   61   2.878   1.931   0.029
    2PEO    H17   62   2.916   1.881  -0.061
    2PEO    H18   63   2.917   1.877   0.116
    2PEO     C9   64   2.925   2.076   0.032
    2PEO    H19   65   2.886   2.125   0.122
    2PEO    H20   66   2.886   2.129  -0.055
    2PEO     O4   67   3.067   2.079   0.032
    2PEO    C10   68   3.116   2.213   0.035
    2PEO    H21   69   3.080   2.264   0.126
    2PEO    H22   70   3.080   2.268  -0.053
    3PEO     C1   71   3.269   2.207   0.035
    3PEO     H3   72   3.304   2.156  -0.055
    3PEO     H4   73   3.304   2.152   0.123
    3PEO      O   74   3.318   2.341   0.038
    3PEO     C2   75   3.460   2.345   0.037
    3PEO     H5   76   3.499   2.295  -0.053
    3PEO     H6   77   3.500   2.291   0.124
    3PEO     C3   78   3.508   2.489   0.041
    3PEO     H7   79   3.470   2.539   0.131
    3PEO     H8   80   3.469   2.544  -0.046
    3PEO     O1   81   3.650   2.491   0.039
    3PEO     C4   82   3.700   2.625   0.043
    3PEO     H9   83   3.665   2.676   0.133
    3PEO    H10   84   3.663   2.681  -0.044
    3PEO     C5   85   3.852   2.621   0.041
    3PEO    H11   86   3.887   2.570  -0.049
    3PEO    H12   87   3.889   2.565   0.128
    3PEO     O2   88   3.902   2.755   0.044
    3PEO     C6   89   4.044   2.757   0.043
    3PEO    H13   90   4.082   2.708  -0.047
    3PEO    H14   91   4.084   2.703   0.130
    3PEO     C7   92   4.091   2.902   0.047
    3PEO    H15   93   4.054   2.951   0.137
    3PEO    H16   94   4.052   2.956  -0.040
    3PEO     O3   95   4.234   2.904   0.045
    3PEO     C8   96   4.283   3.038   0.049
    3PEO    H17   97   4.248   3.089   0.139
    3PEO    H18   98   4.246   3.094  -0.038
    3PEO     C9   99   4.435   3.034   0.047
    3PEO    H19  100   4.470   2.983  -0.044
    3PEO    H20  101   4.472   2.978   0.133
    3PEO     O4  102   4.486   3.167   0.050
    3PEO    C10  103   4.629   3.169   0.049
    3PEO    H21  104   4.665   3.120  -0.042
    3PEO    H22  105   4.667   3.115   0.136
    4PEO     C1  106   4.674   3.315   0.052
    4PEO     H3  107   4.636   3.363   0.143
    4PEO     H4  108   4.634   3.368  -0.035
    4PEO      O  109   4.816   3.317   0.051
    4PEO     C2  110   4.867   3.450   0.055
    4PEO     H5  111   4.832   3.501   0.146
    4PEO     H6  112   4.830   3.507  -0.031
    4PEO     C3  113   5.019   3.447   0.053
    4PEO     H7  114   5.054   3.396  -0.038
    4PEO     H8  115   5.056   3.390   0.139
    4PEO     O1  116   5.068   3.581   0.057
    4PEO     C4  117   5.210   3.583   0.056
    4PEO     H9  118   5.248   3.535  -0.035
    4PEO    H10  119   5.250   3.528   0.142
    4PEO     C5  120   5.257   3.728   0.061
    4PEO    H11  121   5.220   3.776   0.152
    4PEO    H12  122   5.218   3.783  -0.026
    4PEO     O2  123   5.400   3.730   0.059
    4PEO     C6  124   5.449   3.864   0.063
    4PEO    H13  125   5.414   3.914   0.154
    4PEO    H14  126   5.412   3.921  -0.023
    4PEO     C7  127   5.601   3.861   0.062
    4PEO    H15  128   5.636   3.810  -0.029
    4PEO    H16  129   5.638   3.804   0.148
    4PEO     O3  130   5.651   3.994   0.066
    4PEO     C8  131   5.793   3.997   0.064
    4PEO    H17  132   5.831   3.948  -0.027
    4PEO    H18  133   5.833   3.941   0.150
    4PEO     C9  134   5.840   4.141   0.069
    4PEO    H19  135   5.802   4.189   0.160
    4PEO    H20  136   5.800   4.196  -0.017
    4PEO     O4  137   5.983   4.145   0.068
    4PEO    C10  138   6.031   4.279   0.072
    4PEO    H21  139   5.996   4.328   0.164
    4PEO    H22  140   5.994   4.334  -0.015
    5PEO     C1  141   6.185   4.273   0.070
    5PEO     H3  142   6.218   4.223  -0.021
    5PEO     H4  143   6.220   4.216   0.157
    5PEO      O  144   6.233   4.407   0.075
    5PEO     C2  145   6.376   4.410   0.072
    5PEO     H5  146   6.413   4.362  -0.019
    5PEO     H6  147   6.416   4.355   0.158
    5PEO     C3  148   6.423   4.555   0.077
    5PEO     H7  149   6.386   4.603   0.169
    5PEO     H8  150   6.383   4.610  -0.008
    5PEO     O1  151   6.566   4.557   0.075
    5PEO     C4  152   6.615   4.690   0.079
    5PEO     H9  153   6.581   4.740   0.171
    5PEO    H10  154   6.578   4.748  -0.006
    5PEO     C5  155   6.767   4.687   0.076
    5PEO    H11  156   6.802   4.637  -0.015
    5PEO    H12  157   6.805   4.629   0.162
    5PEO     O2  158   6.817   4.820   0.081
    5PEO     C6  159   6.959   4.822   0.078
    5PEO    H13  160   6.996   4.774  -0.013
    5PEO    H14  161   7.000   4.767   0.164
    5PEO     C7  162   7.007   4.967   0.083
    5PEO    H15  163   6.970   5.015   0.175
    5PEO    H16  164   6.966   5.022  -0.002
    5PEO     O3  165   7.149   4.969   0.081
    5PEO     C8  166   7.199   5.103   0.085
    5PEO    H17  167   7.164   5.153   0.177
    5PEO    H18  168   7.161   5.160  -0.000
    5PEO     C9  169   7.351   5.099   0.082
    5PEO    H19  170   7.385   5.050  -0.010
    5PEO    H20  171   7.388   5.042   0.167
    5PEO     O4  172   7.401   5.233   0.087
    5PEO    C10  173   7.544   5.234   0.084
    5PEO    H21  174   7.579   5.187  -0.008
    5PEO    H22  175   7.583   5.179   0.170
    6PET     C9  176   7.589   5.381   0.089
    6PET     H6  177   7.552   5.427   0.181
    6PET     H7  178   7.549   5.435   0.003
    6PET     O2  179   7.731   5.382   0.086
    6PET     C8  180   7.791   5.313   0.186
    6PET     O1  181   7.736   5.253   0.276
    6PET     C4  182   7.939   5.320   0.168
    6PET     C5  183   7.997   5.392   0.063
    6PET     C6  184   8.135   5.394   0.045
    6PET     H4  185   8.176   5.450  -0.038
    6PET     H3  186   7.935   5.448  -0.008
    6PET     C3  187   8.022   5.251   0.258
    6PET     H2  188   7.979   5.195   0.341
    6PET     C2  189   8.161   5.253   0.240
    6PET     H1  190   8.225   5.198   0.309
    6PET     C1  191   8.218   5.323   0.133
    6PET     C7  192   8.365   5.319   0.113
    6PET     O3  193   8.442   5.260   0.187
    6PET     O4  194   8.398   5.390   0.003
    6PET    C10  195   8.537   5.397  -0.030
    6PET     H8  196   8.544   5.424  -0.136
    6PET     H9  197   8.584   5.298  -0.019
    6PET    C11  198   8.609   5.502   0.054
    6PET    H10  199   8.715   5.503   0.028
    6PET    H11  200   8.601   5.476   0.161
    6PET    C12  201   8.549   5.641   0.035
    6PET    H13  202   8.604   5.714   0.095
    6PET    H14  203   8.444   5.644   0.065
    7PET     C9  204   8.555   5.687  -0.112
    7PET     H6  205   8.499   5.618  -0.175
    7PET     H7  206   8.660   5.690  -0.145
    7PET     O2  207   8.498   5.817  -0.118
    7PET     C8  208   8.370   5.826  -0.074
    7PET     O1  209   8.302   5.734  -0.031
    7PET     C4  210   8.325   5.967  -0.082
    7PET     C5  211   8.408   6.068  -0.134
    7PET     C6  212   8.365   6.200  -0.137
    7PET     H4  213   8.433   6.276  -0.176
    7PET     H3  214   8.508   6.045  -0.171
    7PET     C3  215   8.196   6.001  -0.037
    7PET     H2  216   8.130   5.924   0.003
    7PET     C2  217   8.153   6.134  -0.040
    7PET     H1  218   8.054   6.160  -0.003
    7PET     C1  219   8.238   6.235  -0.089
    7PET     C7  220   8.192   6.376  -0.087
    7PET     O3  221   8.082   6.411  -0.047
    7PET     O4  222   8.290   6.456  -0.135
    7PET    C10  223   8.261   6.596  -0.140
    7PET     H8  224   8.357   6.648  -0.145
    7PET     H9  225   8.212   6.629  -0.048
    7PET    C11  226   8.178   6.631  -0.263
    7PET    H10  227   8.156   6.738  -0.263
    7PET    H11  228   8.082   6.577  -0.260
    7PET    C12  229   8.249   6.593  -0.393
    7PET    H13  230   8.187   6.621  -0.479
    7PET    H14  231   8.267   6.485  -0.398
    8PET     C9  232   8.384   6.663  -0.408
    8PET     H6  233   8.450   6.635  -0.325
    8PET     H7  234   8.370   6.771  -0.408
    8PET     O2  235   8.441   6.620  -0.532
    8PET     C8  236   8.458   6.486  -0.544
    8PET     O1  237   8.431   6.402  -0.460
    8PET     C4  238   8.514   6.456  -0.679
    8PET     C5  239   8.544   6.559  -0.770
    8PET     C6  240   8.592   6.528  -0.897
    8PET     H4  241   8.613   6.610  -0.965
    8PET     H3  242   8.529   6.663  -0.743
    8PET     C3  243   8.535   6.323  -0.716
    8PET     H2  244   8.512   6.242  -0.646
    8PET     C2  245   8.583   6.292  -0.844
    8PET     H1  246   8.598   6.188  -0.872
    8PET     C1  247   8.610   6.395  -0.935
    8PET     C7  248   8.657   6.359  -1.072
    8PET     O3  249   8.675   6.246  -1.110
    8PET     O4  250   8.674   6.473  -1.145
    8PET    C10  251   8.719   6.456  -1.279
    8PET     H8  252   8.693   6.548  -1.333
    8PET     H9  253   8.665   6.374  -1.328
    8PET    C11  254   8.870   6.435  -1.284
    8PET    H10  255   8.901   6.421  -1.388
    8PET    H11  256   8.897   6.344  -1.229
    8PET    C12  257   8.947   6.552  -1.223
    8PET    H13  258   9.054   6.534  -1.231
    8PET    H14  259   8.922   6.565  -1.118
    9PET     C9  260   8.917   6.685  -1.294
    9PET     H6  261   8.810   6.707  -1.286
    9PET     H7  262   8.945   6.678  -1.399
    9PET     O2  263   8.993   6.786  -1.229
    9PET     C8  264   8.969   6.799  -1.096
    9PET     O1  265   8.890   6.735  -1.030
    9PET     C4  266   9.059   6.905  -1.041
    9PET     C5  267   9.147   6.976  -1.124
    9PET     C6  268   9.233   7.072  -1.070
    9PET     H4  269   9.300   7.124  -1.137
    9PET     H3  270   9.151   6.958  -1.231
    9PET     C3  271   9.056   6.933  -0.904
    9PET     H2  272   8.987   6.879  -0.838
    9PET     C2  273   9.142   7.029  -0.850
    9PET     H1  274   9.139   7.049  -0.742
    9PET     C1  275   9.232   7.098  -0.932
    9PET     C7  276   9.326   7.196  -0.871
    9PET     O3  277   9.328   7.223  -0.753
    9PET     O4  278   9.405   7.248  -0.968
    9PET    C10  279   9.502   7.345  -0.926
    9PET     H8  280   9.579   7.349  -1.003
    9PET     H9  281   9.551   7.313  -0.833
    9PET    C11  282   9.437   7.483  -0.910
    9PET    H10  283   9.513   7.554  -0.876
    9PET    H11  284   9.359   7.479  -0.833
    9PET    C12  285   9.375   7.532  -1.039
    9PET    H13  286   9.332   7.632  -1.025
    9PET    H14  287   9.295   7.466  -1.073
   10PET     C9  288   9.477   7.542  -1.154
   10PET     H6  289   9.520   7.443  -1.173
   10PET     H7  290   9.556   7.612  -1.126
   10PET     O2  291   9.408   7.589  -1.269
   10PET     C8  292   9.303   7.512  -1.309
   10PET     O1  293   9.265   7.409  -1.256
   10PET     C4  294   9.238   7.575  -1.427
   10PET     C5  295   9.288   7.694  -1.483
   10PET     C6  296   9.224   7.754  -1.591
   10PET     H4  297   9.265   7.846  -1.631
   10PET     H3  298   9.377   7.742  -1.443
   10PET     C3  299   9.124   7.516  -1.482
   10PET     H2  300   9.084   7.424  -1.440
   10PET     C2  301   9.059   7.576  -1.591
   10PET     H1  302   8.970   7.530  -1.632
   10PET     C1  303   9.108   7.696  -1.645
   10PET     C7  304   9.034   7.760  -1.757
   10PET     O3  305   8.934   7.714  -1.808
   10PET     O4  306   9.096   7.876  -1.791
   10PET    C10  307   9.038   7.950  -1.898
   10PET     H8  308   9.074   8.053  -1.889
   10PET     H9  309   8.929   7.954  -1.888
   10PET    C11  310   9.079   7.893  -2.034
   10PET    H10  311   9.031   7.951  -2.113
   10PET    H11  312   9.044   7.789  -2.043
   10PET    C12  313   9.230   7.894  -2.053
   10PET    H13  314   9.255   7.854  -2.152
   10PET    H14  315   9.280   7.832  -1.978
   11PET     C9  316   9.290   8.035  -2.043
   11PET     H6  317   9.268   8.077  -1.944
   11PET     H7  318   9.246   8.099  -2.120
   11PET     O2  319   9.430   8.024  -2.062
   11PET     C8  320   9.494   7.942  -1.975
   11PET     O1  321   9.443   7.880  -1.884
   11PET     C4  322   9.639   7.937  -2.010
   11PET     C5  323   9.691   8.012  -2.116
   11PET     C6  324   9.826   8.002  -2.150
   11PET     H4  325   9.863   8.061  -2.233
   11PET     H3  326   9.628   8.078  -2.175
   11PET     C3  327   9.724   7.853  -1.936
   11PET     H2  328   9.685   7.795  -1.853
   11PET     C2  329   9.859   7.844  -1.970
   11PET     H1  330   9.925   7.778  -1.912
   11PET     C1  331   9.911   7.917  -2.078
   11PET     C7  332  10.054   7.901  -2.114
   11PET     O3  333  10.132   7.830  -2.055
   11PET     O4  334  10.081   7.978  -2.223
   11PET    C10  335  10.216   7.974  -2.271
   11PET     H8  336  10.213   8.009  -2.375
   11PET     H9  337  10.253   7.871  -2.273
   11PET    C11  338  10.306   8.066  -2.189
   11PET    H10  339  10.408   8.060  -2.227
   11PET    H11  340  10.308   8.032  -2.084
   11PET    C12  341  10.259   8.210  -2.192
   11PET    H13  342  10.327   8.273  -2.134
   11PET    H14  343  10.159   8.221  -2.149
   12PET     C9  344  10.254   8.268  -2.334
   12PET     H6  345  10.184   8.209  -2.395
   12PET     H7  346  10.353   8.264  -2.379
   12PET     O2  347  10.209   8.403  -2.325
   12PET     C8  348  10.088   8.419  -2.265
   12PET     O1  349  10.016   8.331  -2.222
   12PET     C4  350  10.056   8.564  -2.259
   12PET     C5  351  10.143   8.660  -2.312
   12PET     C6  352  10.114   8.796  -2.301
   12PET     H4  353  10.184   8.868  -2.343
   12PET     H3  354  10.235   8.631  -2.362
   12PET     C3  355   9.938   8.606  -2.196
   12PET     H2  356   9.869   8.532  -2.154
   12PET     C2  357   9.908   8.742  -2.185
   12PET     H1  358   9.816   8.773  -2.135
   12PET     C1  359   9.997   8.838  -2.236
   12PET     C7  360   9.965   8.982  -2.219
   12PET     O3  361   9.865   9.024  -2.164
   12PET     O4  362  10.065   9.057  -2.272
   12PET    C10  363  10.050   9.199  -2.264
   12PET     H8  364  10.150   9.242  -2.276
   12PET     H9  365  10.014   9.228  -2.165
   12PET    C11  366   9.957   9.250  -2.374
   12PET    H10  367   9.946   9.359  -2.364
   12PET    H11  368   9.857   9.206  -2.363
   12PET    C12  369  10.009   9.217  -2.513
   12PET    H13  370   9.941   9.258  -2.589
   12PET    H14  371  10.016   9.109  -2.528
   13PET     C9  372  10.149   9.275  -2.540
   13PET     H6  373  10.220   9.235  -2.467
   13PET     H7  374  10.145   9.384  -2.530
   13PET     O2  375  10.187   9.238  -2.672
   13PET     C8  376  10.189   9.104  -2.695
   13PET     O1  377  10.163   9.016  -2.615
   13PET     C4  378  10.226   9.080  -2.837
   13PET     C5  379  10.256   9.187  -2.924
   13PET     C6  380  10.286   9.162  -3.058
   13PET     H4  381  10.308   9.247  -3.122
   13PET     H3  382  10.255   9.290  -2.889
   13PET     C3  383  10.229   8.949  -2.886
   13PET     H2  384  10.207   8.865  -2.820
   13PET     C2  385  10.260   8.925  -3.021
   13PET     H1  386  10.261   8.822  -3.058
   13PET     C1  387  10.287   9.032  -3.107
   13PET     C7  388  10.314   9.003  -3.251
   13PET     O3  389  10.317   8.892  -3.299
   13PET     O4  390  10.334   9.120  -3.317
   13PET    C10  391  10.363   9.110  -3.457
   13PET     H8  392  10.340   9.208  -3.500
   13PET     H9  393  10.296   9.038  -3.504
   13PET    C11  394  10.509   9.076  -3.481
   13PET    H10  395  10.527   9.068  -3.588
   13PET    H11  396  10.533   8.979  -3.436
   13PET    C12  397  10.603   9.180  -3.421
   13PET    H13  398  10.707   9.153  -3.442
   13PET    H14  399  10.592   9.187  -3.313
   14PET     C9  400  10.579   9.320  -3.478
   14PET     H6  401  10.477   9.352  -3.456
   14PET     H7  402  10.594   9.319  -3.586
   14PET     O2  403  10.672   9.409  -3.416
   14PET     C8  404  10.664   9.413  -3.281
   14PET     O1  405  10.587   9.352  -3.210
   14PET     C4  406  10.769   9.506  -3.229
   14PET     C5  407  10.855   9.575  -3.317
   14PET     C6  408  10.955   9.658  -3.267
   14PET     H4  409  11.020   9.709  -3.337
   14PET     H3  410  10.845   9.565  -3.424
   14PET     C3  411  10.784   9.523  -3.091
   14PET     H2  412  10.719   9.470  -3.022
   14PET     C2  413  10.885   9.606  -3.041
   14PET     H1  414  10.897   9.617  -2.933
   14PET     C1  415  10.972   9.673  -3.128
   14PET     C7  416  11.081   9.757  -3.072
   14PET     O3  417  11.099   9.774  -2.953
   14PET     O4  418  11.154   9.809  -3.173
   14PET    C10  419  11.264   9.893  -3.136
   14PET     H8  420  11.332   9.896  -3.222
   14PET     H9  421  11.320   9.849  -3.053
   14PET    C11  422  11.216  10.034  -3.103
   14PET    H10  423  11.301  10.096  -3.074
   14PET    H11  424  11.146  10.031  -3.019
   14PET    C12  425  11.145  10.100  -3.221
   14PET    H13  426  11.114  10.201  -3.195
   14PET    H14  427  11.055  10.044  -3.250
   15PET     C9  428  11.234  10.109  -3.346
   15PET     H6  429  11.264  10.009  -3.377
   15PET     H7  430  11.322  10.169  -3.323
   15PET     O2  431  11.157  10.172  -3.449
   15PET     C8  432  11.042  10.108  -3.481
   15PET     O1  433  11.000  10.005  -3.432
   15PET     C4  434  10.971  10.186  -3.586
   15PET     C5  435  11.026  10.304  -3.639
   15PET     C6  436  10.956  10.378  -3.734
   15PET     H4  437  11.001  10.469  -3.772
   15PET     H3  438  11.123  10.340  -3.607
   15PET     C3  439  10.846  10.142  -3.631
   15PET     H2  440  10.802  10.050  -3.592
   15PET     C2  441  10.776  10.216  -3.727
   15PET     H1  442  10.678  10.181  -3.761
   15PET     C1  443  10.830  10.335  -3.778
   15PET     C7  444  10.751  10.414  -3.876
   15PET     O3  445  10.642  10.382  -3.918
   15PET     O4  446  10.820  10.526  -3.909
   15PET    C10  447  10.758  10.614  -4.003
   15PET     H8  448  10.805  10.712  -3.991
   15PET     H9  449  10.651  10.627  -3.980
   15PET    C11  450  10.778  10.564  -4.146
   15PET    H10  451  10.728  10.633  -4.216
   15PET    H11  452  10.732  10.466  -4.158
   15PET    C12  453  10.925  10.553  -4.183
   15PET    H13  454  10.935  10.520  -4.287
   15PET    H14  455  10.977  10.481  -4.119
   16PET     C9  456  10.999  10.687  -4.170
   16PET     H6  457  10.993  10.723  -4.067
   16PET     H7  458  10.953  10.761  -4.237
   16PET     O2  459  11.135  10.665  -4.207
   16PET     C8  460  11.199  10.571  -4.133
   16PET     O1  461  11.153  10.507  -4.041
   16PET     C4  462  11.338  10.555  -4.185
   16PET     C5  463  11.386  10.634  -4.291
   16PET     C6  464  11.514  10.614  -4.341
   16PET     H4  465  11.547  10.676  -4.424
   16PET     H3  466  11.323  10.710  -4.338
   16PET     C3  467  11.422  10.459  -4.128
   16PET     H2  468  11.387  10.398  -4.045
   16PET     C2  469  11.552  10.440  -4.178
   16PET     H1  470  11.616  10.364  -4.133
   16PET     C1  471  11.598  10.517  -4.286
   16PET     C7  472  11.734  10.491  -4.340
   16PET     O3  473  11.810  10.408  -4.295
   16PET     O4  474  11.756  10.573  -4.446
   16PET    C10  475  11.884  10.561  -4.510
   16PET     H8  476  11.873  10.604  -4.610
   16PET     H9  477  11.911  10.456  -4.523
   16PET    C11  478  11.991  10.637  -4.432
   16PET    H10  479  12.088  10.625  -4.483
   16PET    H11  480  12.001  10.595  -4.331
   16PET    C12  481  11.959  10.785  -4.420
   16PET    H13  482  12.039  10.837  -4.366
   16PET    H14  483  11.866  10.802  -4.364
   17PET     C9  484  11.943  10.854  -4.556
   17PET     H6  485  11.862  10.807  -4.612
   17PET     H7  486  12.036  10.845  -4.613
   17PET     O2  487  11.914  10.991  -4.532
   17PET     C8  488  11.802  11.014  -4.458
   17PET     O1  489  11.728  10.929  -4.412
   17PET     C4  490  11.786  11.160  -4.437
   17PET     C5  491  11.875  11.252  -4.494
   17PET     C6  492  11.861  11.389  -4.470
   17PET     H4  493  11.933  11.457  -4.514
   17PET     H3  494  11.958  11.219  -4.556
   17PET     C3  495  11.680  11.207  -4.358
   17PET     H2  496  11.609  11.137  -4.314
   17PET     C2  497  11.665  11.344  -4.334
   17PET     H1  498  11.583  11.380  -4.272
   17PET     C1  499  11.757  11.436  -4.389
   17PET     C7  500  11.742  11.580  -4.358
   17PET     O3  501  11.653  11.626  -4.289
   17PET     O4  502  11.842  11.650  -4.417
   17PET    C10  503  11.842  11.792  -4.398
   17PET     H8  504  11.944  11.826  -4.419
   17PET     H9  505  11.821  11.816  -4.293
   17PET    C11  506  11.743  11.860  -4.492
   17PET    H10  507  11.744  11.968  -4.474
   17PET    H11  508  11.642  11.824  -4.473
   17PET    C12  509  11.776  11.833  -4.638
   17PET    H13  510  11.705  11.886  -4.703
   17PET    H14  511  11.770  11.726  -4.662
   18PET     C9  512  11.917  11.880  -4.677
   18PET     H6  513  11.991  11.828  -4.616
   18PET     H7  514  11.925  11.988  -4.660
   18PET     O2  515  11.936  11.850  -4.815
   18PET     C8  516  11.922  11.720  -4.847
   18PET     O1  517  11.897  11.628  -4.772
   18PET     C4  518  11.941  11.704  -4.995
   18PET     C5  519  11.972  11.814  -5.076
   18PET     C6  520  11.984  11.798  -5.214
   18PET     H4  521  12.007  11.885  -5.274
   18PET     H3  522  11.985  11.913  -5.034
   18PET     C3  523  11.926  11.577  -5.052
   18PET     H2  524  11.903  11.491  -4.990
   18PET     C2  525  11.939  11.561  -5.191
   18PET     H1  526  11.926  11.462  -5.235
   18PET     C1  527  11.967  11.672  -5.273
   18PET     C7  528  11.975  11.653  -5.420
   18PET     O3  529  11.962  11.545  -5.475
   18PET     O4  530  11.999  11.772  -5.479
   18PET    C10  531  12.011  11.771  -5.622
   18PET     H8  532  11.993  11.874  -5.656
   18PET     H9  533  11.932  11.709  -5.666
   18PET    C11  534  12.150  11.725  -5.665
   18PET    H10  535  12.155  11.724  -5.775
   18PET    H11  536  12.168  11.623  -5.630
   18PET    C12  537  12.259  11.816  -5.611
   18PET    H13  538  12.357  11.781  -5.646
   18PET    H14  539  12.261  11.815  -5.501
   19PET     C9  540  12.243  11.962  -5.654
   19PET     H6  541  12.147  12.000  -5.618
   19PET     H7  542  12.246  11.968  -5.763
   19PET     O2  543  12.351  12.036  -5.597
   19PET     C8  544  12.359  12.030  -5.462
   19PET     O1  545  12.284  11.970  -5.388
   19PET     C4  546  12.477  12.109  -5.417
   19PET     C5  547  12.559  12.177  -5.509
   19PET     C6  548  12.672  12.246  -5.465
   19PET     H4  549  12.733  12.296  -5.539
   19PET     H3  550  12.536  12.176  -5.615
   19PET     C3  551  12.509  12.113  -5.281
   19PET     H2  552  12.447  12.061  -5.208
   19PET     C2  553  12.623  12.182  -5.237
   19PET     H1  554  12.647  12.184  -5.131
   19PET     C1  555  12.705  12.248  -5.329
   19PET     C7  556  12.828  12.317  -5.281
   19PET     O3  557  12.861  12.322  -5.164
   19PET     O4  558  12.894  12.370  -5.386
   19PET    C10  559  13.015  12.441  -5.356
   19PET     H8  560  13.073  12.445  -5.449
   19PET     H9  561  13.075  12.385  -5.283
   19PET    C11  562  12.985  12.582  -5.308
   19PET    H10  563  13.079  12.633  -5.285
   19PET    H11  564  12.926  12.579  -5.216
   19PET    C12  565  12.908  12.663  -5.412
   19PET    H13  566  12.891  12.765  -5.375
   19PET    H14  567  12.811  12.618  -5.434
   20PET     C9  568  12.984  12.675  -5.545
   20PET     H6  569  13.001  12.575  -5.587
   20PET     H7  570  13.080  12.724  -5.529
   20PET     O2  571  12.903  12.752  -5.634
   20PET     C8  572  12.779  12.702  -5.656
   20PET     O1  573  12.733  12.599  -5.610
   20PET     C4  574  12.705  12.794  -5.747
   20PET     C5  575  12.765  12.910  -5.798
   20PET     C6  576  12.693  12.998  -5.879
   20PET     H4  577  12.742  13.087  -5.915
   20PET     H3  578  12.868  12.935  -5.774
   20PET     C3  579  12.572  12.765  -5.780
   20PET     H2  580  12.524  12.675  -5.742
   20PET     C2  581  12.499  12.853  -5.862
   20PET     H1  582  12.395  12.830  -5.886
   20PET     C1  583  12.559  12.970  -5.910
   20PET     C7  584  12.478  13.064  -5.992
   20PET     O3  585  12.362  13.045  -6.023
   20PET     O4  586  12.553  13.172  -6.025
   20PET    C10  587  12.490  13.272  -6.105
   20PET     H8  588  12.548  13.364  -6.092
   20PET     H9  589  12.389  13.293  -6.068
   20PET    C11  590  12.489  13.232  -6.253
   20PET    H10  591  12.439  13.310  -6.311
   20PET    H11  592  12.433  13.139  -6.266
   20PET    C12  593  12.630  13.211  -6.307
   20PET    H13  594  12.625  13.185  -6.413
   20PET    H14  595  12.681  13.130  -6.255
   21PET     C9  596  12.718  13.336  -6.294
   21PET     H6  597  12.727  13.364  -6.188
   21PET     H7  598  12.673  13.419  -6.349
   21PET     O2  599  12.846  13.304  -6.348
   21PET     C8  600  12.908  13.200  -6.289
   21PET     O1  601  12.866  13.133  -6.197
   21PET     C4  602  13.038  13.176  -6.358
   21PET     C5  603  13.081  13.258  -6.463
   21PET     C6  604  13.201  13.231  -6.529
   21PET     H4  605  13.231  13.296  -6.611
   21PET     H3  606  13.022  13.342  -6.496
   21PET     C3  607  13.119  13.068  -6.318
   21PET     H2  608  13.087  13.004  -6.236
   21PET     C2  609  13.239  13.041  -6.384
   21PET     H1  610  13.300  12.956  -6.353
   21PET     C1  611  13.280  13.122  -6.491
   21PET     C7  612  13.406  13.088  -6.563
   21PET     O3  613  13.479  12.995  -6.533
   21PET     O4  614  13.425  13.176  -6.664
   21PET    C10  615  13.543  13.158  -6.743
   21PET     H8  616  13.525  13.210  -6.838
   21PET     H9  617  13.557  13.052  -6.767
   21PET    C11  618  13.665  13.218  -6.674
   21PET    H10  619  13.754  13.201  -6.736
   21PET    H11  620  13.682  13.167  -6.578
   21PET    C12  621  13.649  13.367  -6.647
   21PET    H13  622  13.740  13.406  -6.600
   21PET    H14  623  13.565  13.387  -6.581
   22PET     C9  624  13.626  13.447  -6.776
   22PET     H6  625  13.534  13.412  -6.825
   22PET     H7  626  13.710  13.434  -6.843
   22PET     O2  627  13.612  13.584  -6.739
   22PET     C8  628  13.513  13.610  -6.651
   22PET     O1  629  13.436  13.530  -6.603
   22PET     C4  630  13.513  13.756  -6.618
   22PET     C5  631  13.605  13.844  -6.678
   22PET     C6  632  13.607  13.979  -6.643
   22PET     H4  633  13.680  14.043  -6.691
   22PET     H3  634  13.676  13.808  -6.752
   22PET     C3  635  13.422  13.806  -6.524
   22PET     H2  636  13.350  13.739  -6.477
   22PET     C2  637  13.424  13.941  -6.489
   22PET     H1  638  13.353  13.979  -6.415
   22PET     C1  639  13.517  14.028  -6.548
   22PET     C7  640  13.520  14.171  -6.505
   22PET     O3  641  13.444  14.219  -6.423
   22PET     O4  642  13.619  14.235  -6.571
   22PET    C10  643  13.636  14.374  -6.542
   22PET     H8  644  13.738  14.401  -6.572
   22PET     H9  645  13.629  14.392  -6.434
   22PET    C11  646  13.535  14.459  -6.619
   22PET    H10  647  13.548  14.564  -6.593
   22PET    H11  648  13.433  14.431  -6.590
   22PET    C12  649  13.548  14.441  -6.769
   22PET    H13  650  13.476  14.505  -6.822
   22PET    H14  651  13.529  14.337  -6.799
   23PET     C9  652  13.688  14.478  -6.821
   23PET     H6  653  13.763  14.414  -6.773
   23PET     H7  654  13.709  14.583  -6.798
   23PET     O2  655  13.689  14.458  -6.962
   23PET     C8  656  13.658  14.332  -7.002
   23PET     O1  657  13.633  14.237  -6.930
   23PET     C4  658  13.659  14.326  -7.151
   23PET     C5  659  13.691  14.439  -7.228
   23PET     C6  660  13.687  14.433  -7.367
   23PET     H4  661  13.711  14.523  -7.423
   23PET     H3  662  13.719  14.533  -7.181
   23PET     C3  663  13.625  14.207  -7.215
   23PET     H2  664  13.601  14.118  -7.157
   23PET     C2  665  13.621  14.201  -7.355
   23PET     H1  666  13.594  14.107  -7.404
   23PET     C1  667  13.651  14.314  -7.431
   23PET     C7  668  13.641  14.307  -7.580
   23PET     O3  669  13.610  14.206  -7.640
   23PET     O4  670  13.670  14.428  -7.633
   23PET    C10  671  13.665  14.437  -7.776
   23PET     H8  672  13.654  14.544  -7.800
   23PET     H9  673  13.577  14.386  -7.815
   23PET    C11  674  13.793  14.383  -7.838
   23PET    H10  675  13.786  14.390  -7.947
   23PET    H11  676  13.806  14.277  -7.813
   23PET    C12  677  13.917  14.458  -7.791
   23PET    H13  678  14.007  14.418  -7.839
   23PET    H14  679  13.930  14.448  -7.682
   24PET     C9  680  13.911  14.608  -7.822
   24PET     H6  681  13.824  14.652  -7.772
   24PET     H7  682  13.902  14.623  -7.930
   24PET     O2  683  14.031  14.667  -7.773
   24PET     C8  684  14.053  14.650  -7.640
   24PET     O1  685  13.981  14.591  -7.562
   24PET     C4  686  14.183  14.714  -7.604
   24PET     C5  687  14.260  14.781  -7.700
   24PET     C6  688  14.384  14.836  -7.665
   24PET     H4  689  14.441  14.887  -7.742
   24PET     H3  690  14.226  14.791  -7.803
   24PET     C3  691  14.230  14.704  -7.473
   24PET     H2  692  14.171  14.652  -7.397
   24PET     C2  693  14.354  14.759  -7.438
   24PET     H1  694  14.390  14.750  -7.335
   24PET     C1  695  14.432  14.824  -7.534
   24PET     C7  696  14.565  14.877  -7.496
   24PET     O3  697  14.611  14.870  -7.384
   24PET     O4  698  14.625  14.933  -7.604
   24PET    C10  699  14.754  14.990  -7.584
   24PET     H8  700  14.802  14.996  -7.683
   24PET     H9  701  14.816  14.923  -7.523
   24PET    C11  702  14.744  15.129  -7.523
   24PET    H10  703  14.845  15.169  -7.507
   24PET    H11  704  14.695  15.124  -7.425
   24PET    C12  705  14.665  15.225  -7.611
   24PET    H13  706  14.662  15.324  -7.566
   24PET    H14  707  14.562  15.190  -7.624
   25PET     C9  708  14.726  15.240  -7.751
   25PET     H6  709  14.728  15.143  -7.801
   25PET     H7  710  14.827  15.279  -7.743
   25PET     O2  711  14.644  15.331  -7.824
   25PET     C8  712  14.514  15.294  -7.836
   25PET     O1  713  14.463  15.193  -7.791
   25PET     C4  714  14.440  15.400  -7.910
   25PET     C5  715  14.505  15.514  -7.959
   25PET     C6  716  14.433  15.614  -8.025
   25PET     H4  717  14.487  15.701  -8.061
   25PET     H3  718  14.612  15.527  -7.947
   25PET     C3  719  14.301  15.386  -7.929
   25PET     H2  720  14.249  15.298  -7.892
   25PET     C2  721  14.229  15.486  -7.995
   25PET     H1  722  14.122  15.475  -8.009
   25PET     C1  723  14.295  15.601  -8.042
   25PET     C7  724  14.215  15.708  -8.107
   25PET     O3  725  14.095  15.702  -8.126
   25PET     O4  726  14.296  15.811  -8.141
   25PET    C10  727  14.235  15.923  -8.206
   25PET     H8  728  14.303  16.008  -8.194
   25PET     H9  729  14.141  15.949  -8.157
   25PET    C11  730  14.214  15.895  -8.355
   25PET    H10  731  14.165  15.982  -8.401
   25PET    H11  732  14.147  15.809  -8.368
   25PET    C12  733  14.345  15.866  -8.427
   25PET    H13  734  14.326  15.849  -8.534
   25PET    H14  735  14.393  15.776  -8.387
   26PET     C9  736  14.446  15.981  -8.416
   26PET     H6  737  14.469  15.999  -8.310
   26PET     H7  738  14.403  16.071  -8.459
   26PET     O2  739  14.563  15.942  -8.486
   26PET     C8  740  14.621  15.828  -8.443
   26PET     O1  741  14.583  15.757  -8.351
   26PET     C4  742  14.740  15.798  -8.528
   26PET     C5  743  14.779  15.884  -8.632
   26PET     C6  744  14.887  15.852  -8.713
   26PET     H4  745  14.914  15.920  -8.793
   26PET     H3  746  14.725  15.976  -8.652
   26PET     C3  747  14.813  15.680  -8.505
   26PET     H2  748  14.784  15.613  -8.425
   26PET     C2  749  14.922  15.648  -8.587
   26PET     H1  750  14.977  15.556  -8.569
   26PET     C1  751  14.959  15.733  -8.692
   26PET     C7  752  15.072  15.694  -8.780
   26PET     O3  753  15.138  15.593  -8.766
   26PET     O4  754  15.088  15.788  -8.877
   26PET    C10  755  15.194  15.766  -8.970
   26PET     H8  756  15.171  15.826  -9.059
   26PET     H9  757  15.195  15.661  -9.003
   26PET    C11  758  15.329  15.808  -8.912
   26PET    H10  759  15.408  15.788  -8.985
   26PET    H11  760  15.351  15.749  -8.822
   26PET    C12  761  15.331  15.955  -8.873
   26PET    H13  762  15.429  15.982  -8.834
   26PET    H14  763  15.257  15.977  -8.796
   27PET     C9  764  15.301  16.048  -8.992
   27PET     H6  765  15.202  16.025  -9.032
   27PET     H7  766  15.376  16.033  -9.070
   27PET     O2  767  15.306  16.182  -8.944
   27PET     C8  768  15.220  16.210  -8.844
   27PET     O1  769  15.141  16.133  -8.792
   27PET     C4  770  15.238  16.352  -8.801
   27PET     C5  771  15.331  16.435  -8.866
   27PET     C6  772  15.350  16.566  -8.822
   27PET     H4  773  15.423  16.628  -8.873
   27PET     H3  774  15.390  16.400  -8.950
   27PET     C3  775  15.163  16.402  -8.694
   27PET     H2  776  15.091  16.338  -8.643
   27PET     C2  777  15.182  16.533  -8.650
   27PET     H1  778  15.124  16.571  -8.566
   27PET     C1  779  15.277  16.616  -8.713
   27PET     C7  780  15.299  16.753  -8.661
   27PET     O3  781  15.238  16.801  -8.568
   27PET     O4  782  15.396  16.814  -8.734
   27PET    C10  783  15.429  16.948  -8.697
   27PET     H8  784  15.529  16.968  -8.737
   27PET     H9  785  15.436  16.957  -8.588
   27PET    C11  786  15.329  17.047  -8.756
   27PET    H10  787  15.356  17.149  -8.724
   27PET    H11  788  15.228  17.026  -8.717
   27PET    C12  789  15.324  17.041  -8.907
   27PET    H13  790  15.253  17.114  -8.946
   27PET    H14  791  15.292  16.942  -8.942
   28PET     C9  792  15.460  17.069  -8.972
   28PET     H6  793  15.533  16.995  -8.938
   28PET     H7  794  15.494  17.169  -8.944
   28PET     O2  795  15.443  17.060  -9.114
   28PET     C8  796  15.397  16.941  -9.158
   28PET     O1  797  15.369  16.844  -9.091
   28PET     C4  798  15.380  16.947  -9.306
   28PET     C5  799  15.415  17.063  -9.378
   28PET     C6  800  15.394  17.068  -9.516
   28PET     H4  801  15.421  17.160  -9.569
   28PET     H3  802  15.456  17.150  -9.329
   28PET     C3  803  15.328  16.837  -9.374
   28PET     H2  804  15.301  16.746  -9.320
   28PET     C2  805  15.307  16.843  -9.513
   28PET     H1  806  15.266  16.756  -9.565
   28PET     C1  807  15.339  16.959  -9.584
   28PET     C7  808  15.313  16.964  -9.730
   28PET     O3  809  15.266  16.872  -9.794
   28PET     O4  810  15.347  17.086  -9.778
   28PET    C10  811  15.328  17.107  -9.919
   28PET     H8  812  15.325  17.216  -9.934
   28PET     H9  813  15.231  17.068  -9.950
   28PET    C11  814  15.443  17.047  -9.999
   28PET    H10  815  15.424  17.063 -10.106
   28PET    H11  816  15.447  16.938  -9.983
   28PET    C12  817  15.578  17.106  -9.961
   28PET    H13  818  15.657  17.062 -10.023
   28PET    H14  819  15.602  17.086  -9.856
   29PET     C9  820  15.583  17.258  -9.981
   29PET     H6  821  15.506  17.306  -9.919
   29PET     H7  822  15.564  17.282 -10.086
   29PET     O2  823  15.713  17.302  -9.943
   29PET     C8  824  15.748  17.273  -9.815
   29PET     O1  825  15.680  17.214  -9.733
   29PET     C4  826  15.887  17.321  -9.790
   29PET     C5  827  15.959  17.389  -9.889
   29PET     C6  828  16.090  17.429  -9.866
   29PET     H4  829  16.144  17.480  -9.945
   29PET     H3  830  15.915  17.410  -9.987
   29PET     C3  831  15.947  17.296  -9.666
   29PET     H2  832  15.891  17.244  -9.588
   29PET     C2  833  16.078  17.337  -9.642
   29PET     H1  834  16.124  17.316  -9.546
   29PET     C1  835  16.151  17.402  -9.743
   29PET     C7  836  16.293  17.440  -9.716
   29PET     O3  837  16.350  17.420  -9.611
   29PET     O4  838  16.345  17.498  -9.827
   29PET    C10  839  16.481  17.541  -9.818
   29PET     H8  840  16.518  17.551  -9.921
   29PET     H9  841  16.543  17.465  -9.770
   29PET    C11  842  16.492  17.676  -9.747
   29PET    H10  843  16.597  17.705  -9.741
   29PET    H11  844  16.454  17.667  -9.645
   29PET    C12  845  16.413  17.785  -9.818
   29PET    H13  846  16.425  17.880  -9.766
   29PET    H14  847  16.306  17.761  -9.822
   30PET     C9  848  16.459  17.806  -9.963
   30PET     H6  849  16.446  17.713 -10.020
   30PET     H7  850  16.565  17.835  -9.964
   30PET     O2  851  16.379  17.910 -10.019
   30PET     C8  852  16.246  17.886 -10.018
   30PET     O1  853  16.190  17.787  -9.975
   30PET     C4  854  16.175  18.004 -10.076
   30PET     C5  855  16.245  18.115 -10.124
   30PET     C6  856  16.177  18.225 -10.174
   30PET     H4  857  16.235  18.310 -10.210
   30PET     H3  858  16.354  18.117 -10.123
   30PET     C3  859  16.034  18.004 -10.079
   30PET     H2  860  15.978  17.918 -10.043
   30PET     C2  861  15.966  18.115 -10.129
   30PET     H1  862  15.857  18.115 -10.131
   30PET     C1  863  16.037  18.227 -10.175
   30PET     C7  864  15.961  18.346 -10.223
   30PET     O3  865  15.840  18.352 -10.228
   30PET     O4  866  16.048  18.443 -10.259
   30PET    C10  867  15.992  18.565 -10.309
   30PET     H8  868  16.069  18.642 -10.298
   30PET     H9  869  15.907  18.596 -10.246
   30PET    C11  870  15.952  18.551 -10.455
   30PET    H10  871  15.907  18.645 -10.489
   30PET    H11  872  15.876  18.473 -10.466
   30PET    C12  873  16.070  18.516 -10.544
   30PET    H13  874  16.038  18.509 -10.649
   30PET    H14  875  16.113  18.419 -10.516
  16.74302  19.05650  11.48931
