PEO
   875
   3.5400032   1.4197788   0.0000019   3.9020088   0.9067293  -0.8970807
   3.8980352   0.8886924   0.8881378   4.0250111   2.7606809   0.0150023
   5.4506246   2.7936391   0.0189914   5.8427105   2.2865146  -0.8712347
   5.8377447   2.2674552   0.9002845   5.9235209   4.2401967   0.0369970
   5.5364349   4.7493502   0.9282523   5.5415751   4.7691535  -0.8448935
   7.3493756   4.2601647   0.0409752   7.8474177   5.5952012   0.0569914
   7.4864217   6.1222136   0.9500445   7.4893243   6.1433416  -0.8231905
   9.3679880   5.5591736   0.0599773   9.7289678   5.0341715  -0.8330375
   9.7270597   5.0100442   0.9391437   9.8630650   6.8952870   0.0779964
  11.2879093   6.9162605   0.0799808  11.6760404   6.4080715  -0.8113705
  11.6729482   6.3881900   0.9610571  11.7608057   8.3628299   0.0970035
  11.3729606   8.8706304   0.9887007  11.3756762   8.8900488  -0.7832984
  13.1856173   8.3858065   0.0999964  13.6794817   9.7223817   0.1170149
  13.3185486  10.2472819   1.0088799  13.3196096  10.2701974  -0.7626435
  15.2000553   9.6863665   0.1169964  15.5588758   9.1596128  -0.7746281
  15.5580719   9.1363253   0.9960230  15.7061061  11.0194319   0.1350286
  17.1320466  11.0324191   0.1360076  17.5058652  10.5306623  -0.7626162
  17.5049406  10.5075486   1.0217198  17.5834598  12.4998589   0.1533181
  17.1978702  12.9920126   1.0522789  17.1989078  13.0127700  -0.7344132
  19.0094003  12.5128461   0.1542990  19.5131651  13.8466199   0.1815817
  19.1549195  14.3674800   1.0781160  19.1548359  14.4032629  -0.6931512
  21.0347970  13.8131971   0.1797177  21.3966258  13.2963996  -0.7177283
  21.3974510  13.2605030   1.0551720  21.5263869  15.1515068   0.2069644
  22.9511264  15.1787528   0.2071908  23.3384723  14.6806744  -0.6914109
  23.3398044  14.6422263   1.0815349  23.4212809  16.6249515   0.2372735
  23.0358265  17.1223485   1.1358447  23.0319830  17.1627092  -0.6360379
  24.8460754  16.6490823   0.2354370  25.3382569  17.9860671   0.2646591
  24.9776834  18.5035286   1.1622277  24.9774554  18.5413688  -0.6099101
  26.8598891  17.9526215   0.2637778  27.2201947  17.4355654  -0.6341320
  27.2198656  17.3975318   1.1375674  27.3539606  19.2889305   0.2919989
  28.7787777  19.3117452   0.2911381  29.1641387  18.8144038  -0.6062829
  29.1665655  18.7736588   1.1649188  29.2489119  20.7578849   0.3242246
  28.8611045  21.2538531   1.2213517  28.8584024  21.2949472  -0.5489738
  30.6744692  20.7933774   0.3226025  31.1594689  22.1340257   0.3528215
  30.8001382  22.6357139   1.2573742  30.7977110  22.6769003  -0.5266348
  32.6936707  22.0734003   0.3512671  33.0400433  21.5638015  -0.5539180
  33.0402590  21.5234578   1.2324395  33.1786704  23.4140487   0.3814843
  34.6042402  23.4473284   0.3705668  34.9867324  22.9539519  -0.5314799
  35.0009214  22.9078643   1.2394923  35.0771505  24.8935709   0.4055319
  34.6996688  25.3889620   1.3085847  34.6856364  25.4358182  -0.4640045
  36.5029627  24.9138621   0.3944028  37.0010074  26.2486337   0.4254052
  36.6496318  26.7618611   1.3302460  36.6333609  26.8100427  -0.4423879
  38.5215250  26.2129765   0.4114058  38.8728845  25.7017586  -0.4933658
  38.8901388  25.6505944   1.2781579  39.0166264  27.5487935   0.4444593
  40.4414066  27.5701202   0.4313629  40.8199322  27.0756953  -0.4717824
  40.8360046  27.0287724   1.3000654  40.9143062  29.0163896   0.4653455
  40.5360705  29.5104207   1.3688276  40.5196261  29.5568740  -0.4025947
  42.3390645  29.0397037   0.4532883  42.8329425  30.3759973   0.4853616
  42.4816172  30.8871310   1.3889815  42.4635231  30.9370732  -0.3818939
  44.3534308  30.3403985   0.4683584  44.7026465  29.8274073  -0.4350266
  44.7209882  29.7771065   1.3349683  44.8595059  31.6731706   0.5012599
  46.2853722  31.6865275   0.4870246  46.6495067  31.1986412  -0.4231391
  46.6678758  31.1483053   1.3605422  46.7367908  33.1536547   0.5218456
  46.3608906  33.6319306   1.4323268  46.3426093  33.6799464  -0.3537473
  48.1626572  33.1670115   0.5076121  48.6665463  34.5003502   0.5497980
  48.3179592  35.0073737   1.4579958  48.2987220  35.0701777  -0.3124148
  50.1880726  34.4673718   0.5309778  50.5402324  33.9644254  -0.3781082
  50.5602288  33.9014831   1.3939254  50.6797866  35.8052432   0.5733285
  52.1044424  35.8328684   0.5585713  52.4821034  35.3486634  -0.3516604
  52.5026074  35.2831693   1.4203744  52.5747416  37.2785671   0.6056355
  52.1989718  37.7620918   1.5158059  52.1759678  37.8294813  -0.2551095
  53.9994304  37.3031090   0.5887677  54.4917574  38.6396256   0.6330668
  54.1408542  39.1432344   1.5422720  54.1214630  39.2081087  -0.2289761
  56.0132947  38.6066094   0.6152287  56.3639264  38.1034111  -0.2943085
  56.3827558  38.0383499   1.4765043  56.5075009  39.9424661   0.6584963
  57.9322230  39.9656771   0.6425837  58.3079119  39.4821905  -0.2664348
  58.3294919  39.4144266   1.5038092  58.4025343  41.4112710   0.6926505
  58.0243963  41.8933884   1.6013806  58.0025504  41.9614878  -0.1679791
  59.8279870  41.4471701   0.6761621  60.3131431  42.7873327   0.7215915
  59.9635598  43.2750639   1.6375254  59.9418408  43.3434645  -0.1455169
  61.8472449  42.7271536   0.7025298  62.1838649  42.2315188  -0.2140170
  62.2033979  42.1639244   1.5714101  62.3324010  44.0673162   0.7479574
  63.7577659  44.1011447   0.7221414  64.1305357  43.6216922  -0.1914105
  64.1638753  43.5485931   1.5783954  64.2308734  45.5468134   0.7740580
  63.8631246  46.0282661   1.6885924  63.8299240  46.1021585  -0.0828202
  65.6564798  45.5676582   0.7478296  66.1546893  46.9019362   0.7938116
  65.8130625  47.4012031   1.7101236  65.7776228  47.4764207  -0.0612892
  67.6749704  46.8669086   0.7628360  68.0165817  46.3696500  -0.1533761
  68.0529930  46.2914673   1.6168707  68.1702588  48.2021999   0.8109165
  69.5948118  48.2241098   0.7827481  69.9636034  47.7436248  -0.1318753
  69.9988360  47.6696776   1.6387729  70.0678981  49.6698203   0.8336829
  69.6994001  50.1499066   1.7486339  69.6638003  50.2233776  -0.0215921
  71.4924403  49.6937016   0.8065842  71.9864947  51.0294841   0.8537050
  71.6449051  51.5266760   1.7687639  71.6076613  51.6036268  -0.0008442
  73.5067141  50.9945606   0.8197274  73.8461968  50.4955072  -0.0951021
  73.8836788  50.4182114   1.6736174  74.0129741  52.3268126   0.8674908
  75.4386018  52.3407714   0.8380504  75.7929266  51.8669274  -0.0833349
  75.8305839  51.7893877   1.6990679  75.8902151  53.8073186   0.8903739
  75.5244641  54.2711214   1.8112155  75.4872719  54.3458164   0.0288021
  77.3148431  53.8212675   0.8609559  77.9128338  53.1343542   1.8628907
  77.3598421  52.5333978   2.7624888  79.3924831  53.2010212   1.6832868
  79.9660542  53.9245307   0.6282256  81.3476742  53.9381674   0.4510560
  81.7564908  54.5007567  -0.3843668  79.3484067  54.4755262  -0.0763910
  80.2238787  52.5112897   2.5769622  79.7937001  51.9507251   3.4055964
  81.6115450  52.5268930   2.3999316  82.2489541  51.9797653   3.0945256
  82.1795146  53.2295487   1.3265749  83.6534612  53.1888829   1.1342299
  84.4194917  52.5978692   1.8691620  83.9824174  53.8986546   0.0278679
  85.3747749  53.9662553  -0.2998436  85.4368140  54.2350538  -1.3605577
  85.8413852  52.9804472  -0.1918003  86.0853262  55.0201868   0.5445622
  87.1485288  55.0345444   0.2829917  86.0108245  54.7634333   1.6074559
  85.4949460  56.4088939   0.3459982  86.0438475  57.1417617   0.9465287
  84.4441427  56.4439787   0.6519500  85.5548709  56.8727616  -1.1164275
  84.9918424  56.1768462  -1.7453445  86.5954929  56.9012402  -1.4495098
  84.9788415  58.1745974  -1.1799776  83.7014256  58.2553235  -0.7383806
  83.0204050  57.3427620  -0.3145086  83.2452579  59.6732542  -0.8246795
  84.0796005  60.6766790  -1.3371393  83.6521335  62.0021049  -1.3682385
  84.3299472  62.7550741  -1.7621612  85.0754245  60.4452031  -1.7063579
  81.9637002  60.0107603  -0.3671826  81.3013566  59.2414471   0.0269991
  81.5339430  61.3417005  -0.4004708  80.5393580  61.5954966  -0.0337445
  82.3825715  62.3466967  -0.8885499  81.9182700  63.7591878  -0.8670552
  80.8245754  64.1099439  -0.4707885  82.8989375  64.5623232  -1.3458973
  82.6106997  65.9640033  -1.3991501  83.5748570  66.4830835  -1.4457586
  82.1170769  66.2882750  -0.4758947  81.7780162  66.3051830  -2.6315910
  81.5603483  67.3783289  -2.6334867  80.8196727  65.7745441  -2.5967189
  82.4858744  65.9285416  -3.9252533  81.8717985  66.2097114  -4.7871577
  82.6691595  64.8504478  -3.9813347  83.8449890  66.6259703  -4.0797009
  84.4976132  66.3459841  -3.2475198  83.7028728  67.7096916  -4.0797753
  84.4099851  66.2005989  -5.3168199  84.5790612  64.8625458  -5.4365828
  84.3088662  64.0189757  -4.6049524  85.1368190  64.5613549  -6.7872324
  85.4385386  65.5858935  -7.6954670  85.9166212  65.2824223  -8.9681772
  86.1293427  66.1019876  -9.6498159  85.2945348  66.6306443  -7.4321657
  85.3457704  63.2263973  -7.1611729  85.1229335  62.4198524  -6.4642153
  85.8278766  62.9220721  -8.4387334  85.9780861  61.8806759  -8.7233930
  86.1023383  63.9493013  -9.3540914  86.5673342  63.5948610 -10.7213221
  86.7532458  62.4564407 -11.1029778  86.7365959  64.7269519 -11.4464054
  87.1906018  64.5628230 -12.7945761  86.9278115  65.4821035 -13.3303752
  86.6513953  63.7428464 -13.2825419  88.7008293  64.3490560 -12.8414017
  89.0128431  64.2096732 -13.8817117  88.9691596  63.4393890 -12.2921105
  89.4652725  65.5167616 -12.2342986  90.5435660  65.3408022 -12.3074178
  89.2180063  65.6493104 -11.1758491  89.1661740  66.8483502 -12.9377651
  88.0979814  67.0718163 -12.8611910  89.4466533  66.7770963 -13.9917590
  89.9314824  67.8603325 -12.2890588  89.6936454  67.9932335 -10.9627530
  88.9032661  67.3524118 -10.2987704  90.5874174  69.0532619 -10.4117762
  91.4687544  69.7645712 -11.2381466  92.3271201  70.7194346 -10.6978752
  93.0046812  71.2435427 -11.3670468  91.5097346  69.5781236 -12.3082526
  90.5575510  69.3299313  -9.0376706  89.8734119  68.7908803  -8.3839897
  91.4183146  70.2904412  -8.4957225  91.3942263  70.4917154  -7.4247377
  92.3180555  70.9802500  -9.3221843  93.2550255  71.9605715  -8.7120810
  93.2816601  72.2300497  -7.5276415  94.0528369  72.4802627  -9.6761574
  95.0163031  73.4526359  -9.2556254  95.7873103  73.4901864 -10.0336702
  95.5092531  73.1280097  -8.3321352  94.3730484  74.8272327  -9.0963046
  95.1301846  75.5422267  -8.7578474  93.5897368  74.7894933  -8.3306580
  93.7499716  75.3235686 -10.3931893  93.3209701  76.3205798 -10.2484432
  92.9479541  74.6591069 -10.7312477  94.7680631  75.4209992 -11.5383750
  95.1993754  74.4341735 -11.7306791  95.5644964  76.1168580 -11.2624702
  94.0762871  75.8922878 -12.6916130  93.0339980  75.1230514 -13.0855990
  92.6535560  74.0933357 -12.5648550  92.3836710  75.7544278 -14.2707161
  92.8830928  76.9388461 -14.8304795  92.2358866  77.5371675 -15.9091753
  92.6451016  78.4608610 -16.3103018  93.7720274  77.4187945 -14.4292143
  91.2401096  75.1606862 -14.8232940  90.8443206  74.2368067 -14.4041057
  90.5915525  75.7607657 -15.9079503  89.6976822  75.2965086 -16.3245569
  91.0788754  76.9607338 -16.4473963  90.3418527  77.6019585 -17.5684660
  89.3401933  77.1391875 -18.0771373  90.9593250  78.7589573 -17.9092106
  90.3767053  79.5039316 -18.9844742  90.7435026  80.5325024 -18.8911057
  89.2866707  79.5419745 -18.8768015  90.7883701  78.9273058 -20.3360328
  90.3134967  79.5067664 -21.1346226  90.4376976  77.8928403 -20.4261775
  92.2979800  78.9386025 -20.5295123  92.5548655  78.5419938 -21.5173060
  92.8018175  78.3210457 -19.7786485  92.8959817  80.3491655 -20.4287210
  92.6821459  80.7685231 -19.4411738  92.4557314  80.9896255 -21.1972519
  94.3029260  80.2362236 -20.6246212  94.9368393  79.4194532 -19.7503466
  94.4297699  78.8005981 -18.8359485  96.3868249  79.3659507 -20.0978277
  96.9092269  80.1171123 -21.1601160  98.2572753  80.0196621 -21.4973372
  98.6250554  80.6083346 -22.3338606  96.2752489  80.7767990 -21.7470182
  97.2393036  78.5339433 -19.3584713  96.8498491  77.9497641 -18.5260166
  98.5935417  78.4378859 -19.6961297  99.2463380  77.7810542 -19.1212132
  99.1063112  79.1703293 -20.7773342 100.5385915  79.0118296 -21.1442400
 101.3186831  78.2965254 -20.5475641 100.8120588  79.7756645 -22.2295035
 102.1594406  79.7429338 -22.7133575 102.1302153  80.0895722 -23.7526860
 102.5349313  78.7133958 -22.7299188 103.0601032  80.6566432 -21.8871505
 104.0840100  80.5955757 -22.2704397 103.0784414  80.3229152 -20.8433568
 102.5922144  82.1046194 -21.9176288 103.2741813  82.7339364 -21.3363317
 101.5903851  82.2100650 -21.4883921 102.5358567  82.6774396 -23.3410592
 101.8404506  82.0883698 -23.9462395 103.5309299  82.6381969 -23.7915461
 102.0884600  84.0270083 -23.2455321 100.8820618  84.1873759 -22.6520663
 100.1648515  83.3091463 -22.2155491 100.5622084  85.6431484 -22.5851013
 101.4302668  86.6048067 -23.1210975 101.1357130  87.9617085 -23.0092728
 101.8372165  88.6794019 -23.4268587 102.3512327  86.3145008 -23.6202099
  99.3789686  86.0574951 -21.9575151  98.6911693  85.3221548 -21.5426322
  99.0824556  87.4202543 -21.8472054  98.1646557  87.7328042 -21.3491532
  99.9674927  88.3802133 -22.3606224  99.6509727  89.8226402 -22.1862983
  98.6480568  90.2380398 -21.6405623 100.6475607  90.5695135 -22.7201687
 100.4958127  91.9912686 -22.6413713 101.4956540  92.4228607 -22.7649090
 100.1419371  92.2835236 -21.6460949  99.5700001  92.5047039 -23.7404306
  99.4610950  93.5898148 -23.6419468  98.5734628  92.0620568 -23.6300084
 100.0895828  92.1708822 -25.1315024  99.4149562  92.5750819 -25.8934252
 100.1575859  91.0886475 -25.2837148 101.4857833  92.7523863 -25.3959459
 102.1953618  92.3482611 -24.6679231 101.4528426  93.8409983 -25.3038167
 101.8655026  92.3785914 -26.7175795 101.8866021  91.0447346 -26.9493055
 101.6275859  90.1648934 -26.1524272 102.2589425  90.8040054 -28.3739024
 102.5586334  91.8667922 -29.2377736 102.8605732  91.6247444 -30.5759418
 103.0769526  92.4738856 -31.2191433 102.5490736  92.8956756 -28.8872360
 102.2916818  89.4900821 -28.8618960 102.0682857  88.6535481 -28.2014218
 102.5969796  89.2472125 -30.2054021 102.6106480  88.2228169 -30.5775941
 102.8691948  90.3157151 -31.0729331 103.1426827  90.0318752 -32.5067421
 103.1712999  88.9157488 -32.9859788 103.3423135  91.1986749 -33.1660986
 103.6259372  91.1032025 -34.5664795 103.3981081  92.0826846 -35.0022831
 102.9573529  90.3774728 -35.0434778 105.0929956  90.7578674 -34.8055601
 105.2726958  90.6750310 -35.8825332 105.3287493  89.7863388 -34.3563739
 106.0320140  91.7987418 -34.2128468 107.0727810  91.5322127 -34.4244867
 105.9176694  91.8674632 -33.1260038 105.7906829  93.2042870 -34.7817537
 104.7650038  93.5167779 -34.5645723 105.9444507  93.1930378 -35.8638249
 106.7196941  94.0871576 -34.1587749 106.6443215  94.1337960 -32.8076791
 105.8724935  93.5158721 -32.1015087 107.6943363  95.0605843 -32.2932899
 108.5451585  95.7533108 -33.1661218 109.5485345  96.5797828 -32.6654926
 110.1966343  97.0925008 -33.3716484 108.4488669  95.6507293 -34.2439780
 107.8441849  95.2272245 -30.9093172 107.1863840  94.7015181 -30.2187726
 108.8506782  96.0589488 -30.4069161 108.9652435  96.1746453 -29.3291456
 109.7175550  96.7286724 -31.2835026 110.8089106  97.5676628 -30.7211796
 110.9929506  97.7373214 -29.5322430 111.5428842  98.0888513 -31.7339334
 112.6386949  98.9328212 -31.3630727 113.3188553  98.9628720 -32.2219643
 113.1960340  98.4915061 -30.5289084 112.1566831 100.3427546 -31.0337878
 113.0138249 100.9565630 -30.7378619 111.4629656 100.3146306 -30.1857424
 111.4464314 100.9963892 -32.2105582 111.1371911 102.0132738 -31.9472314
 110.5499682 100.4367769 -32.4972857 112.3362898 101.0930531 -33.4580602
 112.6435689 100.0899004 -33.7680606 113.2234770 101.6893439 -33.2300580
 111.5714953 101.7164818 -34.4861900 110.4208417 101.0791568 -34.8073274
 109.9999499 100.0495833 -34.3183963 109.7094072 101.8603017 -35.8607682
 110.2590050 103.0357923 -36.3915865 109.5591398 103.7752704 -37.3422756
 110.0111820 104.6873595 -37.7234846 111.2300872 103.3992815 -36.0653291
 108.4584981 101.4191333 -36.3148617 108.0217112 100.5041873 -35.9173544
 107.7568127 102.1609591 -37.2711739 106.7807115 101.8147287 -37.6109546
 108.2982361 103.3513449 -37.7793584 107.5091270 104.1449659 -38.7584608
 106.4164029 103.8173993 -39.1766466 108.1969552 105.2648932 -39.0881273
 107.5759006 106.1438096 -40.0328078 108.0510777 107.1240123 -39.9118722
 106.5136488 106.2717211 -39.7951615 107.7763207 105.6429968 -41.4602861
 107.2759690 106.3255649 -42.1551055 107.3168605 104.6552215 -41.5803371
 109.2489024 105.5329341 -41.8288958 109.3543515 105.1955380 -42.8652690
 109.7688378 104.8137700 -41.1874169 109.9914668 106.8707502 -41.7012262
 109.9308210 107.2268443 -40.6685815 109.5347338 107.6083069 -42.3660977
 111.3499192 106.6468687 -42.0687985 111.9923491 105.7082271 -41.3342567
 111.5305512 105.0662496 -40.4118508 113.3825091 105.5516551 -41.8529132
 113.8562567 106.3354859 -42.9144104 115.1423817 106.1437059 -43.4139622
 115.4720491 106.7620782 -44.2449279 113.2299355 107.0950594 -43.3752128
 114.2246493 104.5889423 -41.2788156 113.8735444 103.9773230 -40.4490155
 115.5169852 104.3980188 -41.7794322 116.1608743 103.6405388 -41.3325196
 115.9772574 105.1656668 -42.8598373 117.3373357 104.9080427 -43.4029633
 118.1037064 104.0792283 -42.9535552 117.5636307 105.7288727 -44.4570286
 118.8393121 105.6132072 -45.0972494 118.7299286 106.0436622 -46.0992273
 119.1065771 104.5585608 -45.2295612 119.9120402 106.3719600 -44.3212182
 120.8761419 106.2493921 -44.8257081 120.0124329 105.9549474 -43.3126361
 119.5897504 107.8541221 -44.1954849 120.3908970 108.3701382 -43.6561182
 118.6569671 108.0150375 -43.6449882 119.4335303 108.5424914 -45.5590083
 118.6204495 108.0695678 -46.1176485 120.3638566 108.4496145 -46.1251496
 119.1356642 109.9149639 -45.3177200 118.0241927 110.1357123 -44.5766280
 117.2760015 109.2938235 -44.1209327 117.8598416 111.6043423 -44.3712537
 118.7544923 112.5233819 -44.9374430 118.6103021 113.8879635 -44.6974948
 119.3291138 114.5704001 -45.1437673 119.5812296 112.1919308 -45.5605118
 116.8002619 112.0723469 -43.5814014 116.0929513 111.3713691 -43.1406489
 116.6545483 113.4430425 -43.3423152 115.8330334 113.7963716 -42.7191204
 117.5683168 114.3570370 -43.8882551 117.4178058 115.8034691 -43.5778526
 116.5276037 116.2627642 -42.8902385 118.4184675 116.4974852 -44.1720265
 118.4182858 117.9161552 -43.9770921 119.4362233 118.2638670 -44.1871297
 118.2073892 118.1581583 -42.9291545 117.4322275 118.5982728 -44.9210627
 117.4431632 119.6773135 -44.7351151 116.4150098 118.2403446 -44.7251762
 117.7591079 118.3318709 -46.3834797 117.0478721 118.8556278 -47.0306639
 117.7020702 117.2637216 -46.6176349 119.1683116 118.8038051 -46.7693245
 119.9103708 118.2796844 -46.1598315 119.2540133 119.8799461 -46.5983716
 119.3605889 118.5048114 -48.1492727 119.2233935 117.1975551 -48.4741950
 118.9679885 116.2834966 -47.7155842 119.4102033 117.0396084 -49.9460030
 119.7165903 118.1369713 -50.7630255 119.8432052 117.9771357 -52.1410205
 120.0703879 118.8522065 -52.7445170 119.8480506 119.1308880 -50.3430056
 119.2581664 115.7717275 -50.5247662 119.0272062 114.9084156 -49.9024553
 119.3874303 115.6112018 -51.9085015 119.2580846 114.6231117 -52.3501435
 119.6668096 116.7170240 -52.7255164 119.7505654 116.5259890 -54.1978138
 119.6150601 115.4541131 -54.7536424 119.9909407 117.7191932 -54.7932198
 120.1071190 117.7115234 -56.2204786 119.9308954 118.7395376 -56.5571505
 119.3211638 117.0901909 -56.6648167 121.4971692 117.2549928 -56.6540869
 121.5475862 117.2432344 -57.7478624 121.6834987 116.2330767 -56.3045375
 122.5946405 118.1553041 -56.1050147 123.5739907 117.8134351 -56.4557622
 122.6085431 118.1463314 -55.0101397 122.4326549 119.6181831 -56.5422778
 121.4734014 120.0038604 -56.1846163 122.4639719 119.6802453 -57.6330649
 123.5078873 120.3601262 -55.9730497 123.5873505 120.3044126 -54.6225321
 122.8408056 119.7041371 -53.8751601 124.7745989 121.0877267 -54.1720610
 125.5882635 121.7685169 -55.0886191 126.7179089 122.4575919 -54.6532736
 127.3316547 122.9646543 -55.3933904 125.3636946 121.7622520 -56.1521503
 125.0923329 121.1280620 -52.8071353 124.4659782 120.6102442 -52.0822453
 126.2257785 121.8219252 -52.3700358 126.4697109 121.8395585 -51.3078277
 127.0526203 122.4787292 -53.2938053 128.2773320 123.1672840 -52.8068326
 128.6076157 123.2232273 -51.6389250 128.9429439 123.6996678 -53.8601859
 130.1513888 124.4081853 -53.5630535 130.7320283 124.4455406 -54.4918583
 130.7509404 123.8524008 -52.8330826 129.8511284 125.8248841 -53.0819254
 130.7924165 126.3326135 -52.8469519 129.2560745 125.7915441 -52.1621345
 129.0835675 126.6328834 -54.1184925 128.9078415 127.6490847 -53.7504160
 128.1097927 126.1817739 -54.3359503 129.8352289 126.7486544 -55.4523048
 130.0052189 125.7500214 -55.8654290 130.7969803 127.2417433 -55.2893739
 129.0271641 127.5196415 -56.3373105 127.7905006 127.0172101 -56.5643392
 127.3261052 125.9940078 -56.1021498 127.0480653 127.9419506 -57.4697169
 127.6495955 129.1016987 -57.9783915 126.9258234 129.9757536 -58.7862472
 127.4212670 130.8708368 -59.1535762 128.6820574 129.3481833 -57.7442188
 125.7170376 127.6540276 -57.8029878 125.2381981 126.7534126 -57.4215087
 124.9910769 128.5310310 -58.6160360 123.9538704 128.3032222 -58.8618120
 125.5885047 129.7044820 -59.1002897 124.7787143 130.6426600 -59.9220139
 123.6193650 130.4502666 -60.2304275 125.5336613 131.7185186 -60.2515717
 124.9023343 132.7233535 -61.0530435 125.4829330 133.6434985 -60.9209286
 123.8908492 132.9274810 -60.6836578 124.8929895 132.3230615 -62.5255770
 124.3891524 133.1019262 -63.1074214 124.3272791 131.3939036 -62.6591936
 126.2975428 132.1100004 -63.0717628 126.2537455 131.8490224 -64.1343056
 126.8112155 131.2973313 -62.5476118 127.1788132 133.3603350 -62.9395539
 127.2683607 133.6361114 -61.8846773 126.7268813 134.1874154 -63.4930379
 128.4593175 133.0445588 -63.4792011 129.0826206 131.9954298 -62.8925686
 128.6641809 131.3257514 -61.9691706 130.3844610 131.7557625 -63.5809255
 130.8134258 132.5763688 -64.6336356 132.0110023 132.3096462 -65.2932707
 132.3065437 132.9605066 -66.1121755 130.2185351 133.4242391 -64.9634689
 131.1851294 130.6775593 -63.1784184 130.8689303 130.0354395 -62.3576741
 132.3888153 130.4112096 -63.8397799 132.9997511 129.5649435 -63.5256285
 132.8007571 131.2184973 -64.9107606 134.0601108 130.8832223 -65.6268527
 134.7853613 129.9548431 -65.3296175 134.2488656 131.7623901 -66.6404900
 135.4281207 131.5834990 -67.4329415 135.2519207 132.1014102 -68.3826454
 135.5730720 130.5230660 -67.6689223 136.6500709 132.1768815 -66.7376640
 137.5355257 132.0084528 -67.3594570 136.8194448 131.6725965 -65.7794233
 136.4924277 133.6671930 -66.4719492 137.3955455 134.0633174 -65.9960408
 135.6468375 133.8671406 -65.8055986 136.2555501 134.4744861 -67.7563244
 135.3427787 134.1237706 -68.2469190 137.1037368 134.3435578 -68.4331450
 136.1239430 135.8443946 -67.3866551 135.1286604 136.1045797 -66.5062960
 134.3555608 135.3000272 -66.0254245 135.1346634 137.5607244 -66.1812261
 136.0480415 138.4374811 -66.7834238 136.0674726 139.7857326 -66.4337247
 136.7967281 140.4339143 -66.9129072 136.7638071 138.0837171 -67.5210550
 134.2206378 138.0577079 -65.2414556 133.5003044 137.3905237 -64.7703865
 134.2390742 139.4122357 -64.8920053 133.5306593 139.7872327 -64.1533405
 135.1730955 140.2806202 -65.4767460 135.2021921 141.7050153 -65.0508107
 134.4434961 142.1862338 -64.2328657 136.1949673 142.3510530 -65.7088819
 136.3572022 143.7435639 -65.4169617 137.3751433 144.0133423 -65.7206583
 136.2885292 143.9184813 -64.3371914 135.3454616 144.5860869 -66.1884614
 135.4839741 145.6411916 -65.9304044 134.3256534 144.3072423 -65.8995792
 135.4805859 144.4098252 -67.6941697 134.7577033 145.0463325 -68.2150576
 135.2922350 143.3735946 -67.9937948 136.8783476 144.7815991 -68.2094361
 137.6275083 144.1449724 -67.7295395 137.0888505 145.8282550 -67.9752375
 136.8862442 144.5785458 -69.6198729 136.5848494 143.3195524 -70.0166258
 136.3253874 142.3742845 -69.2987310 136.5911888 143.2644006 -71.5075927
 136.9128100 144.3917032 -72.2765872 136.8698066 144.3325765 -73.6676673
 137.1146369 145.2292075 -74.2312983 137.1879344 145.3325291 -71.8067764
 136.2509640 142.0662863 -72.1513110 136.0056457 141.1801542 -71.5677787
 136.2098770 142.0066968 -73.5484373 135.9350318 141.0732046 -74.0395102
 136.5056311 143.1448443 -74.3136554 136.4067211 143.0662307 -75.7952781
 136.1048418 142.0593283 -76.4045739 136.6970804 144.2767990 -76.3302929
 136.6534190 144.3736295 -77.7583481 136.5440062 145.4371533 -77.9995161
 135.7653725 143.8639335 -78.1492439 137.9347694 143.8293765 -78.3833326
 137.8625385 143.9012460 -79.4735814 138.0562050 142.7699522 -78.1301733
 139.1701527 144.5793126 -77.9059357 140.0659084 144.1794340 -78.3924990
 139.3040522 144.4809453 -76.8236142 139.1068781 146.0813037 -78.2181415
 138.2361102 146.5222882 -77.7240446 139.0234196 146.2279397 -79.2980404
 140.3067729 146.6744331 -77.7291886 140.5291263 146.5031322 -76.4046015
 139.8138911 145.9147634 -75.6181629 141.8307724 147.1367385 -76.0435966
 142.6016725 147.8125717 -76.9999263 143.8353256 148.3590755 -76.6536856
 144.4107827 148.8663742 -77.4237935 142.2613978 147.9123881 -78.0274568
 142.2998810 147.0380150 -74.7261009 141.7092036 146.5224099 -73.9703413
 143.5379614 147.5887858 -74.3782368 143.8983672 147.4986049 -73.3535051
 144.3187135 148.2401961 -75.3449320 145.6520334 148.7734057 -74.9587784
 146.1133212 148.7049085 -73.8368395 146.2466657 149.3263704 -76.0435214
 147.5448941 149.8961632 -75.8421183 148.0201138 149.9554239 -76.8279531
 148.1633046 149.2313209 -75.2283030 147.4418258 151.2908676 -75.2315018
 148.4490546 151.6905824 -75.0742022 146.9517539 151.2376256 -74.2526193
 146.6484191 152.2459934 -76.1116861 146.6162379 153.2409735 -75.6556116
 145.6166226 151.9040149 -76.2438668 147.2557732 152.4002124 -77.5133961
 147.2790464 151.4268199 -78.0121960 148.2738198 152.7893433 -77.4308907
 146.4353929 153.3100620 -78.2412525 145.1374723 152.9417449 -78.3555366
 144.6277326 151.9309651 -77.9142718 144.3950074 153.9999040 -79.1005930
 145.0487784 155.1375337 -79.5945426 144.3305180 156.1358332 -80.2487209
 144.8687271 157.0089831 -80.6085948 146.1201404 155.2697308 -79.4669640
 143.0133240 153.8616257 -79.2940723 142.4925498 152.9803396 -78.9225215
 142.2926181 154.8634685 -79.9529311 141.2171357 154.7511743 -80.0901449
 142.9463927 156.0131047 -80.4212522 142.1479028 157.0839696 -81.0745755
 140.9482253 157.0229487 -81.2569910 142.9648597 158.1099909 -81.4149968
 142.3517094 159.2292096 -82.0646277 143.0318318 160.0792821 -81.9380329
 141.4125593 159.4937753 -81.5654104 142.1399286 158.9513434 -83.5500957
 141.6546960 159.8170089 -84.0129106 141.4734682 158.0910957 -83.6805586
 143.4473501 158.6565167 -84.2713517 143.2606580 158.4870318 -85.3369247
 143.9325742 157.7610522 -83.8692001 144.4576020 159.8070748 -84.1570692
 144.6901582 159.9877187 -83.1034462 144.0316212 160.7136097 -84.5945435
 145.6328756 159.4210109 -84.8643961 146.2099418 158.2758595 -84.4297250
 145.8317382 157.5746737 -83.5123781 147.3974314 157.9753880 -85.2815756
 147.7867335 158.8358504 -86.3177476 148.8716057 158.5156622 -87.1307548
 149.1379590 159.2008932 -87.9314316 147.2461707 159.7579658 -86.5153943
 148.1266512 156.8001297 -85.0522061 147.8409407 156.1252994 -84.2466662
 149.2174111 156.4798969 -85.8676169 149.7722664 155.5591825 -85.6872820
 149.5865369 157.3301541 -86.9208110 150.7194521 156.9408668 -87.8017919
 151.3773295 155.9296444 -87.6573916 150.8813454 157.8780885 -88.7668988
 151.9421373 157.6574438 -89.7032002 151.7143255 158.2640122 -90.5871643
 151.9540974 156.6107072 -90.0278778 153.2863052 158.0796535 -89.1170026
 154.0764644 157.8822823 -89.8489303 153.5096635 157.4865419 -88.2228294
 153.3077653 159.5518506 -88.7314394 154.2928022 159.8248358 -88.3387479
 152.5650837 159.7733045 -87.9578715 153.0116840 160.4781263 -89.9196323
 152.0199860 160.2522731 -90.3225731 153.7626289 160.3257903 -90.6990709
 153.0584286 161.8200744 -89.4425420 152.1973570 162.0976522 -88.4351581
 151.4061161 161.3303906 -87.9238144 152.3838159 163.5163171 -88.0124442
 153.3075343 164.3523060 -88.6554612 153.4992819 165.6606726 -88.2174443
 154.2318257 166.2765567 -88.7328426 153.8986793 163.9956834 -89.4950664
 151.6331798 164.0167925 -86.9392836 150.9066753 163.3818910 -86.4342962
 151.8245395 165.3314993 -86.5009589 151.2428861 165.7084484 -85.6597166
 152.7697705 166.1559000 -87.1296965 152.9870651 167.5328304 -86.6119953
 152.3750005 168.0133889 -85.6789007 153.9602133 168.1371063 -87.3357758
 154.2911863 169.4811134 -86.9687256 155.2910384 169.6810782 -87.3706284
 154.3600161 169.5739819 -85.8788385 153.2890430 170.4712924 -87.5551812
 153.5593113 171.4852626 -87.2423800 152.2848065 170.2636909 -87.1683650
 153.2387044 170.4053775 -89.0749198 152.5294622 171.1446848 -89.4614754
 152.9164296 169.4180092 -89.4217162 154.6008979 170.6891938 -89.7240193
 155.3315830 169.9506878 -89.3811719 154.9388808 171.6901728 -89.4439165
 154.4326165 170.6005448 -91.1362685 153.9656962 169.4101311 -91.5814836
 153.6946221 168.4375319 -90.9056177 153.8016576 169.4749203 -93.0630226
 154.1466264 170.6266915 -93.7841493 153.9444409 170.6839619 -95.1612078
 154.2132708 171.5971826 -95.6859244 154.5640529 171.4977827 -93.2856273
 153.2750804 168.3683515 -93.7440703 153.0090105 167.4639933 -93.1988510
 153.0740757 168.4254759 -95.1273761 152.6553030 167.5633518 -95.6464825
 153.3949589 169.5900528 -95.8409612 153.1255428 169.6403428 -97.3024860
 152.6596769 168.7173250 -97.9406334 153.4737317 170.8587504 -97.7823531
 153.2822932 171.0738651 -99.1851007 153.2530336 172.1588857 -99.3370557
 152.3102819 170.6799320 -99.5032624 154.4262831 170.4678088 -99.9929737
 154.2414596 170.6335241-101.0594650 154.4691648 169.3848016 -99.8302701
 155.7751922 171.0617506 -99.6132877 156.5675066 170.6228104-100.2285878
 156.0174923 170.8647808 -98.5637551 155.8272418 172.5835415 -99.8105099
 155.0645521 173.0604119 -99.1878262 155.6398833 172.8236555-100.8602198
 157.1267641 173.0241205 -99.4261184 157.4760776 172.7272199 -98.1520908
 156.7973056 172.1446843 -97.3298099 158.8660954 173.2090594 -97.9036055
 159.5898168 173.8870531 -98.8946433 160.9023157 174.2897867 -98.6588441
 161.4366172 174.8032074 -99.4541366 159.1496340 174.0997576 -99.8655011
 159.4658470 172.9624006 -96.6606005 158.9140833 172.4432706 -95.8783078
 160.7833272 173.3688376 -96.4234171 161.2440650 173.1640978 -95.4570309
 161.5132203 174.0225305 -97.4275838 162.9273720 174.3998169 -97.1649070
 163.5007713 174.1996240 -96.1125948 163.4503860 174.9821743 -98.2709546
 164.8130434 175.4138384 -98.1846124 165.1798839 175.5089944 -99.2130040
 165.4264334 174.6483908 -97.6956761 164.9171094 176.7584020 -97.4704731
 165.9702347 177.0511785 -97.4054030 164.5354107 176.6711268 -96.4468007
 164.1300412 177.8493136 -98.1824557 164.2474324 178.8031264 -97.6575887
 163.0611309 177.6140509 -98.2157297 164.5910014 178.0602495 -99.6317573
 164.4622211 177.1321144-100.1963961 165.6455047 178.3475647 -99.6427891
 163.7896037 179.0963934-100.1928212 162.4568872 178.8576719-100.1788686
 161.9012267 177.8650194 -99.7521280 161.7453644 180.0353522-100.7558160
 162.4502280 181.1451044-101.2428700 161.7667444 182.2538517-101.7368119
 162.3458905 183.1007525-102.0958631 163.5369260 181.1689179-101.2334224
 160.3439010 180.0389452-100.7944322 159.7824792 179.1814469-100.4264331
 159.6578334 181.1518085-101.2924760 158.5679717 181.1489007-101.3095970
 160.3667258 182.2714136-101.7533066 159.6112032 183.4593954-102.2319022
 158.3986192 183.5222834-102.2756071 160.4833321 184.4312007-102.5938564
 159.9163007 185.6500789-103.0872480 160.6872740 186.4220179-102.9827188
 159.0690369 185.9576199-102.4637269 159.5150574 185.5131297-104.5531692
 159.0700008 186.4536800-104.8942188 158.7561566 184.7301636-104.6638472
 160.6989521 185.1600504-105.4421079 160.3797014 185.0945821-106.4874872
 161.1343351 184.1948088-105.1632255
