
; NVT Equilibration Parameters
; ----------------------------
; This MDP file is used for NVT equilibration at 400 K.

; Run parameters
integrator              = md            ; Leap-frog integrator
nsteps                  = 500000        ; Number of steps (1000 ps)
dt                      = 0.002         ; Time step (ps)

; Output control
nstxout-compressed      = 1000           ; Write compressed coordinates every 2 ps
nstenergy               = 1000           ; Write energies every 2 ps
nstlog                  = 1000           ; Write log file every 2 ps

; Bonded parameters
constraints             = h-bonds       ; Constrain bonds involving hydrogen
constraint_algorithm    = lincs         ; LINCS algorithm for constraints

; Nonbonded settings
cutoff-scheme           = Verlet        ; Buffered neighbor searching
rlist                   = 1.2           ; Short-range neighbor list cutoff (nm)
rvdw                    = 1.2           ; Short-range van der Waals cutoff (nm)

; Electrostatics settings
coulombtype             = PME           ; Particle Mesh Ewald for long-range electrostatics
rcoulomb                = 1.2           ; Short-range electrostatic cutoff (nm)

; Temperature coupling
tcoupl                  = V-rescale     ; Velocity-rescaling thermostat
tc-grps                 = System        ; Coupling group (entire system)
tau_t                   = 0.1           ; Time constant for temperature coupling (ps)
ref_t                   = 400           ; Reference temperature (K)

; Periodic boundary conditions
pbc                     = xyz           ; Periodic boundary conditions in all directions

; Velocity generation
gen_vel                 = no            ; Do not generate velocities (use velocities from pre-equilibration)
