Generic title in water
 3483
    1PEO     C1    1   5.642   2.856   3.024 -0.2765 -0.2867 -0.4936
    1PEO     H3    2   5.680   2.921   2.944 -0.0413  1.7864  1.2077
    1PEO     H4    3   5.613   2.925   3.104  1.3293  1.8331 -1.6405
    1PEO      O    4   5.543   2.756   2.995  0.2826 -0.1883 -0.5511
    1PEO     C2    5   5.600   2.625   2.950 -0.5848 -0.7168  0.3590
    1PEO     H5    6   5.694   2.612   3.005 -1.1564  0.6586  1.7465
    1PEO     H6    7   5.621   2.637   2.843 -1.1035  1.1213  0.4245
    1PEO     C3    8   5.513   2.505   2.983  0.0004  0.1509  0.1912
    1PEO     H7    9   5.442   2.537   3.060  0.8505  2.3032  0.1563
    1PEO     H8   10   5.581   2.432   3.030  2.7960  0.9620 -2.2517
    1PEO     O1   11   5.439   2.456   2.869 -0.0299 -0.7330 -0.1929
    1PEO     C4   12   5.327   2.528   2.821 -0.5766 -0.2032  0.2474
    1PEO     H9   13   5.296   2.498   2.721 -0.5443 -0.1588  0.2244
    1PEO    H10   14   5.336   2.635   2.803  0.4965 -0.3961 -0.4596
    1PEO     C5   15   5.212   2.489   2.901 -0.0386 -0.4134  0.3182
    1PEO    H11   16   5.218   2.382   2.927 -2.4529 -1.5751 -3.1027
    1PEO    H12   17   5.122   2.481   2.838 -0.3730 -1.8026  0.9330
    1PEO     O2   18   5.197   2.571   3.022 -0.6955  0.3175 -0.6319
    1PEO     C6   19   5.170   2.715   3.008  0.5426 -0.4854 -0.0074
    1PEO    H13   20   5.256   2.777   2.978 -1.0309  3.2754  2.6239
    1PEO    H14   21   5.140   2.766   3.100  1.1170 -2.1851  1.1853
    1PEO     C7   22   5.061   2.748   2.890 -0.1767  0.2048 -0.4872
    1PEO    H15   23   5.021   2.837   2.940 -1.3187 -0.4915 -0.1160
    1PEO    H16   24   4.970   2.686   2.893  1.7019 -2.7001  1.1285
    1PEO     O3   25   5.131   2.783   2.766 -0.1750  0.4928  0.5681
    1PEO     C8   26   5.044   2.855   2.670 -0.2634  0.4411 -0.1732
    1PEO    H17   27   4.954   2.794   2.652  0.0274  0.1584 -0.6817
    1PEO    H18   28   5.090   2.868   2.571  0.2903 -0.0414  0.0208
    1PEO     C9   29   4.995   3.002   2.707  0.1414 -0.9826 -0.4664
    1PEO    H19   30   4.898   3.011   2.757  0.5223  2.2531 -0.1057
    1PEO    H20   31   4.975   3.053   2.612  2.3641 -0.3193 -0.6469
    1PEO     O4   32   5.094   3.078   2.775  0.2665  0.3015  0.5856
    1PEO    C10   33   5.210   3.111   2.707  1.1912  0.6840 -0.2820
    1PEO    H21   34   5.199   3.186   2.627  0.5378  2.7960  1.6799
    1PEO    H22   35   5.258   3.035   2.645 -3.5453 -1.9146 -1.2017
    2PEO     C1   36   5.325   3.149   2.815  0.7719 -0.3019  0.0554
    2PEO     H3   37   5.419   3.124   2.764  1.0337 -2.3510  1.4188
    2PEO     H4   38   5.326   3.098   2.913  1.7216  0.6633  0.5633
    2PEO      O   39   5.317   3.292   2.836  0.5922 -0.7248 -0.3083
    2PEO     C2   40   5.421   3.349   2.914 -0.5580 -0.5201 -0.5123
    2PEO     H5   41   5.508   3.350   2.847 -0.0310 -3.5048 -0.0281
    2PEO     H6   42   5.446   3.288   3.002  0.3234  1.9911  1.0891
    2PEO     C3   43   5.386   3.499   2.951  0.0888 -0.9007  0.7976
    2PEO     H7   44   5.326   3.544   2.871  0.7379 -2.4423 -0.6137
    2PEO     H8   45   5.477   3.561   2.957 -1.1243  0.8405  2.1948
    2PEO     O1   46   5.317   3.498   3.077 -0.4447  0.6779 -0.4501
    2PEO     C4   47   5.402   3.480   3.194 -0.0014  0.2111 -0.3867
    2PEO     H9   48   5.462   3.569   3.215  1.0898 -0.7866  0.9515
    2PEO    H10   49   5.481   3.405   3.189  1.9547  1.9292  2.1298
    2PEO     C5   50   5.316   3.442   3.324 -0.0050 -0.7748  0.0799
    2PEO    H11   51   5.231   3.511   3.315  1.3766  1.0236  0.3969
    2PEO    H12   52   5.375   3.449   3.416  1.0671  0.9134 -0.7035
    2PEO     O2   53   5.264   3.311   3.316 -0.7465 -0.1016 -0.1965
    2PEO     C6   54   5.342   3.205   3.356  0.1711 -0.6272  0.5853
    2PEO    H13   55   5.356   3.202   3.465 -1.2937 -1.0233  0.7733
    2PEO    H14   56   5.442   3.217   3.311 -0.4327 -1.3768 -1.0135
    2PEO     C7   57   5.271   3.074   3.309 -0.3986  0.4459 -0.9044
    2PEO    H15   58   5.342   2.990   3.306 -1.0304 -0.3168  2.2268
    2PEO    H16   59   5.217   3.104   3.218 -1.3413  2.5800  0.2773
    2PEO     O3   60   5.161   3.052   3.405 -0.1207 -0.1206 -0.6028
    2PEO     C8   61   5.077   2.938   3.382 -0.1675 -0.5997 -1.1403
    2PEO    H17   62   5.144   2.851   3.370 -1.9275 -2.2509  0.4457
    2PEO    H18   63   5.028   2.965   3.287  4.1758  3.4218 -2.6384
    2PEO     C9   64   4.983   2.909   3.505 -0.6186  0.5082  1.0821
    2PEO    H19   65   5.027   2.957   3.593 -2.0773  4.4616 -0.1462
    2PEO    H20   66   4.949   2.805   3.495 -0.7208  0.7595 -2.1066
    2PEO     O4   67   4.875   2.998   3.479  0.5136 -0.0795 -0.2813
    2PEO    C10   68   4.769   2.984   3.570 -0.6601 -0.1786 -0.7535
    2PEO    H21   69   4.704   3.073   3.574 -1.5176 -0.8329  0.3864
    2PEO    H22   70   4.817   2.968   3.667  4.0666  0.3080 -2.7153
    3PEO     C1   71   4.671   2.879   3.517 -0.7283  0.4719  0.2263
    3PEO     H3   72   4.620   2.842   3.607 -2.3233 -1.2020 -1.2857
    3PEO     H4   73   4.728   2.792   3.484  1.5422  0.9792  2.4531
    3PEO      O   74   4.572   2.924   3.424 -0.0534 -0.4170 -0.0422
    3PEO     C2   75   4.626   2.979   3.303 -0.7891  0.4187  0.0262
    3PEO     H5   76   4.666   2.906   3.231 -0.7364  0.6425 -0.1726
    3PEO     H6   77   4.701   3.058   3.310 -0.4445  0.0497  0.5505
    3PEO     C3   78   4.493   3.026   3.244 -1.0931 -0.1334 -0.6025
    3PEO     H7   79   4.437   2.931   3.247 -0.7035 -0.3795  2.1285
    3PEO     H8   80   4.510   3.071   3.146  2.2261  0.4294  0.0909
    3PEO     O1   81   4.429   3.118   3.342  0.4077  0.5332  0.2834
    3PEO     C4   82   4.490   3.242   3.360 -0.0128 -0.6695 -1.0573
    3PEO     H9   83   4.538   3.283   3.271  0.5823 -0.6941 -0.7494
    3PEO    H10   84   4.574   3.235   3.430 -0.9699  2.1663  0.5176
    3PEO     C5   85   4.383   3.341   3.422  0.0927  0.9523  0.0896
    3PEO    H11   86   4.446   3.399   3.491  0.4862 -0.1116  0.6525
    3PEO    H12   87   4.300   3.286   3.467 -1.4305  0.1966 -3.3333
    3PEO     O2   88   4.343   3.428   3.316  0.4237  0.0034 -0.2369
    3PEO     C6   89   4.236   3.533   3.354 -1.3411  0.3396  0.3791
    3PEO    H13   90   4.146   3.495   3.404 -0.9693  1.1500  1.6982
    3PEO    H14   91   4.201   3.590   3.267  0.5554 -0.4566 -0.9814
    3PEO     C7   92   4.310   3.639   3.446  0.1284 -0.2969  0.2419
    3PEO    H15   93   4.404   3.596   3.485  0.5891  0.2570 -0.2365
    3PEO    H16   94   4.238   3.654   3.527 -2.2372 -1.8164 -1.4507
    3PEO     O3   95   4.343   3.760   3.363  0.1988 -0.0322 -0.7263
    3PEO     C8   96   4.451   3.754   3.270 -0.7856  0.0005  0.6784
    3PEO    H17   97   4.457   3.847   3.213  2.4961  0.0215  0.8585
    3PEO    H18   98   4.434   3.676   3.195  0.1610  1.9007 -1.6212
    3PEO     C9   99   4.583   3.736   3.345  0.5521 -0.1685 -0.0136
    3PEO    H19  100   4.568   3.791   3.439  0.8475  2.3975 -1.3758
    3PEO    H20  101   4.654   3.786   3.279 -2.0969  0.1923 -2.8098
    3PEO     O4  102   4.606   3.593   3.356  0.7404 -0.1549 -0.1084
    3PEO    C10  103   4.708   3.564   3.454 -0.0395 -0.6868  0.6475
    3PEO    H21  104   4.691   3.467   3.502  0.8066 -1.0879  0.1587
    3PEO    H22  105   4.703   3.637   3.535 -0.1788  1.4103 -1.1506
    4PEO     C1  106   4.848   3.586   3.387  0.2311 -0.6520  0.1016
    4PEO     H3  107   4.932   3.574   3.457  0.0383  0.9409  0.6551
    4PEO     H4  108   4.866   3.686   3.344  2.1786 -0.0998  1.9901
    4PEO      O  109   4.862   3.494   3.283  0.0969  0.6266 -0.0347
    4PEO     C2  110   4.907   3.354   3.325  0.3290  0.0872  0.5353
    4PEO     H5  111   4.837   3.305   3.394 -1.0930  0.3372 -0.6686
    4PEO     H6  112   5.001   3.364   3.379  2.5481 -0.1808 -2.9437
    4PEO     C3  113   4.926   3.273   3.188 -0.0750  0.0348  0.1937
    4PEO     H7  114   4.989   3.185   3.208  0.2403 -0.2636 -1.8817
    4PEO     H8  115   4.974   3.336   3.112 -2.7733  0.8321 -0.9898
    4PEO     O1  116   4.798   3.245   3.140 -0.8368  0.3706  0.1393
    4PEO     C4  117   4.795   3.170   3.014 -0.3961  0.9922 -0.1917
    4PEO     H9  118   4.715   3.095   3.024  0.3018  0.5330  3.1943
    4PEO    H10  119   4.887   3.118   2.985  0.3720  3.3217 -2.2323
    4PEO     C5  120   4.750   3.278   2.902  0.2162 -0.1340  0.3008
    4PEO    H11  121   4.800   3.232   2.815  0.3606 -3.4098  1.9543
    4PEO    H12  122   4.784   3.378   2.932 -1.4698  1.5387 -2.7582
    4PEO     O2  123   4.598   3.283   2.887  0.2213  0.2904 -0.3990
    4PEO     C6  124   4.523   3.331   3.009  0.0141 -0.3697  0.3973
    4PEO    H13  125   4.581   3.394   3.077  1.4517 -2.0978  0.8384
    4PEO    H14  126   4.488   3.244   3.066  1.1646 -0.1699  1.4606
    4PEO     C7  127   4.399   3.419   2.967  0.8282  0.7166 -0.3220
    4PEO    H15  128   4.341   3.434   3.059  1.3883 -2.8461  0.7989
    4PEO    H16  129   4.343   3.356   2.897  0.5078  1.4053 -0.6877
    4PEO     O3  130   4.429   3.541   2.897 -0.2047  0.1706 -0.3409
    4PEO     C8  131   4.331   3.646   2.908 -0.3778  0.0645  0.3350
    4PEO    H17  132   4.365   3.736   2.856 -0.5938  0.0890  0.2336
    4PEO    H18  133   4.330   3.676   3.014 -1.7833  0.4907  0.2307
    4PEO     C9  134   4.188   3.610   2.842 -0.7180 -0.3264  0.0326
    4PEO    H19  135   4.206   3.588   2.736  2.0088 -2.4501  0.8201
    4PEO    H20  136   4.123   3.697   2.830 -0.7980 -0.4844 -0.7337
    4PEO     O4  137   4.123   3.492   2.894 -0.3378 -0.2380 -0.8276
    4PEO    C10  138   4.036   3.513   3.010 -0.4225 -0.3902  0.6542
    4PEO    H21  139   4.076   3.590   3.077  1.2482 -1.0163  0.4127
    4PEO    H22  140   4.014   3.423   3.069 -2.6964  0.1597  0.7761
    5PEO     C1  141   3.908   3.568   2.953 -0.6941  0.5897 -1.0410
    5PEO     H3  142   3.883   3.544   2.849  0.2442  0.4400 -1.2399
    5PEO     H4  143   3.919   3.677   2.949 -3.1007  1.1338  2.4381
    5PEO      O  144   3.804   3.549   3.055  0.2620 -0.0316 -0.2499
    5PEO     C2  145   3.823   3.625   3.183 -0.1519 -0.2118 -0.5347
    5PEO     H5  146   3.927   3.616   3.216  0.4804 -2.2491 -2.8151
    5PEO     H6  147   3.765   3.578   3.264  0.1796 -1.9818 -1.2755
    5PEO     C3  148   3.777   3.771   3.169 -0.8375  0.2450  0.7002
    5PEO     H7  149   3.831   3.815   3.084 -3.4839 -1.7696 -2.2473
    5PEO     H8  150   3.812   3.834   3.252  1.9204  1.4746 -1.2476
    5PEO     O1  151   3.640   3.775   3.138 -0.5699  0.2425  0.2327
    5PEO     C4  152   3.551   3.711   3.230  0.3723 -0.5445  0.5214
    5PEO     H9  153   3.569   3.603   3.231 -0.2822 -0.6666  2.2794
    5PEO    H10  154   3.449   3.742   3.205  0.4057  0.8081  1.8682
    5PEO     C5  155   3.553   3.777   3.377 -0.0509 -0.0337  0.0837
    5PEO    H11  156   3.456   3.761   3.426 -0.7969  0.1291 -1.2596
    5PEO    H12  157   3.566   3.885   3.358  0.2496  0.3963  2.4370
    5PEO     O2  158   3.654   3.719   3.458  0.3029 -0.4843  0.0163
    5PEO     C6  159   3.661   3.768   3.598  0.5893  0.3400  0.6929
    5PEO    H13  160   3.578   3.745   3.665  0.4973 -1.4453  0.0218
    5PEO    H14  161   3.684   3.875   3.602  2.4028  0.0458 -0.3487
    5PEO     C7  162   3.788   3.707   3.650  0.4422 -0.6911 -0.0776
    5PEO    H15  163   3.868   3.732   3.580  0.7450  4.1115  1.5750
    5PEO    H16  164   3.776   3.598   3.651  1.3172 -0.8232  1.8316
    5PEO     O3  165   3.834   3.757   3.780  0.1404 -0.8710  0.0539
    5PEO     C8  166   3.916   3.660   3.853 -0.4936  0.2346  0.2896
    5PEO    H17  167   4.022   3.656   3.825 -0.8705  1.1309 -1.4120
    5PEO    H18  168   3.882   3.559   3.829 -0.1665  0.5962 -1.8976
    5PEO     C9  169   3.898   3.670   4.009  0.2540 -0.2341 -0.3904
    5PEO    H19  170   3.937   3.580   4.056  1.1130 -0.8273 -2.1594
    5PEO    H20  171   3.790   3.682   4.028  0.4717  2.4297 -0.3873
    5PEO     O4  172   3.986   3.782   4.054  0.3095 -0.1297 -0.0537
    5PEO    C10  173   4.022   3.787   4.198  1.1759  0.0553 -0.0362
    5PEO    H21  174   3.937   3.784   4.267  3.2626 -1.0644  2.6733
    5PEO    H22  175   4.069   3.886   4.207  0.3857  0.3205  1.4063
    6PET     C9  176   4.126   3.679   4.239 -0.7157  0.6692 -0.2714
    6PET     H6  177   4.094   3.579   4.208 -1.8142  0.3778  1.6502
    6PET     H7  178   4.148   3.679   4.346 -2.3679 -1.2547  0.1270
    6PET     O2  179   4.249   3.707   4.157 -0.2540  0.0256  0.1651
    6PET     C8  180   4.356   3.616   4.131  0.2125  0.3596 -0.7605
    6PET     O1  181   4.353   3.503   4.174  0.3657  0.6026  0.0303
    6PET     C4  182   4.458   3.663   4.039 -0.5272  0.3413 -0.2725
    6PET     C5  183   4.587   3.614   4.046 -0.1390 -0.3316 -0.3369
    6PET     C6  184   4.694   3.666   3.966 -0.5739 -0.2975 -0.1748
    6PET     H4  185   4.794   3.634   3.993  0.9205  0.7185 -3.8455
    6PET     H3  186   4.598   3.534   4.119 -3.2832  1.8072  2.7973
    6PET     C3  187   4.437   3.758   3.937  0.4348 -0.9286 -0.1199
    6PET     H2  188   4.338   3.802   3.929 -0.0662 -1.7422  1.1728
    6PET     C2  189   4.530   3.794   3.843 -0.9605 -0.5768 -0.4459
    6PET     H1  190   4.495   3.860   3.765 -1.8464  0.6074  0.8972
    6PET     C1  191   4.666   3.748   3.855  0.3525 -0.3562  0.1855
    6PET     C7  192   4.766   3.820   3.771  0.3981  0.6998 -0.1123
    6PET     O3  193   4.738   3.889   3.676 -0.6637 -0.3588  0.1245
    6PET     O4  194   4.894   3.811   3.816  0.6640  0.1103 -0.0191
    6PET    C10  195   5.003   3.863   3.736 -0.7724  0.2895 -0.6875
    6PET     H8  196   5.004   3.968   3.766  2.4128 -0.4820  2.5915
    6PET     H9  197   4.984   3.856   3.628  1.8694  1.3717 -1.3043
    6PET    C11  198   5.135   3.795   3.793  0.2710 -0.0107 -0.4413
    6PET    H10  199   5.136   3.803   3.903 -2.3288 -2.5311 -0.1280
    6PET    H11  200   5.228   3.848   3.765 -2.5384  3.7741 -3.8383
    6PET    C12  201   5.159   3.661   3.747 -0.2426  0.5395  0.1755
    6PET    H13  202   5.258   3.621   3.774 -0.3195 -2.1201 -2.7818
    6PET    H14  203   5.157   3.648   3.638  0.8291 -2.6036  0.4249
    7PET     C9  204   5.074   3.557   3.834  0.5633  1.2442  0.7964
    7PET     H6  205   4.968   3.563   3.806  0.0737 -2.7429  1.1885
    7PET     H7  206   5.084   3.569   3.942 -1.1307  0.4936  1.0743
    7PET     O2  207   5.111   3.426   3.799 -0.4815  0.2211 -0.3660
    7PET     C8  208   5.040   3.325   3.851  0.0010 -0.0438 -0.1212
    7PET     O1  209   4.968   3.337   3.951  0.5551 -0.6322  0.8661
    7PET     C4  210   5.082   3.190   3.791 -0.5886 -1.2505  0.1005
    7PET     C5  211   5.192   3.178   3.708 -0.2170  0.5964 -0.3284
    7PET     C6  212   5.248   3.045   3.698 -0.7663 -0.2427  0.1471
    7PET     H4  213   5.331   3.044   3.628 -1.0260  0.2180 -0.1757
    7PET     H3  214   5.244   3.266   3.672  0.4685  0.8920  1.2878
    7PET     C3  215   5.028   3.083   3.858  0.0761  0.4096 -0.1589
    7PET     H2  216   4.955   3.091   3.937  0.4314  1.8711  0.0536
    7PET     C2  217   5.082   2.955   3.834  0.6968 -0.3490  1.0182
    7PET     H1  218   5.022   2.883   3.889 -0.6106 -0.2421 -0.2249
    7PET     C1  219   5.192   2.934   3.755  0.3982  0.4773 -0.2929
    7PET     C7  220   5.231   2.796   3.708 -0.4822 -0.4289 -0.1533
    7PET     O3  221   5.209   2.687   3.767  0.5195 -0.9380  0.3448
    7PET     O4  222   5.304   2.795   3.592  0.0743 -0.4701 -0.7027
    7PET    C10  223   5.335   2.663   3.535  0.2723  0.3626  0.6176
    7PET     H8  224   5.247   2.604   3.508 -0.3688  1.9369 -0.8885
    7PET     H9  225   5.403   2.613   3.605 -0.4099  3.1155  3.4618
    7PET    C11  226   5.425   2.694   3.409 -0.0346 -0.5770  0.1747
    7PET    H10  227   5.413   2.799   3.378 -1.3358 -0.6411  0.3821
    7PET    H11  228   5.390   2.625   3.332 -1.1597  2.0174 -1.8032
    7PET    C12  229   5.576   2.679   3.442 -0.6886  0.6707  0.5822
    7PET    H13  230   5.588   2.708   3.547  1.4894 -0.3009  0.6663
    7PET    H14  231   5.635   2.751   3.385 -0.1072  0.6606  1.1685
    8PET     C9  232   5.627   2.541   3.412  0.5397 -0.0705  0.0345
    8PET     H6  233   5.735   2.524   3.420  0.4876 -0.5687 -0.2681
    8PET     H7  234   5.592   2.534   3.308 -0.4931 -4.4755  0.4926
    8PET     O2  235   5.560   2.431   3.482  0.4038  0.5060  0.6150
    8PET     C8  236   5.572   2.305   3.431  0.4451 -0.6121 -0.5031
    8PET     O1  237   5.642   2.268   3.339 -0.2285 -0.1429 -0.2490
    8PET     C4  238   5.510   2.206   3.520 -0.2272 -0.7303  0.6901
    8PET     C5  239   5.436   2.242   3.634 -0.7276 -0.7418  0.2244
    8PET     C6  240   5.367   2.144   3.714 -0.2480 -0.2788  0.8992
    8PET     H4  241   5.311   2.171   3.804  1.3921 -1.2560  2.2870
    8PET     H3  242   5.406   2.344   3.655  0.8859 -0.7012  2.7584
    8PET     C3  243   5.524   2.066   3.502  0.6082  0.3911 -0.1592
    8PET     H2  244   5.590   2.023   3.427 -2.2160 -2.1268 -1.3866
    8PET     C2  245   5.462   1.967   3.582  0.2517 -0.3052 -0.1859
    8PET     H1  246   5.484   1.861   3.572  0.0307 -0.4105  0.4111
    8PET     C1  247   5.387   2.006   3.693  0.3994  0.0071 -0.0322
    8PET     C7  248   5.304   1.903   3.769 -0.0411  0.3438  0.7478
    8PET     O3  249   5.265   1.916   3.886  0.5875 -0.2245  0.2324
    8PET     O4  250   5.262   1.799   3.688  1.0703  0.4244  0.3408
    8PET    C10  251   5.175   1.694   3.740 -1.2519 -0.1656  1.3478
    8PET     H8  252   5.080   1.733   3.778 -0.7433  1.0887  1.3666
    8PET     H9  253   5.224   1.639   3.821  1.0829 -1.7063 -0.9410
    8PET    C11  254   5.133   1.587   3.629  0.5546 -0.8043 -0.0839
    8PET    H10  255   5.121   1.642   3.535  2.4551 -0.1117  0.0508
    8PET    H11  256   5.037   1.545   3.661  2.2630 -4.2614  0.9774
    8PET    C12  257   5.234   1.478   3.612 -0.4189 -0.6478  0.5275
    8PET    H13  258   5.242   1.398   3.686 -0.7238 -2.9081 -1.7522
    8PET    H14  259   5.334   1.524   3.619 -0.3078 -0.8091  0.0514
    9PET     C9  260   5.225   1.406   3.475 -0.0080  0.3175  0.0996
    9PET     H6  261   5.123   1.374   3.449  1.2107 -3.1331 -1.0137
    9PET     H7  262   5.291   1.318   3.478 -1.0907 -0.4885  1.7100
    9PET     O2  263   5.261   1.487   3.362 -0.0714  0.1137  0.3230
    9PET     C8  264   5.225   1.440   3.233  0.0353  0.8518 -0.1170
    9PET     O1  265   5.159   1.337   3.215 -0.1606  0.0221 -0.1410
    9PET     C4  266   5.281   1.516   3.104  0.4605 -0.2320 -0.0633
    9PET     C5  267   5.367   1.624   3.120  0.7205  0.0803 -0.0233
    9PET     C6  268   5.419   1.691   3.017 -0.3799 -0.0153  0.8957
    9PET     H4  269   5.487   1.775   3.028 -1.3488  1.3949 -2.6061
    9PET     H3  270   5.405   1.654   3.217  0.8971 -1.2305  0.3282
    9PET     C3  271   5.227   1.491   2.987 -0.0735 -0.2378  0.7455
    9PET     H2  272   5.151   1.416   2.965 -1.6622  0.8554  2.2382
    9PET     C2  273   5.261   1.577   2.875 -0.1470  0.2951  0.4721
    9PET     H1  274   5.209   1.573   2.780  0.2201 -1.1601  0.3071
    9PET     C1  275   5.369   1.665   2.887 -0.1988  0.0881  0.4656
    9PET     C7  276   5.405   1.754   2.778  0.1525  0.2076  0.1220
    9PET     O3  277   5.316   1.798   2.704  0.2127  0.1221  0.4516
    9PET     O4  278   5.529   1.796   2.787 -0.3726 -0.0057  0.5918
    9PET    C10  279   5.584   1.871   2.683  0.6489 -0.0154 -0.0279
    9PET     H8  280   5.511   1.936   2.634 -0.5356 -3.6703 -3.7547
    9PET     H9  281   5.626   1.808   2.604  3.8139 -2.2022  3.0801
    9PET    C11  282   5.709   1.930   2.745  0.2222  0.3469  0.1635
    9PET    H10  283   5.790   1.950   2.673 -0.3815 -0.3860 -0.7389
    9PET    H11  284   5.754   1.848   2.802 -0.9879 -2.2092 -2.2893
    9PET    C12  285   5.690   2.063   2.821  0.5254  0.4852 -0.8605
    9PET    H13  286   5.776   2.072   2.889 -0.5624  1.3036  0.4617
    9PET    H14  287   5.609   2.028   2.885  1.2126 -0.0757 -0.2743
   10PET     C9  288   5.666   2.190   2.734 -0.9825 -0.8218 -0.1620
   10PET     H6  289   5.729   2.189   2.645 -1.9506  0.2053 -0.8824
   10PET     H7  290   5.692   2.281   2.790  3.2485 -0.2322 -2.7047
   10PET     O2  291   5.538   2.189   2.700  0.0172  0.3239 -0.1439
   10PET     C8  292   5.486   2.296   2.620  1.1671 -0.6855  0.1319
   10PET     O1  293   5.564   2.385   2.571  0.0049  0.2546 -0.1025
   10PET     C4  294   5.340   2.284   2.585 -0.0630  0.1589  0.2321
   10PET     C5  295   5.254   2.206   2.665  0.2535 -0.6177  0.2130
   10PET     C6  296   5.124   2.166   2.629  0.2244 -0.2222 -0.2563
   10PET     H4  297   5.074   2.087   2.685  0.9326  0.0758  0.8235
   10PET     H3  298   5.301   2.143   2.740 -0.4031 -1.0194  0.2940
   10PET     C3  299   5.271   2.366   2.491  0.0362  0.1419  0.4144
   10PET     H2  300   5.337   2.436   2.441 -0.3634  0.6297  0.5558
   10PET     C2  301   5.143   2.324   2.447 -0.9155 -0.2727 -0.1888
   10PET     H1  302   5.105   2.359   2.352 -2.1559 -1.5581 -0.2036
   10PET     C1  303   5.068   2.232   2.517  0.6284 -0.0054  0.6947
   10PET     C7  304   4.937   2.185   2.478  0.1556 -0.1417  0.0294
   10PET     O3  305   4.874   2.240   2.384 -0.3488  0.4034 -0.4102
   10PET     O4  306   4.885   2.079   2.547 -0.1673  0.0577 -0.0657
   10PET    C10  307   4.747   2.032   2.521 -0.5563 -0.2827  0.2174
   10PET     H8  308   4.729   2.040   2.413 -1.3601  1.6766  0.4785
   10PET     H9  309   4.668   2.097   2.560 -0.2500  1.4850 -1.9445
   10PET    C11  310   4.747   1.879   2.574 -0.5008 -0.2727  0.5770
   10PET    H10  311   4.831   1.831   2.522 -0.8646 -1.7934  1.3315
   10PET    H11  312   4.661   1.822   2.535  0.2827 -1.0428 -0.0635
   10PET    C12  313   4.772   1.865   2.720  0.4275  0.3935  0.4176
   10PET    H13  314   4.870   1.911   2.739  0.0596  1.9784 -1.2056
   10PET    H14  315   4.774   1.757   2.736 -1.6281  0.4477  1.4203
   11PET     C9  316   4.661   1.920   2.810 -0.7886  0.1856  0.2659
   11PET     H6  317   4.570   1.862   2.790 -1.8092  2.6691 -3.1680
   11PET     H7  318   4.631   2.024   2.791  1.8915  0.9008 -0.4883
   11PET     O2  319   4.709   1.896   2.944 -0.4134 -0.4149  0.0702
   11PET     C8  320   4.775   1.998   3.012  0.3986 -0.0657  0.7421
   11PET     O1  321   4.827   2.094   2.955 -0.0810 -0.4375 -0.0175
   11PET     C4  322   4.782   1.973   3.161 -0.1276  0.6979 -0.7695
   11PET     C5  323   4.859   2.068   3.239 -0.5948  0.2590  0.3896
   11PET     C6  324   4.880   2.047   3.376 -0.0794 -0.3668 -0.4728
   11PET     H4  325   4.947   2.114   3.430  0.1494  1.0257 -2.4127
   11PET     H3  326   4.906   2.148   3.182 -4.0236  0.0412 -3.1333
   11PET     C3  327   4.731   1.863   3.229  1.0374  0.4162 -0.5761
   11PET     H2  328   4.674   1.789   3.173  2.7624 -2.1886  0.9153
   11PET     C2  329   4.734   1.852   3.371 -0.7103 -0.1509  1.0571
   11PET     H1  330   4.674   1.773   3.415  1.7901 -2.0993  1.1998
   11PET     C1  331   4.807   1.942   3.445 -0.2156 -0.0068  0.3432
   11PET     C7  332   4.822   1.920   3.605 -0.2207  0.9784 -0.0918
   11PET     O3  333   4.898   1.993   3.670 -0.0562 -0.1787 -1.3991
   11PET     O4  334   4.776   1.804   3.648  0.0402 -0.2180  1.1120
   11PET    C10  335   4.766   1.792   3.789 -0.2583 -0.7361  0.2667
   11PET     H8  336   4.866   1.792   3.834 -0.8229 -0.0130  1.6065
   11PET     H9  337   4.714   1.697   3.805 -2.9872  0.6286 -0.0251
   11PET    C11  338   4.686   1.909   3.853 -0.2459 -0.0347 -0.1076
   11PET    H10  339   4.722   2.012   3.843 -1.7122  0.8741  2.8177
   11PET    H11  340   4.694   1.879   3.958 -1.5517 -1.5698 -0.3930
   11PET    C12  341   4.530   1.894   3.835 -0.3192  0.1163 -0.3826
   11PET    H13  342   4.485   1.794   3.840  0.7371 -0.3851 -0.7259
   11PET    H14  343   4.519   1.926   3.731  0.4476  1.5655 -0.0574
   12PET     C9  344   4.456   1.979   3.941 -0.3633 -0.2365  0.8919
   12PET     H6  345   4.479   2.083   3.913 -0.9266 -0.1406  0.7615
   12PET     H7  346   4.490   1.958   4.043 -0.0025  2.4537  1.3865
   12PET     O2  347   4.319   1.951   3.919 -0.1769  0.0386  0.1246
   12PET     C8  348   4.260   1.830   3.973 -0.4742  0.3042  0.1119
   12PET     O1  349   4.306   1.750   4.057  0.2150 -0.7618  0.1255
   12PET     C4  350   4.125   1.798   3.919 -0.3919  0.0522 -0.2784
   12PET     C5  351   4.034   1.900   3.910  0.4343  0.2199  0.3080
   12PET     C6  352   3.907   1.881   3.857  0.1203 -0.2505  0.4270
   12PET     H4  353   3.837   1.964   3.857 -0.4556 -0.6906  1.8285
   12PET     H3  354   4.057   1.987   3.970 -0.3784  0.0953  0.8178
   12PET     C3  355   4.087   1.670   3.865 -0.3367  0.4584 -0.6226
   12PET     H2  356   4.162   1.592   3.854 -0.4292  0.1768  0.5545
   12PET     C2  357   3.965   1.650   3.808 -0.3543 -0.6637 -0.4044
   12PET     H1  358   3.940   1.564   3.748 -0.6961  0.3071 -1.6993
   12PET     C1  359   3.866   1.752   3.806  0.1689  1.3162 -0.8162
   12PET     C7  360   3.736   1.733   3.734 -0.0979 -0.0964  0.0493
   12PET     O3  361   3.717   1.647   3.650  0.3869 -0.3196 -0.0865
   12PET     O4  362   3.656   1.845   3.736  0.1372 -0.7026 -0.0658
   12PET    C10  363   3.526   1.846   3.670  0.1857  0.0999  0.4539
   12PET     H8  364   3.450   1.800   3.735 -1.6128 -1.5985 -2.6199
   12PET     H9  365   3.529   1.784   3.579  0.7028  0.1748  0.4192
   12PET    C11  366   3.478   1.992   3.637 -0.5206  0.2835 -0.6990
   12PET    H10  367   3.482   2.051   3.730 -2.4941  2.4242 -1.8813
   12PET    H11  368   3.374   1.978   3.608 -2.9828  1.4225  5.8728
   12PET    C12  369   3.554   2.069   3.518  1.0121  0.6200 -0.6457
   12PET    H13  370   3.498   2.159   3.489  0.2101  0.0879 -0.8105
   12PET    H14  371   3.559   1.993   3.439 -0.1156 -1.2475  0.9676
   13PET     C9  372   3.694   2.112   3.563 -0.4754  0.1273  0.1278
   13PET     H6  373   3.701   2.139   3.669  0.9747 -1.4211  0.4610
   13PET     H7  374   3.739   2.199   3.514  0.7095  0.0001  0.9711
   13PET     O2  375   3.786   2.002   3.530  0.4298 -0.1339  0.2276
   13PET     C8  376   3.919   2.031   3.525 -1.1765  0.1315 -0.3913
   13PET     O1  377   3.959   2.143   3.528  0.2974  0.1046  0.8786
   13PET     C4  378   4.016   1.915   3.527 -0.7293  0.5875 -0.0662
   13PET     C5  379   3.975   1.784   3.509 -0.7438  0.9156 -0.0225
   13PET     C6  380   4.068   1.679   3.498  0.6648 -0.4073  0.5671
   13PET     H4  381   4.034   1.577   3.484 -2.2435  0.4341  0.6933
   13PET     H3  382   3.869   1.761   3.500 -0.0454 -2.6640 -0.8578
   13PET     C3  383   4.157   1.941   3.531 -0.2183 -0.2836  0.4509
   13PET     H2  384   4.187   2.045   3.541 -1.0247  0.1135 -0.9315
   13PET     C2  385   4.247   1.834   3.530 -0.1537 -0.2453 -0.1983
   13PET     H1  386   4.352   1.857   3.546 -0.2379  0.9214 -1.1673
   13PET     C1  387   4.203   1.704   3.528  0.2116  0.3177 -0.1706
   13PET     C7  388   4.286   1.592   3.515 -0.2439 -1.0764 -0.8370
   13PET     O3  389   4.242   1.479   3.519 -0.3721 -0.7449  1.1998
   13PET     O4  390   4.416   1.622   3.517  0.6480  0.2967  0.1498
   13PET    C10  391   4.516   1.528   3.546 -0.3715 -0.4943 -0.1684
   13PET     H8  392   4.493   1.470   3.637 -3.6809  1.4029  0.3803
   13PET     H9  393   4.602   1.588   3.579 -0.1965 -1.6370  1.6202
   13PET    C11  394   4.539   1.447   3.423  1.2135  0.4114 -0.0410
   13PET    H10  395   4.545   1.510   3.334  1.2066 -0.3359 -0.5792
   13PET    H11  396   4.453   1.384   3.399 -0.4633  1.8137  1.9466
   13PET    C12  397   4.666   1.362   3.420  0.5408  1.3333 -0.0836
   13PET    H13  398   4.656   1.306   3.326  1.4505 -1.2234  1.2390
   13PET    H14  399   4.669   1.285   3.498 -0.3991  0.5819 -0.7489
   14PET     C9  400   4.811   1.428   3.431 -0.1001  0.3501  0.1368
   14PET     H6  401   4.898   1.362   3.427 -1.8667 -2.0719 -1.1791
   14PET     H7  402   4.827   1.478   3.527  1.7194 -0.1456  0.1264
   14PET     O2  403   4.812   1.535   3.345  0.4579  0.5701  0.1420
   14PET     C8  404   4.841   1.518   3.215 -0.6832  0.2159  1.2205
   14PET     O1  405   4.831   1.415   3.147 -0.1898  0.1730  0.2496
   14PET     C4  406   4.935   1.626   3.163 -0.1852  0.1385  0.2641
   14PET     C5  407   4.957   1.648   3.023  0.0968  0.3086 -0.3596
   14PET     C6  408   5.026   1.759   2.979  0.0301 -0.1351  0.5138
   14PET     H4  409   5.025   1.788   2.874  1.3112  1.2804  0.8421
   14PET     H3  410   4.896   1.585   2.959 -2.6135  2.5900 -0.2882
   14PET     C3  411   5.009   1.704   3.264 -0.6262 -0.3539 -0.1567
   14PET     H2  412   4.999   1.684   3.370 -1.0662 -1.1164 -0.3394
   14PET     C2  413   5.090   1.811   3.214  0.6996 -0.9077  0.3682
   14PET     H1  414   5.119   1.885   3.287 -3.7741 -0.1823  1.6988
   14PET     C1  415   5.091   1.839   3.077 -0.5245 -0.1603 -0.3935
   14PET     C7  416   5.174   1.959   3.031 -0.8899 -0.1192 -0.8775
   14PET     O3  417   5.171   2.001   2.916 -0.5176 -0.9028 -0.1078
   14PET     O4  418   5.266   2.002   3.125 -0.0197  0.1293  0.0336
   14PET    C10  419   5.342   2.129   3.108  0.8196  0.1793  0.1199
   14PET     H8  420   5.373   2.142   3.004  1.8775  0.6862  0.4810
   14PET     H9  421   5.434   2.135   3.168  0.0521 -2.4642  1.7061
   14PET    C11  422   5.262   2.248   3.160 -0.3714  0.2778 -0.1754
   14PET    H10  423   5.173   2.252   3.095  0.4298 -1.0660 -1.4204
   14PET    H11  424   5.314   2.339   3.130 -1.7851  1.3655  0.5305
   14PET    C12  425   5.197   2.245   3.298 -0.1696  0.5608 -0.1456
   14PET    H13  426   5.283   2.234   3.364 -1.2041  1.4824  1.4126
   14PET    H14  427   5.138   2.153   3.296  1.6382 -0.6564  0.0191
   15PET     C9  428   5.105   2.369   3.320 -0.3017  0.6604  0.5289
   15PET     H6  429   5.010   2.366   3.264 -0.3016 -0.0761  0.5599
   15PET     H7  430   5.162   2.454   3.282  2.5688 -0.9909  0.8800
   15PET     O2  431   5.079   2.376   3.463 -0.2761 -0.4388 -0.2500
   15PET     C8  432   4.996   2.467   3.530  0.5968  0.6971 -0.3187
   15PET     O1  433   4.946   2.568   3.485 -0.3633 -0.1068  0.7015
   15PET     C4  434   4.962   2.408   3.665 -0.2892  0.5165 -0.0530
   15PET     C5  435   4.875   2.471   3.760 -0.5797  0.0365 -0.1432
   15PET     C6  436   4.842   2.414   3.880 -0.4954 -0.6219 -0.1525
   15PET     H4  437   4.775   2.472   3.942  1.3391  1.2265  0.1798
   15PET     H3  438   4.825   2.565   3.740 -0.3261  0.1613 -0.1947
   15PET     C3  439   5.024   2.287   3.708  0.1956  0.1523  0.7187
   15PET     H2  440   5.099   2.239   3.647  0.4479 -0.2113  1.3042
   15PET     C2  441   4.979   2.221   3.825 -0.0530 -0.0326  0.5894
   15PET     H1  442   5.017   2.121   3.840 -1.6770 -1.3616 -2.8943
   15PET     C1  443   4.892   2.291   3.913  0.7417 -0.3712  0.8846
   15PET     C7  444   4.841   2.228   4.038  0.0185 -0.4543  0.6701
   15PET     O3  445   4.890   2.125   4.074 -0.0573  0.4266  0.4510
   15PET     O4  446   4.727   2.280   4.088  0.1830  0.2325 -0.3474
   15PET    C10  447   4.697   2.236   4.217  0.4627  0.2003 -0.3752
   15PET     H8  448   4.785   2.241   4.282  1.9143  0.9303 -2.3017
   15PET     H9  449   4.677   2.129   4.202  1.0250  0.0027  0.2080
   15PET    C11  450   4.576   2.298   4.272  0.1851  0.1497 -0.6125
   15PET    H10  451   4.528   2.231   4.344  0.5748  1.2212  0.6997
   15PET    H11  452   4.503   2.311   4.192  0.6773  0.3823 -1.0303
   15PET    C12  453   4.599   2.443   4.336  0.3848  0.3503  0.1346
   15PET    H13  454   4.687   2.441   4.401 -0.7759  0.2999  1.7583
   15PET    H14  455   4.529   2.452   4.420 -0.5245  2.3271 -0.7667
   16PET     C9  456   4.629   2.554   4.235 -0.1590  0.3877 -0.3929
   16PET     H6  457   4.686   2.514   4.150  0.5929  0.3412  0.1255
   16PET     H7  458   4.687   2.634   4.283 -0.0574  0.0038  0.1352
   16PET     O2  459   4.496   2.604   4.197 -0.5879  0.4892  0.1072
   16PET     C8  460   4.484   2.711   4.115 -0.3960 -0.0072  0.5866
   16PET     O1  461   4.577   2.769   4.061  0.4218 -0.8218  0.4197
   16PET     C4  462   4.337   2.739   4.094 -0.5163  0.7190  0.3282
   16PET     C5  463   4.237   2.651   4.158  0.3906 -0.0561  0.4640
   16PET     C6  464   4.094   2.683   4.149 -0.5675 -0.4914  0.3427
   16PET     H4  465   4.029   2.607   4.191  0.5285 -2.7510 -1.8157
   16PET     H3  466   4.259   2.561   4.214 -2.3445 -1.2154 -0.1657
   16PET     C3  467   4.292   2.859   4.030  0.2857 -0.9164 -0.9230
   16PET     H2  468   4.358   2.933   3.986 -0.4316  0.0759 -0.3585
   16PET     C2  469   4.152   2.883   4.014  0.4820 -0.5253 -1.3759
   16PET     H1  470   4.118   2.962   3.949  0.2263  0.9456  0.4649
   16PET     C1  471   4.057   2.794   4.070  0.5183 -1.0852  0.0851
   16PET     C7  472   3.904   2.802   4.050  0.3242  0.6940  0.1252
   16PET     O3  473   3.821   2.722   4.094 -0.2882  0.1924 -0.0106
   16PET     O4  474   3.866   2.918   3.991 -0.6909 -0.2936 -0.5008
   16PET    C10  475   3.734   2.963   3.986 -0.0101  0.3564 -0.5835
   16PET     H8  476   3.683   2.942   4.081 -2.4390 -0.6937 -2.0052
   16PET     H9  477   3.679   2.906   3.909 -1.5329  1.5790 -0.4444
   16PET    C11  478   3.718   3.109   3.944 -0.0584 -0.2206 -0.5055
   16PET    H10  479   3.763   3.165   4.027 -0.2508 -0.6818 -0.0815
   16PET    H11  480   3.612   3.136   3.942  0.1088  0.4626 -0.4879
   16PET    C12  481   3.761   3.156   3.801 -0.1243 -0.6440 -0.6788
   16PET    H13  482   3.776   3.264   3.806  2.8526 -1.0393  2.2751
   16PET    H14  483   3.679   3.127   3.735 -1.9178  0.3373  1.0030
   17PET     C9  484   3.890   3.101   3.738  0.1416 -0.0281 -0.2447
   17PET     H6  485   3.914   2.997   3.763  2.0000  0.4469  0.0890
   17PET     H7  486   3.979   3.150   3.780 -1.4825  0.4388  2.9698
   17PET     O2  487   3.877   3.107   3.590 -0.9042  0.0392  0.0577
   17PET     C8  488   3.998   3.104   3.522 -0.1421  0.7574  0.4915
   17PET     O1  489   4.103   3.099   3.582 -0.5169  0.4084 -0.2062
   17PET     C4  490   3.988   3.109   3.375  0.5590  0.0402  0.6974
   17PET     C5  491   4.097   3.079   3.292  0.2200 -0.2031 -0.1818
   17PET     C6  492   4.095   3.094   3.152  0.5080 -0.6702  0.1455
   17PET     H4  493   4.185   3.062   3.101  0.2472 -0.5739 -0.3846
   17PET     H3  494   4.183   3.055   3.355 -0.5462 -0.1133  0.9123
   17PET     C3  495   3.875   3.164   3.309 -0.0979  0.0743 -0.1020
   17PET     H2  496   3.786   3.190   3.364 -0.6819  1.1006 -1.4555
   17PET     C2  497   3.877   3.179   3.168 -0.4180  0.1687 -0.8499
   17PET     H1  498   3.788   3.225   3.127 -0.8249 -0.0758 -0.2523
   17PET     C1  499   3.980   3.144   3.086 -0.2312  0.0219 -0.3216
   17PET     C7  500   3.973   3.167   2.941 -0.8184  0.9588 -0.4553
   17PET     O3  501   4.069   3.134   2.866  0.4183  0.7236 -0.0120
   17PET     O4  502   3.856   3.222   2.905  0.3889  0.1437 -0.4040
   17PET    C10  503   3.834   3.239   2.763 -0.3708  0.0468 -0.3269
   17PET     H8  504   3.870   3.153   2.706  0.0408 -0.4713  0.6863
   17PET     H9  505   3.891   3.323   2.721 -1.0034  0.0801 -1.1514
   17PET    C11  506   3.676   3.257   2.736 -1.1034 -0.5370 -0.5910
   17PET    H10  507   3.658   3.312   2.643 -0.5617  4.2994  1.8428
   17PET    H11  508   3.637   3.312   2.823 -1.2211  0.1201 -1.0500
   17PET    C12  509   3.616   3.126   2.748  0.5953  0.7811 -0.5105
   17PET    H13  510   3.631   3.103   2.855  3.0813  0.6272 -0.8266
   17PET    H14  511   3.676   3.065   2.680 -0.2151  0.0119 -0.5583
   18PET     C9  512   3.470   3.134   2.714  0.6367  0.1797  0.1789
   18PET     H6  513   3.477   3.155   2.606 -1.1036  0.6565  0.1361
   18PET     H7  514   3.429   3.227   2.755  1.7592  1.2342 -0.9991
   18PET     O2  515   3.408   3.017   2.753  1.0608  0.2046 -0.7640
   18PET     C8  516   3.372   2.918   2.666 -0.0192 -0.2582  0.9482
   18PET     O1  517   3.403   2.916   2.544 -0.1842  0.2606 -0.3958
   18PET     C4  518   3.300   2.804   2.738  0.0085 -0.6666  0.1733
   18PET     C5  519   3.254   2.682   2.673 -0.0183 -0.3507  1.1388
   18PET     C6  520   3.209   2.573   2.751  0.5121  0.6050  0.3780
   18PET     H4  521   3.193   2.475   2.708  1.6096  0.3535  0.5179
   18PET     H3  522   3.264   2.673   2.565 -3.2566  0.4491  0.6927
   18PET     C3  523   3.267   2.815   2.876  0.3642  1.0392  0.4106
   18PET     H2  524   3.293   2.905   2.930 -0.7474 -0.3699  3.5798
   18PET     C2  525   3.207   2.717   2.957  0.1323 -0.1651 -0.0285
   18PET     H1  526   3.183   2.733   3.061  2.1373  0.5025  0.3738
   18PET     C1  527   3.178   2.589   2.896  0.0753  0.0713  1.2406
   18PET     C7  528   3.143   2.467   2.964  0.0594 -0.4724 -0.1457
   18PET     O3  529   3.135   2.357   2.913 -0.3141 -0.2179 -0.1112
   18PET     O4  530   3.140   2.488   3.102  0.2629  0.0342  0.2366
   18PET    C10  531   3.119   2.377   3.190 -0.8978  0.9603 -0.6709
   18PET     H8  532   3.039   2.311   3.156  1.5393 -3.0859  0.7899
   18PET     H9  533   3.101   2.414   3.292  1.4029  0.1053  0.1236
   18PET    C11  534   3.248   2.285   3.199  0.2762  0.4518  0.3800
   18PET    H10  535   3.262   2.240   3.100 -0.6172  1.2799 -0.1429
   18PET    H11  536   3.212   2.204   3.264  0.1708 -0.3242 -0.6283
   18PET    C12  537   3.370   2.369   3.261 -0.0711  0.2933  0.3095
   18PET    H13  538   3.395   2.449   3.191  0.4705 -0.6614 -0.6309
   18PET    H14  539   3.449   2.298   3.233 -0.2608  0.5992 -1.0565
   19PET     C9  540   3.367   2.417   3.405 -0.0851  0.2563 -0.9812
   19PET     H6  541   3.331   2.325   3.451 -1.6535 -0.2622 -3.0875
   19PET     H7  542   3.296   2.499   3.422  0.3577  0.0562  2.4359
   19PET     O2  543   3.495   2.459   3.437  0.8572  0.1766 -0.5966
   19PET     C8  544   3.504   2.500   3.577 -0.1386  0.0145 -0.2780
   19PET     O1  545   3.407   2.545   3.639 -0.7007 -0.3637 -0.3630
   19PET     C4  546   3.636   2.468   3.629 -0.2339  0.6351  0.4498
   19PET     C5  547   3.653   2.444   3.763  0.1066 -0.3755 -0.5538
   19PET     C6  548   3.781   2.409   3.807  0.1347 -0.2015 -0.0556
   19PET     H4  549   3.798   2.376   3.909  3.6674  1.0989 -0.0940
   19PET     H3  550   3.567   2.442   3.829  2.7414 -2.8589  3.1546
   19PET     C3  551   3.748   2.460   3.536 -0.0414  1.1687  0.0419
   19PET     H2  552   3.738   2.497   3.434  2.0957  3.6896  0.6434
   19PET     C2  553   3.874   2.415   3.577  0.0647 -0.7303 -0.1776
   19PET     H1  554   3.949   2.413   3.499  0.2598  0.8922 -0.0680
   19PET     C1  555   3.888   2.388   3.716  0.6701  0.3117 -0.8416
   19PET     C7  556   4.013   2.317   3.778 -0.0146  0.0405 -0.4622
   19PET     O3  557   4.009   2.257   3.882 -0.1122  0.0138  0.2879
   19PET     O4  558   4.135   2.351   3.719  0.7554  0.2901  0.3061
   19PET    C10  559   4.254   2.295   3.780  0.3484 -0.4574 -0.7367
   19PET     H8  560   4.275   2.204   3.721 -0.0045 -1.4799  0.6560
   19PET     H9  561   4.241   2.276   3.887  0.6890  2.0930 -0.2013
   19PET    C11  562   4.369   2.406   3.765  0.7571 -0.1553  0.1291
   19PET    H10  563   4.360   2.476   3.849  3.3722  1.2958 -0.6966
   19PET    H11  564   4.357   2.473   3.680 -1.5764 -1.5204 -0.7127
   19PET    C12  565   4.517   2.351   3.783  0.2921  0.0830 -0.7546
   19PET    H13  566   4.520   2.302   3.882 -1.0112  1.1157 -0.1749
   19PET    H14  567   4.582   2.439   3.780  1.1398 -0.5019 -0.2191
   20PET     C9  568   4.564   2.266   3.664  0.2746  0.6061 -0.3524
   20PET     H6  569   4.485   2.191   3.650  1.5113 -0.6960 -0.6254
   20PET     H7  570   4.651   2.206   3.693  0.6918  0.5153 -1.7562
   20PET     O2  571   4.580   2.324   3.538  0.0508 -0.0838 -0.2214
   20PET     C8  572   4.581   2.254   3.426 -0.2832 -0.5397  0.7239
   20PET     O1  573   4.547   2.134   3.426  0.1977 -0.4078 -0.6596
   20PET     C4  574   4.628   2.332   3.300 -0.1023 -0.8618  0.4476
   20PET     C5  575   4.624   2.269   3.176 -0.1159  0.4232  0.4671
   20PET     C6  576   4.652   2.335   3.059 -0.5315 -0.8385 -0.7857
   20PET     H4  577   4.638   2.281   2.966  3.5831 -1.6304 -1.1366
   20PET     H3  578   4.593   2.165   3.179  0.3133  0.2560 -0.3797
   20PET     C3  579   4.662   2.467   3.303  0.0463 -0.0934 -0.4449
   20PET     H2  580   4.658   2.526   3.394  0.2900 -0.6804 -0.0519
   20PET     C2  581   4.710   2.532   3.185  0.8406  0.1052  0.3313
   20PET     H1  582   4.745   2.634   3.201  0.3994  0.2045  0.6609
   20PET     C1  583   4.693   2.472   3.066 -0.2601 -0.2479  0.7768
   20PET     C7  584   4.721   2.549   2.938 -0.0369 -0.5075 -0.5278
   20PET     O3  585   4.743   2.673   2.948  0.0658 -0.1853 -0.3223
   20PET     O4  586   4.709   2.480   2.824 -0.0812 -0.8896  0.0295
   20PET    C10  587   4.725   2.566   2.696 -0.5293  0.6711 -0.4076
   20PET     H8  588   4.816   2.625   2.712 -0.3782  0.3650 -0.1023
   20PET     H9  589   4.647   2.641   2.684 -0.8788  0.0080 -2.6953
   20PET    C11  590   4.733   2.467   2.582 -0.0569  0.3033  0.1652
   20PET    H10  591   4.668   2.383   2.610 -0.1770 -0.4867 -2.2910
   20PET    H11  592   4.838   2.436   2.570 -0.6119 -0.9577 -1.8456
   20PET    C12  593   4.678   2.512   2.448  0.0538 -0.8003  0.1452
   20PET    H13  594   4.571   2.536   2.457  0.2706  1.1642 -1.7509
   20PET    H14  595   4.665   2.417   2.394 -5.0349 -0.9647  1.1558
   21PET     C9  596   4.750   2.619   2.374 -0.4523 -0.2763 -0.1796
   21PET     H6  597   4.854   2.613   2.406 -1.1513 -2.5915  1.9138
   21PET     H7  598   4.709   2.720   2.391  1.3064  0.4058  0.2615
   21PET     O2  599   4.743   2.588   2.227 -0.4774  0.0869 -0.3581
   21PET     C8  600   4.839   2.646   2.141 -0.5384  0.9245  0.2022
   21PET     O1  601   4.926   2.722   2.178 -0.3116  0.6821 -0.1118
   21PET     C4  602   4.842   2.603   2.003  0.8158  0.6156  0.7880
   21PET     C5  603   4.941   2.646   1.906  0.1159 -0.6239  0.5117
   21PET     C6  604   4.946   2.600   1.770  0.6007 -0.2894  0.0554
   21PET     H4  605   5.024   2.629   1.700  3.2224 -1.1465  2.4614
   21PET     H3  606   5.022   2.712   1.934 -1.3295  1.3546  0.2271
   21PET     C3  607   4.746   2.512   1.947 -0.1419 -0.8666  0.2503
   21PET     H2  608   4.677   2.474   2.022  0.8765  0.1306  1.7677
   21PET     C2  609   4.746   2.460   1.817  0.7580 -0.1755  1.0131
   21PET     H1  610   4.679   2.384   1.777  1.0311  1.7678 -3.8912
   21PET     C1  611   4.848   2.506   1.734  1.0312  0.5942 -0.4064
   21PET     C7  612   4.850   2.466   1.587 -0.8247  0.0091  0.1788
   21PET     O3  613   4.962   2.458   1.526  1.0002  0.6295 -0.0596
   21PET     O4  614   4.730   2.422   1.540  0.2595 -0.7281  0.5568
   21PET    C10  615   4.718   2.371   1.405 -0.1101 -0.4221 -0.4639
   21PET     H8  616   4.783   2.283   1.390  0.2890 -0.1248 -0.4878
   21PET     H9  617   4.744   2.449   1.333  1.3939  0.2954  0.8126
   21PET    C11  618   4.580   2.314   1.372 -1.0019 -0.3183 -0.2691
   21PET    H10  619   4.580   2.262   1.275 -2.5645 -0.1831 -0.3802
   21PET    H11  620   4.512   2.399   1.368 -1.5059 -0.5845  1.5472
   21PET    C12  621   4.525   2.209   1.479  0.0357 -0.1507 -0.0334
   21PET    H13  622   4.543   2.248   1.580 -2.9565 -0.9056  0.8824
   21PET    H14  623   4.594   2.126   1.458  2.1553  1.8969 -1.7326
   22PET     C9  624   4.373   2.172   1.461  0.4828 -0.3023 -0.8670
   22PET     H6  625   4.363   2.122   1.364  2.2438 -0.5188 -0.9719
   22PET     H7  626   4.307   2.259   1.445 -1.7359 -1.8163 -0.3527
   22PET     O2  627   4.326   2.103   1.580 -0.5095 -0.3886 -0.2141
   22PET     C8  628   4.209   2.032   1.566 -0.2831  0.0041  0.0185
   22PET     O1  629   4.140   2.021   1.465 -0.5268  1.3090  0.9147
   22PET     C4  630   4.162   1.975   1.707 -0.2913 -0.2845 -0.4954
   22PET     C5  631   4.070   1.868   1.713  0.9804  0.3532  0.9828
   22PET     C6  632   4.000   1.833   1.828  0.1471 -0.5268  0.0627
   22PET     H4  633   3.927   1.753   1.828  0.5548 -1.0373  3.3415
   22PET     H3  634   4.025   1.822   1.625  1.2145  0.5970  0.7354
   22PET     C3  635   4.207   2.027   1.828  0.0144 -0.6045 -1.1510
   22PET     H2  636   4.274   2.112   1.823 -0.6229 -0.1357 -2.2825
   22PET     C2  637   4.148   1.994   1.954  0.1701  0.4564  0.5247
   22PET     H1  638   4.180   2.044   2.045  1.5707 -0.5721  0.6450
   22PET     C1  639   4.033   1.902   1.949  0.5372 -0.6073  0.2690
   22PET     C7  640   3.954   1.888   2.068 -0.6088 -0.3818 -0.0424
   22PET     O3  641   3.832   1.868   2.071 -0.0443  0.0335  0.8726
   22PET     O4  642   4.026   1.901   2.187  0.1851 -0.0779  0.6882
   22PET    C10  643   3.962   1.877   2.306 -0.2234  0.2779 -0.1664
   22PET     H8  644   3.906   1.783   2.303  2.2323 -1.4078  2.3625
   22PET     H9  645   3.886   1.952   2.331 -0.9686  0.1404 -1.8676
   22PET    C11  646   4.065   1.866   2.415 -0.5639 -0.0497 -0.8321
   22PET    H10  647   4.144   1.799   2.377  0.1849  0.7376 -0.6847
   22PET    H11  648   4.033   1.818   2.508  0.8084 -0.4713 -0.5509
   22PET    C12  649   4.132   1.999   2.449  0.8147  1.0558 -0.4929
   22PET    H13  650   4.051   2.073   2.459 -0.8720 -0.5517 -1.5710
   22PET    H14  651   4.191   2.034   2.363  0.2761  0.2626 -1.1977
   23PET     C9  652   4.211   1.999   2.581  0.4858  0.0833 -0.8432
   23PET     H6  653   4.290   1.924   2.567 -0.0314 -0.4107 -1.1816
   23PET     H7  654   4.146   1.974   2.666  3.4516  1.0062  1.8788
   23PET     O2  655   4.254   2.134   2.609 -0.3050 -0.2128  0.7357
   23PET     C8  656   4.338   2.160   2.716 -0.2604  0.8618  0.1151
   23PET     O1  657   4.385   2.075   2.784  0.1790 -0.2850 -1.1714
   23PET     C4  658   4.362   2.307   2.757  0.6968  0.8355 -0.6357
   23PET     C5  659   4.350   2.413   2.665 -0.2200 -0.0768  1.0147
   23PET     C6  660   4.368   2.550   2.716  0.6466 -0.7572 -0.7187
   23PET     H4  661   4.374   2.626   2.638  0.1996 -0.1075 -0.1282
   23PET     H3  662   4.357   2.391   2.559  1.1975  0.2104  1.0267
   23PET     C3  663   4.371   2.330   2.885  0.2114  0.4210 -0.5816
   23PET     H2  664   4.359   2.241   2.947  0.4374  0.5841 -0.3009
   23PET     C2  665   4.379   2.458   2.941 -0.4169  0.2280 -0.1153
   23PET     H1  666   4.386   2.475   3.048  0.0357 -1.2233  0.1075
   23PET     C1  667   4.380   2.576   2.856 -0.2684  0.1898  0.6012
   23PET     C7  668   4.388   2.721   2.903  0.2386  0.9155  0.0184
   23PET     O3  669   4.375   2.744   3.020  0.3391 -0.0904  0.1560
   23PET     O4  670   4.379   2.811   2.802 -0.0217  0.4691 -0.3945
   23PET    C10  671   4.399   2.950   2.832 -0.4037 -0.0058  0.6100
   23PET     H8  672   4.450   2.962   2.927  0.3654  0.2748  0.1686
   23PET     H9  673   4.301   2.996   2.851  0.1709  1.4742  0.0832
   23PET    C11  674   4.449   3.016   2.703 -0.1030  0.1270 -0.0326
   23PET    H10  675   4.447   3.126   2.699  2.5308  0.2429 -0.2448
   23PET    H11  676   4.391   2.992   2.613  0.9683  2.1258 -1.3382
   23PET    C12  677   4.590   2.966   2.672 -0.0120  0.2137  1.2794
   23PET    H13  678   4.598   2.856   2.674  0.3370  0.1489 -0.7381
   23PET    H14  679   4.658   2.991   2.754 -1.0300  1.8248  1.6699
   24PET     C9  680   4.644   3.023   2.530 -0.3405  0.3363  0.4241
   24PET     H6  681   4.749   2.995   2.514 -1.0607 -1.7061 -1.3121
   24PET     H7  682   4.634   3.132   2.524 -0.2828  0.2731 -2.1881
   24PET     O2  683   4.578   2.969   2.419  0.2645 -0.1848  0.1371
   24PET     C8  684   4.653   2.967   2.302 -0.1165 -0.6221  0.4355
   24PET     O1  685   4.758   3.019   2.284  0.5825 -0.7569 -0.1842
   24PET     C4  686   4.584   2.882   2.199 -0.5514  0.2834  0.5673
   24PET     C5  687   4.498   2.779   2.242 -0.7870  0.5012  0.8710
   24PET     C6  688   4.443   2.694   2.142 -0.1851 -0.4210 -0.1851
   24PET     H4  689   4.385   2.611   2.182  0.4894 -1.4401 -1.2726
   24PET     H3  690   4.480   2.762   2.348  1.8347 -2.1946  1.0236
   24PET     C3  691   4.613   2.893   2.060 -0.9279 -0.2445  0.2474
   24PET     H2  692   4.666   2.980   2.023 -2.7281  0.2071 -1.3980
   24PET     C2  693   4.561   2.806   1.960  0.3658 -0.7942 -0.2380
   24PET     H1  694   4.587   2.826   1.857 -2.0698 -2.7702 -1.3508
   24PET     C1  695   4.483   2.693   1.999 -0.3693 -0.5232 -1.4296
   24PET     C7  696   4.433   2.586   1.898 -1.2354 -0.5941  0.5557
   24PET     O3  697   4.386   2.479   1.931 -0.8020  0.6402 -0.2387
   24PET     O4  698   4.446   2.629   1.764  1.1801  0.3245 -0.4351
   24PET    C10  699   4.421   2.537   1.644  0.2513 -0.0371  0.3545
   24PET     H8  700   4.493   2.456   1.662  0.2673  0.1450  1.1271
   24PET     H9  701   4.447   2.593   1.553  0.8799  0.3532  0.7711
   24PET    C11  702   4.270   2.502   1.645  0.4342  0.0777 -0.0088
   24PET    H10  703   4.231   2.474   1.743  0.6916  1.3651  0.4870
   24PET    H11  704   4.259   2.407   1.593  0.5616 -0.1212  0.3236
   24PET    C12  705   4.173   2.611   1.597 -0.4161 -0.3698 -0.1231
   24PET    H13  706   4.163   2.619   1.488 -0.6191 -0.6459 -0.1246
   24PET    H14  707   4.209   2.707   1.636 -2.4456  0.1385  0.6201
   25PET     C9  708   4.025   2.594   1.652 -0.4673  0.6173 -0.2243
   25PET     H6  709   3.997   2.490   1.633  0.6177  0.3208 -0.2533
   25PET     H7  710   3.959   2.667   1.603 -0.4137  1.3222  0.7188
   25PET     O2  711   4.040   2.619   1.788 -0.6805  0.3878 -0.4267
   25PET     C8  712   3.936   2.608   1.876  0.5640 -0.6450 -0.2514
   25PET     O1  713   3.823   2.575   1.838 -0.4629 -0.4419  0.7719
   25PET     C4  714   3.972   2.668   2.012  0.3051  0.1495  0.7644
   25PET     C5  715   3.870   2.660   2.107 -0.0508  0.3604 -0.0185
   25PET     C6  716   3.899   2.695   2.243  0.6454  0.9218 -1.2049
   25PET     H4  717   3.818   2.686   2.315 -0.6293 -0.6039 -2.7378
   25PET     H3  718   3.773   2.624   2.075  0.4207 -1.6244  0.6919
   25PET     C3  719   4.099   2.724   2.048  0.1396 -0.3867  0.9956
   25PET     H2  720   4.163   2.748   1.963 -0.9630  1.7491  0.7141
   25PET     C2  721   4.117   2.752   2.186 -0.2092 -0.1665  0.9075
   25PET     H1  722   4.214   2.797   2.206  1.1353 -2.1168 -0.8062
   25PET     C1  723   4.018   2.738   2.288 -0.6647 -0.0947 -0.1460
   25PET     C7  724   4.050   2.780   2.431 -0.7759 -0.4432 -0.6815
   25PET     O3  725   4.164   2.787   2.482  0.1031  0.2578  0.5520
   25PET     O4  726   3.940   2.821   2.504 -0.8777 -0.4540 -0.2776
   25PET    C10  727   3.963   2.873   2.643  0.8968 -0.1089  0.9348
   25PET     H8  728   3.867   2.914   2.678  1.0205 -0.6426  1.9155
   25PET     H9  729   4.042   2.948   2.647  3.4736 -2.4863 -1.1255
   25PET    C11  730   3.984   2.765   2.742 -0.1115  0.3336 -0.1632
   25PET    H10  731   4.090   2.740   2.729 -0.0163  0.7520 -0.2132
   25PET    H11  732   3.924   2.676   2.722  1.3700 -0.1342 -3.0790
   25PET    C12  733   3.957   2.808   2.889  0.4059 -0.1799 -0.3433
   25PET    H13  734   3.862   2.860   2.907  2.1458  2.9251  0.7311
   25PET    H14  735   4.036   2.882   2.909  0.1725 -0.7073  3.0136
   26PET     C9  736   3.964   2.708   3.008 -0.8286  0.2496 -0.5673
   26PET     H6  737   3.974   2.765   3.101 -3.4124 -0.0709 -0.0312
   26PET     H7  738   4.055   2.647   3.011 -1.9835 -1.5271  1.4523
   26PET     O2  739   3.852   2.624   3.011  1.0070  0.2133 -0.4023
   26PET     C8  740   3.840   2.540   3.116 -0.4632 -0.0476  0.5252
   26PET     O1  741   3.909   2.556   3.220  0.0998  0.1655  0.4604
   26PET     C4  742   3.744   2.427   3.091 -0.9342  0.2175 -0.6185
   26PET     C5  743   3.661   2.422   2.975  0.5348  0.6977  0.2648
   26PET     C6  744   3.586   2.306   2.947  0.3185 -0.3620 -0.0211
   26PET     H4  745   3.521   2.303   2.860 -0.3917  3.3920  0.2120
   26PET     H3  746   3.660   2.512   2.915 -0.4669  0.5737  0.0892
   26PET     C3  747   3.757   2.307   3.177  0.6446 -1.0639  0.3129
   26PET     H2  748   3.842   2.301   3.244  2.1796  3.0171 -0.9664
   26PET     C2  749   3.684   2.194   3.141 -0.8244 -0.0214  0.3202
   26PET     H1  750   3.676   2.110   3.209 -0.5735  1.3435  2.1165
   26PET     C1  751   3.596   2.198   3.029 -0.3431  0.3538 -0.7342
   26PET     C7  752   3.510   2.076   3.005 -0.8005  0.0822 -0.7840
   26PET     O3  753   3.477   2.000   3.095 -0.0726  0.8286 -0.7710
   26PET     O4  754   3.490   2.040   2.871  0.1861 -0.3783  0.7585
   26PET    C10  755   3.384   1.956   2.845 -1.4561 -0.2632 -0.0451
   26PET     H8  756   3.361   1.905   2.939 -0.2009  2.2706  1.7440
   26PET     H9  757   3.417   1.882   2.772  1.1640  1.2875 -0.5533
   26PET    C11  758   3.274   2.042   2.782  0.1778 -0.4232 -0.8913
   26PET    H10  759   3.237   2.111   2.859  0.2999 -0.4966 -0.7657
   26PET    H11  760   3.194   1.969   2.775  0.4532 -0.9309  0.8340
   26PET    C12  761   3.320   2.124   2.649  0.5620 -0.8768 -0.0790
   26PET    H13  762   3.394   2.070   2.589  1.4886  0.1233  0.1388
   26PET    H14  763   3.383   2.207   2.683  1.9086 -0.9723 -2.1260
   27PET     C9  764   3.203   2.175   2.562  0.2169  0.2992  0.6970
   27PET     H6  765   3.136   2.239   2.621 -0.8065  0.4198 -0.5717
   27PET     H7  766   3.152   2.081   2.537 -0.5119  1.1053 -0.9702
   27PET     O2  767   3.244   2.239   2.432  0.1141 -0.1899  0.1251
   27PET     C8  768   3.337   2.342   2.419  0.1353  0.2194 -0.0166
   27PET     O1  769   3.377   2.416   2.510 -0.2431  0.0014  0.5887
   27PET     C4  770   3.379   2.352   2.268 -0.4226 -0.7501  0.4434
   27PET     C5  771   3.445   2.471   2.222  0.4265  0.4105  0.1107
   27PET     C6  772   3.475   2.488   2.089  0.1094 -0.2534 -0.3510
   27PET     H4  773   3.504   2.588   2.058  1.8275 -0.7966 -0.6141
   27PET     H3  774   3.464   2.554   2.289  1.3061  0.1725  0.1625
   27PET     C3  775   3.354   2.249   2.173  0.1082 -0.2510  0.1762
   27PET     H2  776   3.311   2.155   2.207 -1.2605  0.1958 -0.2755
   27PET     C2  777   3.415   2.259   2.047  1.2295  0.5716 -0.1258
   27PET     H1  778   3.406   2.177   1.976 -2.7498  0.2115  0.5784
   27PET     C1  779   3.462   2.383   1.999  0.5286  0.0673 -0.5628
   27PET     C7  780   3.502   2.402   1.855  0.5525 -0.1213  0.1305
   27PET     O3  781   3.532   2.509   1.809  0.0022  0.0545  0.3878
   27PET     O4  782   3.480   2.295   1.773  0.1499 -0.4851 -0.0524
   27PET    C10  783   3.501   2.307   1.635  0.5669 -0.0772 -0.6644
   27PET     H8  784   3.603   2.349   1.628 -0.0655  1.5875 -0.4162
   27PET     H9  785   3.428   2.376   1.592 -0.2183  0.5516  1.5485
   27PET    C11  786   3.480   2.173   1.570 -0.1676  0.2644 -0.5738
   27PET    H10  787   3.505   2.185   1.464  2.3629  0.3808 -0.0476
   27PET    H11  788   3.373   2.153   1.577 -0.9985  3.6255 -1.8901
   27PET    C12  789   3.575   2.071   1.633 -0.5351  0.0036 -0.2512
   27PET    H13  790   3.565   1.974   1.583 -2.6297 -1.2169  2.2945
   27PET    H14  791   3.552   2.040   1.736  0.1792 -1.3211 -0.4591
   28PET     C9  792   3.726   2.111   1.621  0.0193 -0.7233  0.2753
   28PET     H6  793   3.747   2.181   1.540 -1.0399 -0.4408  0.2323
   28PET     H7  794   3.779   2.016   1.608 -3.1315 -2.3542 -1.8602
   28PET     O2  795   3.763   2.181   1.739  0.1168 -0.0164  0.1714
   28PET     C8  796   3.894   2.210   1.761  0.6141 -0.0511  0.0553
   28PET     O1  797   3.984   2.185   1.676  0.3275 -0.5695  0.3256
   28PET     C4  798   3.926   2.273   1.898 -0.6253  0.2733 -0.4314
   28PET     C5  799   3.828   2.294   1.999  0.1807  0.1235 -0.1688
   28PET     C6  800   3.860   2.320   2.130 -0.1769 -1.1247 -0.2004
   28PET     H4  801   3.778   2.328   2.200  0.5042 -0.1742  0.5043
   28PET     H3  802   3.724   2.281   1.973  0.0228  2.0045 -0.6236
   28PET     C3  803   4.063   2.307   1.930  0.2604  0.2997 -0.4152
   28PET     H2  804   4.146   2.308   1.860 -0.5863  1.0773 -1.4453
   28PET     C2  805   4.096   2.336   2.067  0.4797  0.0864  0.4531
   28PET     H1  806   4.199   2.356   2.094 -0.0255  1.5242  1.3683
   28PET     C1  807   4.000   2.335   2.166  0.1162  0.1344  0.7999
   28PET     C7  808   4.028   2.370   2.310 -0.4564  0.4683 -0.3265
   28PET     O3  809   4.138   2.398   2.353 -0.2220  0.2311 -0.2353
   28PET     O4  810   3.923   2.359   2.389 -0.2195  0.3537  0.0953
   28PET    C10  811   3.933   2.377   2.539 -0.3084 -0.5736  0.2978
   28PET     H8  812   3.999   2.461   2.562 -1.1395 -0.3977  2.1595
   28PET     H9  813   3.987   2.296   2.590  0.1847 -1.5907 -1.7388
   28PET    C11  814   3.784   2.385   2.595  0.2027 -0.4231 -0.7600
   28PET    H10  815   3.732   2.462   2.536 -3.0157 -1.5561  0.3720
   28PET    H11  816   3.773   2.406   2.702 -1.0315 -0.4006 -0.8809
   28PET    C12  817   3.715   2.260   2.584  0.8898  0.0749 -0.3496
   28PET    H13  818   3.709   2.232   2.478 -0.7587 -2.1905  0.2486
   28PET    H14  819   3.613   2.280   2.618  1.6944  1.8885  1.1734
   29PET     C9  820   3.774   2.139   2.659 -0.1579  0.0512 -0.4444
   29PET     H6  821   3.843   2.082   2.595  1.8687  3.2850 -1.3379
   29PET     H7  822   3.692   2.071   2.684  2.3367 -1.9847  3.0640
   29PET     O2  823   3.837   2.195   2.769  0.1916 -0.2989  0.0139
   29PET     C8  824   3.883   2.110   2.861 -0.2816  0.0821 -0.2107
   29PET     O1  825   3.879   1.990   2.861 -0.0068  0.1809  0.6663
   29PET     C4  826   3.969   2.192   2.960 -0.1452 -0.2296 -0.4285
   29PET     C5  827   4.019   2.318   2.943  0.3630 -0.3015 -0.8964
   29PET     C6  828   4.102   2.368   3.044  0.6704  0.3468 -0.1233
   29PET     H4  829   4.148   2.463   3.019 -0.5445  0.6516 -1.3641
   29PET     H3  830   4.012   2.377   2.852  2.7211  0.2396 -0.7976
   29PET     C3  831   4.002   2.125   3.084  0.6196  0.1273 -0.2883
   29PET     H2  832   3.979   2.019   3.086 -2.2495  0.5514 -3.1911
   29PET     C2  833   4.077   2.185   3.185 -0.1938  0.6666  0.8723
   29PET     H1  834   4.095   2.128   3.276 -1.7540  0.3943  1.0512
   29PET     C1  835   4.119   2.310   3.173 -0.9582 -0.6138  0.3885
   29PET     C7  836   4.206   2.363   3.287  0.1629  0.0143 -0.9828
   29PET     O3  837   4.276   2.295   3.359  0.2993  0.0361 -0.2594
   29PET     O4  838   4.217   2.493   3.294 -0.2430 -0.2031 -0.3884
   29PET    C10  839   4.276   2.564   3.406  0.0532 -0.5456 -0.2077
   29PET     H8  840   4.385   2.549   3.400  0.0267 -0.3193 -2.0277
   29PET     H9  841   4.244   2.535   3.507 -1.7338  0.0187 -0.5868
   29PET    C11  842   4.253   2.720   3.382 -0.0654  0.3438 -0.5710
   29PET    H10  843   4.158   2.735   3.332  0.5666  0.7691 -1.6697
   29PET    H11  844   4.335   2.752   3.317 -0.3412  1.9062 -0.1771
   29PET    C12  845   4.267   2.789   3.511 -0.7539  0.0184  0.2177
   29PET    H13  846   4.263   2.898   3.510  0.1537  0.0578 -0.2932
   29PET    H14  847   4.363   2.754   3.552 -0.4046 -0.3704 -0.8994
   30PET     C9  848   4.160   2.761   3.627 -0.1792  0.3211 -0.1994
   30PET     H6  849   4.162   2.844   3.699  1.1917  0.9532 -0.9290
   30PET     H7  850   4.194   2.671   3.681  1.6369  0.5741 -0.8436
   30PET     O2  851   4.030   2.758   3.560  0.1419 -0.6312 -0.0389
   30PET     C8  852   3.917   2.758   3.640  0.2738  0.0599  0.0954
   30PET     O1  853   3.918   2.760   3.762  0.1072  0.2993  0.2974
   30PET     C4  854   3.781   2.758   3.565  0.0355 -0.2191 -0.1329
   30PET     C5  855   3.783   2.743   3.423  0.1278 -0.5036  0.3805
   30PET     C6  856   3.664   2.757   3.354  0.7138  0.5040 -0.2176
   30PET     H4  857   3.662   2.748   3.246 -1.8589 -0.7612 -0.1268
   30PET     H3  858   3.877   2.736   3.370 -0.1633 -2.8864  0.0500
   30PET     C3  859   3.660   2.782   3.636 -0.0766 -0.8892  0.6524
   30PET     H2  860   3.667   2.775   3.744 -1.2461 -0.5323  0.7556
   30PET     C2  861   3.535   2.795   3.563 -0.4569 -0.3608  0.1270
   30PET     H1  862   3.443   2.809   3.618  0.3867 -4.7666  3.1735
   30PET     C1  863   3.542   2.791   3.417 -0.8413 -0.1791 -1.1103
   30PET     C7  864   3.415   2.821   3.348  0.3335 -0.3460 -0.5390
   30PET     O3  865   3.387   2.802   3.231  0.2804  0.2433  0.0116
   30PET     O4  866   3.334   2.897   3.423  0.2850 -0.3473  0.3297
   30PET    C10  867   3.201   2.945   3.378  1.1650 -0.1661  0.5582
   30PET     H8  868   3.203   2.964   3.270 -2.9007  2.1945  0.6702
   30PET     H9  869   3.187   3.046   3.420  2.1465  0.2542 -0.1107
   30PET    C11  870   3.101   2.835   3.421 -0.7632  0.1159 -0.1584
   30PET    H10  871   3.094   2.821   3.530  0.2569  1.9387  0.1904
   30PET    H11  872   3.128   2.744   3.367  1.0474  1.4377 -1.5827
   30PET    C12  873   2.955   2.885   3.390  0.6788  0.0669  0.1718
   30PET    H13  874   2.925   2.859   3.288  0.4855  0.0215  0.2394
   30PET    H14  875   2.882   2.828   3.450 -2.1274 -0.2428 -3.2329
   31SOL     OW  876   4.549   0.568   3.590 -0.6409  0.7081 -0.3105
   31SOL    HW1  877   4.528   0.661   3.597 -1.0787  0.6497 -0.7659
   31SOL    HW2  878   4.632   0.566   3.541  0.5425  0.9438  1.5806
   32SOL     OW  879   3.810   1.362   1.865 -0.7585 -0.2728  0.1474
   32SOL    HW1  880   3.810   1.304   1.941 -1.3564  0.0041  0.3742
   32SOL    HW2  881   3.782   1.447   1.901  0.8817  0.3747 -0.0202
   33SOL     OW  882   4.763   1.708   1.329 -0.1375  0.7218  1.2811
   33SOL    HW1  883   4.693   1.673   1.383 -2.4753 -1.7672 -2.8302
   33SOL    HW2  884   4.728   1.789   1.293 -1.1740 -0.5975 -0.8910
   34SOL     OW  885   3.164   0.698   1.384  0.1380 -0.5036 -0.4176
   34SOL    HW1  886   3.085   0.749   1.404  0.7668 -0.3455  2.0179
   34SOL    HW2  887   3.228   0.727   1.449  1.1319 -3.0419 -0.1654
   35SOL     OW  888   3.398   4.021   3.132 -0.0161 -0.4103 -0.4079
   35SOL    HW1  889   3.427   4.010   3.041  2.1500 -1.1027  0.3009
   35SOL    HW2  890   3.457   4.088   3.167 -2.0960  1.3214  0.0134
   36SOL     OW  891   4.682   2.988   3.919  0.0804  0.7516  0.3109
   36SOL    HW1  892   4.613   2.959   3.860  1.6286 -1.5900 -0.5258
   36SOL    HW2  893   4.686   2.919   3.985  1.6103  0.8166  0.3151
   37SOL     OW  894   4.132   4.158   3.708 -0.8368  0.2973 -0.2039
   37SOL    HW1  895   4.102   4.161   3.799 -0.7499  0.3767 -0.1772
   37SOL    HW2  896   4.196   4.229   3.702 -0.7411  0.2035 -0.2911
   38SOL     OW  897   3.892   0.155   1.215  0.3442 -0.4305  0.0434
   38SOL    HW1  898   3.917   0.063   1.210  4.4226  0.3971  1.4228
   38SOL    HW2  899   3.913   0.191   1.129 -1.3121 -0.7270 -0.5175
   39SOL     OW  900   2.864   4.800   1.395  0.1991 -0.0126 -0.0026
   39SOL    HW1  901   2.892   4.874   1.341 -0.0133  0.1763  0.1431
   39SOL    HW2  902   2.898   4.723   1.350 -0.8734  0.0674 -0.9893
   40SOL     OW  903   5.387   0.182   3.839  0.6724  0.0771  0.2100
   40SOL    HW1  904   5.321   0.144   3.780  0.6437  1.4511 -0.7047
   40SOL    HW2  905   5.426   0.107   3.883 -0.9121 -0.8362  0.1429
   41SOL     OW  906   3.473   4.122   1.027  0.4269  0.6942 -0.3528
   41SOL    HW1  907   3.561   4.132   0.991  0.4272  1.7893 -0.0883
   41SOL    HW2  908   3.481   4.051   1.091  0.9223  0.2366 -0.9178
   42SOL     OW  909   3.339   4.085   1.325  0.2634 -0.0963  0.0837
   42SOL    HW1  910   3.292   4.055   1.247 -0.7231  0.8089  0.3164
   42SOL    HW2  911   3.272   4.097   1.391  0.5987  2.3183  0.0910
   43SOL     OW  912   4.005   5.237   3.463 -0.6939  0.3161  0.5301
   43SOL    HW1  913   3.990   5.145   3.439  2.8957  0.2055 -2.2625
   43SOL    HW2  914   3.987   5.240   3.557 -0.0100 -3.5416  0.9773
   44SOL     OW  915   3.986   3.702   1.796 -0.1771 -0.2420  0.5148
   44SOL    HW1  916   3.918   3.635   1.800  0.5024 -0.9038  1.0755
   44SOL    HW2  917   4.055   3.671   1.853  0.2007  0.8919  0.7135
   45SOL     OW  918   3.682   4.049   3.147 -0.4934 -0.5300 -0.3761
   45SOL    HW1  919   3.682   3.957   3.171  0.1327 -0.8309 -1.4804
   45SOL    HW2  920   3.698   4.096   3.229  2.3663 -1.5448 -0.2636
   46SOL     OW  921   4.508   3.213   2.128 -0.2973  0.5403 -0.3228
   46SOL    HW1  922   4.456   3.291   2.150  0.2412  0.7702  0.1656
   46SOL    HW2  923   4.585   3.248   2.084 -0.4293  0.2201 -0.8081
   47SOL     OW  924   5.193   3.778   1.659  0.7969  0.4172  0.3954
   47SOL    HW1  925   5.126   3.777   1.727 -1.5106 -1.7900 -1.6899
   47SOL    HW2  926   5.276   3.774   1.707 -0.6703 -0.1680  3.0680
   48SOL     OW  927   4.490   0.864   3.760  0.4953 -0.2117 -0.4660
   48SOL    HW1  928   4.452   0.948   3.786  1.8184  0.3840 -0.4170
   48SOL    HW2  929   4.551   0.885   3.690  1.3415 -1.0328 -0.0067
   49SOL     OW  930   5.610   5.288   3.252  0.1130 -0.1297 -0.1201
   49SOL    HW1  931   5.675   5.273   3.184  0.6613  1.6418 -0.0524
   49SOL    HW2  932   5.604   5.384   3.258 -0.7431 -0.2502  1.5287
   50SOL     OW  933   4.415   0.659   0.544  0.0903 -0.7440  0.5028
   50SOL    HW1  934   4.343   0.644   0.605 -2.0009 -1.8912 -2.0264
   50SOL    HW2  935   4.453   0.572   0.529 -1.7404 -1.2190 -2.2942
   51SOL     OW  936   4.873   4.827   4.234  0.6457  0.1456 -0.2130
   51SOL    HW1  937   4.952   4.849   4.184  0.5385  5.0437  1.2020
   51SOL    HW2  938   4.900   4.830   4.325 -0.6294 -1.0984  0.2332
   52SOL     OW  939   5.007   0.026   3.613  0.9360  0.4818 -0.4515
   52SOL    HW1  940   5.065   0.101   3.627  0.7759  0.2450  2.0334
   52SOL    HW2  941   5.018  -0.027   3.692 -1.8815 -0.0886 -0.3350
   53SOL     OW  942   3.256   1.060   3.144 -0.1562  0.2277 -0.1609
   53SOL    HW1  943   3.322   1.119   3.182 -0.1736  1.3025 -1.6922
   53SOL    HW2  944   3.215   1.112   3.075 -0.5536 -1.4224 -1.2171
   54SOL     OW  945   3.499   4.095   2.863  0.5123 -0.4204 -1.0203
   54SOL    HW1  946   3.447   4.175   2.855 -1.4061 -1.6299 -1.2371
   54SOL    HW2  947   3.500   4.058   2.774  2.1633 -0.2200 -1.1289
   55SOL     OW  948   3.954   5.179   3.725 -0.4845 -0.2293  1.0067
   55SOL    HW1  949   3.922   5.156   3.812  1.1893  1.2672  2.1083
   55SOL    HW2  950   3.991   5.098   3.691  0.6478 -0.4414  2.5894
   56SOL     OW  951   5.060   1.903   4.111  0.2169  0.2219  0.4993
   56SOL    HW1  952   4.997   1.975   4.098 -1.8706 -1.8534 -2.1307
   56SOL    HW2  953   5.128   1.919   4.045 -0.2394 -0.1644 -0.0757
   57SOL     OW  954   3.320   3.658   2.674  0.3828 -0.1131  0.7423
   57SOL    HW1  955   3.369   3.730   2.634  1.0252  0.1874  2.0320
   57SOL    HW2  956   3.331   3.585   2.612 -1.7859  1.3188 -1.5099
   58SOL     OW  957   4.831   3.602   2.998 -0.2624 -0.2700  0.8522
   58SOL    HW1  958   4.899   3.538   2.979 -0.6364 -1.0102  1.8808
   58SOL    HW2  959   4.797   3.576   3.083 -1.9489 -0.0343  0.2941
   59SOL     OW  960   5.019   4.178   1.962  0.3120  0.1755 -0.1689
   59SOL    HW1  961   5.013   4.273   1.968 -0.2863  0.3144 -2.0803
   59SOL    HW2  962   5.060   4.162   1.876  0.3148 -1.2859  0.0771
   60SOL     OW  963   0.515   0.520   1.726 -0.0426 -0.5090  0.1425
   60SOL    HW1  964   0.481   0.459   1.792 -1.1102 -0.5014 -0.3742
   60SOL    HW2  965   0.478   0.488   1.643 -0.1713  0.5185 -0.2066
   61SOL     OW  966   3.958   4.480   3.541 -0.1614  0.1565 -0.2789
   61SOL    HW1  967   4.052   4.470   3.529  0.0837 -0.6523  1.8670
   61SOL    HW2  968   3.947   4.488   3.636 -2.1379  1.7130 -0.5704
   62SOL     OW  969   3.114   0.868   2.404  0.2831  0.2004 -0.2697
   62SOL    HW1  970   3.056   0.849   2.478 -1.3976  1.4613 -1.1905
   62SOL    HW2  971   3.193   0.905   2.443 -1.2451  2.4662  0.8490
   63SOL     OW  972   4.312   4.182   2.470  0.1677 -0.6075  0.8589
   63SOL    HW1  973   4.245   4.227   2.419  0.8506 -0.1598  0.3422
   63SOL    HW2  974   4.296   4.089   2.455 -0.3154 -0.5061  0.7240
   64SOL     OW  975   3.640   1.317   2.600 -0.1661 -0.7067 -0.3419
   64SOL    HW1  976   3.644   1.380   2.671  1.1792  1.3861 -2.1415
   64SOL    HW2  977   3.592   1.242   2.637 -2.2351  1.4756  1.7582
   65SOL     OW  978   5.008   1.575   2.267  0.5556  0.3688 -0.2919
   65SOL    HW1  979   4.916   1.557   2.288  0.9496  0.9368  2.2147
   65SOL    HW2  980   5.032   1.506   2.206 -1.0416 -0.9025  0.4378
   66SOL     OW  981   3.672   4.124   3.401  0.3219  0.6367  0.1206
   66SOL    HW1  982   3.642   4.200   3.452 -0.2814  0.6156 -0.1942
   66SOL    HW2  983   3.766   4.119   3.419  0.4547  1.7355 -0.2115
   67SOL     OW  984   5.024   0.589   2.910 -0.2727  1.1540  0.2027
   67SOL    HW1  985   5.089   0.526   2.878 -1.3136 -0.5318  1.2361
   67SOL    HW2  986   5.050   0.605   3.001 -2.1550 -0.8831  1.2013
   68SOL     OW  987   3.580   1.347   3.069 -0.3932  0.3189 -0.1589
   68SOL    HW1  988   3.669   1.382   3.067  0.2810 -1.3142 -0.2360
   68SOL    HW2  989   3.591   1.253   3.062 -2.1450  0.0780 -0.1587
   69SOL     OW  990   4.507   1.305   1.974 -0.0412  0.0797  0.3919
   69SOL    HW1  991   4.509   1.284   2.068  2.8903  0.0562  0.4098
   69SOL    HW2  992   4.599   1.306   1.948 -0.6998  1.5886 -2.1886
   70SOL     OW  993   4.739   3.549   2.750  0.0216 -0.2199 -0.5462
   70SOL    HW1  994   4.649   3.521   2.764  0.8846 -2.1741  1.7360
   70SOL    HW2  995   4.767   3.586   2.833  0.7543  2.3758 -1.8305
   71SOL     OW  996   3.511   4.882   1.360 -0.3995  0.1338 -0.3537
   71SOL    HW1  997   3.426   4.879   1.315 -0.6448 -0.0075  0.1106
   71SOL    HW2  998   3.489   4.876   1.453 -0.0195  2.0359 -0.0921
   72SOL     OW  999   2.977   5.489   2.894 -1.2472  0.5175  0.0487
   72SOL    HW1 1000   2.951   5.488   2.801  1.9302  2.0694 -1.0018
   72SOL    HW2 1001   3.070   5.513   2.893 -0.9687  0.1454  3.6560
   73SOL     OW 1002   4.815   0.444   1.734 -0.2873  0.0146 -0.9775
   73SOL    HW1 1003   4.846   0.421   1.821 -1.8004 -3.1290 -1.1279
   73SOL    HW2 1004   4.886   0.494   1.695  0.7253  0.8887  1.7495
   74SOL     OW 1005   3.542   0.414   2.978  0.4448  0.7550 -0.1982
   74SOL    HW1 1006   3.544   0.454   3.065  1.4102 -0.9462  0.6075
   74SOL    HW2 1007   3.527   0.321   2.994 -1.3481  0.6721 -1.9841
   75SOL     OW 1008   5.156   4.642   1.500  0.2198 -0.0969  0.2629
   75SOL    HW1 1009   5.146   4.676   1.411 -0.5067  0.9881  0.7327
   75SOL    HW2 1010   5.075   4.666   1.544  1.5597  1.7313  1.9328
   76SOL     OW 1011   3.566   0.418   1.430  0.0428 -0.9009 -0.6836
   76SOL    HW1 1012   3.494   0.445   1.373  1.3754  0.2144 -1.9042
   76SOL    HW2 1013   3.615   0.354   1.378 -0.2779 -1.9693  0.2973
   77SOL     OW 1014   3.290   0.459   1.228  0.5628 -0.4572 -0.1987
   77SOL    HW1 1015   3.226   0.415   1.172  1.0763 -1.4817 -0.0023
   77SOL    HW2 1016   3.237   0.516   1.284 -0.3636 -2.2671  0.8980
   78SOL     OW 1017   4.230   5.535   3.510  0.2239  0.7781  0.1695
   78SOL    HW1 1018   4.206   5.533   3.602  2.0011 -0.0242  0.6714
   78SOL    HW2 1019   4.270   5.449   3.494  0.4771  1.1262 -1.1837
   79SOL     OW 1020   4.630   0.026   1.390 -0.2551 -0.6400 -0.3233
   79SOL    HW1 1021   4.719   0.033   1.355  0.0155 -0.1859  0.4461
   79SOL    HW2 1022   4.574   0.042   1.314  0.3068  3.2804 -0.1412
   80SOL     OW 1023   4.373   4.095   3.475  0.0540  0.1917  0.3834
   80SOL    HW1 1024   4.321   4.025   3.514 -1.8824  1.3548  0.0475
   80SOL    HW2 1025   4.459   4.055   3.460 -0.5219 -1.6420  1.5425
   81SOL     OW 1026   4.456   1.296   1.514 -0.1977  0.4044  0.0759
   81SOL    HW1 1027   4.375   1.245   1.522 -0.8007  1.4750  1.1185
   81SOL    HW2 1028   4.442   1.351   1.436 -0.2761  0.2359 -0.0278
   82SOL     OW 1029   5.175   4.215   3.766  0.5268 -0.3717  0.0156
   82SOL    HW1 1030   5.138   4.133   3.800  0.6624  0.1187  1.4548
   82SOL    HW2 1031   5.121   4.236   3.690  0.7063 -1.9570 -0.5920
   83SOL     OW 1032   2.823   2.707   2.394 -0.9142  0.1151 -0.0047
   83SOL    HW1 1033   2.774   2.626   2.384 -0.6725  0.0656 -0.8576
   83SOL    HW2 1034   2.913   2.679   2.412 -1.2996  0.1987  2.3940
   84SOL     OW 1035   3.115   5.050   2.309 -0.5144 -0.2619 -0.0363
   84SOL    HW1 1036   3.132   4.962   2.344  1.5951 -1.2425 -3.1079
   84SOL    HW2 1037   3.081   5.035   2.221  0.2176  2.0011 -0.7689
   85SOL     OW 1038   2.877   4.786   2.516 -0.3119 -0.2757  0.1939
   85SOL    HW1 1039   2.954   4.797   2.460 -0.6563  0.3527 -0.1634
   85SOL    HW2 1040   2.804   4.775   2.455 -0.5434 -0.6321  0.5284
   86SOL     OW 1041   4.443   5.297   3.843 -0.6487 -0.5062  0.3487
   86SOL    HW1 1042   4.502   5.325   3.773  0.4280  0.1721  1.4892
   86SOL    HW2 1043   4.405   5.378   3.877  0.0024 -0.6809  1.5361
   87SOL     OW 1044   3.359   0.797   1.532 -0.1421  0.0723  0.5932
   87SOL    HW1 1045   3.377   0.880   1.577  1.7971 -0.4527  0.8681
   87SOL    HW2 1046   3.382   0.813   1.441 -1.5002  0.3297  0.2656
   88SOL     OW 1047   3.654   1.697   2.469  0.3323  0.7718  0.9609
   88SOL    HW1 1048   3.723   1.641   2.432  1.1289  1.8533  0.7648
   88SOL    HW2 1049   3.592   1.635   2.508  0.0205 -0.3681 -1.1785
   89SOL     OW 1050   4.568   0.820   1.778 -0.6487  0.2473  0.2342
   89SOL    HW1 1051   4.498   0.790   1.836 -1.9901 -0.4554 -1.6665
   89SOL    HW2 1052   4.564   0.762   1.702 -0.0369  2.1370 -1.3183
   90SOL     OW 1053   4.748   0.260   1.558  0.2459 -0.7355  0.1915
   90SOL    HW1 1054   4.809   0.297   1.494 -1.9590  1.4936 -0.7700
   90SOL    HW2 1055   4.770   0.303   1.640  2.5584 -3.0117  0.8817
   91SOL     OW 1056   3.834   1.692   1.285  0.1408 -0.6803 -0.3047
   91SOL    HW1 1057   3.766   1.703   1.352 -0.3499 -1.6460 -0.6328
   91SOL    HW2 1058   3.823   1.768   1.227 -0.3905 -0.6151 -0.1239
   92SOL     OW 1059   2.708   0.118   1.750 -0.2693 -0.7549  0.1380
   92SOL    HW1 1060   2.786   0.120   1.805  0.8949 -1.0859 -1.3965
   92SOL    HW2 1061   2.720   0.191   1.688 -1.3495 -0.6036  0.0821
   93SOL     OW 1062   3.790   0.509   5.725  0.2631  0.1384 -0.0833
   93SOL    HW1 1063   3.724   0.476   5.786  0.6616 -1.0630 -0.2801
   93SOL    HW2 1064   3.868   0.522   5.779  0.9531 -1.9902 -0.4902
   94SOL     OW 1065   4.957   1.224   3.641 -0.5908 -0.8516 -0.3812
   94SOL    HW1 1066   4.986   1.266   3.722 -0.4241 -0.3330 -0.6981
   94SOL    HW2 1067   5.025   1.159   3.622 -0.9825 -1.4601  0.2532
   95SOL     OW 1068   5.241   1.104   3.680 -0.3566 -0.2015  0.1763
   95SOL    HW1 1069   5.260   1.036   3.744 -0.4649 -1.1251 -0.7581
   95SOL    HW2 1070   5.327   1.131   3.647  0.0111  2.5929  2.9676
   96SOL     OW 1071   5.038   0.944   3.042  0.7108 -0.0569  0.2988
   96SOL    HW1 1072   4.961   0.893   3.015 -0.1524  2.5556 -2.7757
   96SOL    HW2 1073   5.002   1.022   3.083  1.7657  0.4380  0.3162
   97SOL     OW 1074   4.017   0.702   1.043 -0.4447 -0.0824  0.2187
   97SOL    HW1 1075   4.018   0.613   1.076  1.5789 -0.6303 -1.1164
   97SOL    HW2 1076   3.978   0.695   0.956  0.0323  0.2417 -0.0306
   98SOL     OW 1077   4.182   3.619   2.010  0.1615  0.0969  0.0755
   98SOL    HW1 1078   4.271   3.591   2.035 -0.4577 -1.7641  0.3951
   98SOL    HW2 1079   4.133   3.620   2.093 -0.0230  1.5925 -0.0299
   99SOL     OW 1080   4.378   1.049   2.484  0.0585 -0.2659  0.6290
   99SOL    HW1 1081   4.321   1.062   2.560  0.2815  1.9414  0.4968
   99SOL    HW2 1082   4.334   0.983   2.431 -1.4408  0.0614  1.4225
  100SOL     OW 1083   5.247   5.700   3.772 -0.0908 -0.0519  0.0695
  100SOL    HW1 1084   5.301   5.702   3.693 -0.4751  0.5525 -0.1853
  100SOL    HW2 1085   5.183   5.631   3.756  0.2173 -0.3534  0.1181
  101SOL     OW 1086   3.464   0.641   1.078  0.0186 -0.0474  0.3422
  101SOL    HW1 1087   3.424   0.728   1.078 -2.8097 -1.2259  0.0663
  101SOL    HW2 1088   3.417   0.592   1.146  2.0547 -1.1892  1.0253
  102SOL     OW 1089   4.656   1.797   1.656  0.6056  0.1997  0.4014
  102SOL    HW1 1090   4.591   1.850   1.704  0.5319  1.1613 -0.7036
  102SOL    HW2 1091   4.603   1.739   1.601  0.6670  0.6599 -0.1542
  103SOL     OW 1092   3.345   5.098   1.876 -0.3560  0.4620  0.4069
  103SOL    HW1 1093   3.348   5.086   1.781  1.6027  0.6585  0.4048
  103SOL    HW2 1094   3.254   5.080   1.899 -0.5191 -1.2941 -1.2852
  104SOL     OW 1095   3.072   0.483   2.019 -0.0677 -0.6457 -0.2557
  104SOL    HW1 1096   3.101   0.447   1.935 -1.7791 -1.8049 -0.4086
  104SOL    HW2 1097   2.976   0.486   2.011 -0.1186  2.0032  0.5740
  105SOL     OW 1098   3.533   1.315   1.811 -0.6412  0.0226  0.1310
  105SOL    HW1 1099   3.474   1.387   1.833  0.3125  0.7740  0.2950
  105SOL    HW2 1100   3.618   1.342   1.845 -0.0084 -0.6424 -0.8652
  106SOL     OW 1101   3.896   4.576   3.287  0.4324  0.0015 -0.4516
  106SOL    HW1 1102   3.837   4.513   3.244 -1.4797  1.5682 -0.2828
  106SOL    HW2 1103   3.916   4.536   3.372 -0.9997 -0.2828 -0.2177
  107SOL     OW 1104   4.911   0.989   2.486 -0.5790  0.0850  0.0875
  107SOL    HW1 1105   4.981   0.967   2.425 -0.1305 -0.5383  0.7959
  107SOL    HW2 1106   4.943   0.957   2.571 -2.2602 -1.4091  0.2233
  108SOL     OW 1107   3.655   4.729   1.167  0.0250 -0.8098 -0.1425
  108SOL    HW1 1108   3.599   4.798   1.202 -0.5938 -0.9504 -0.8481
  108SOL    HW2 1109   3.609   4.696   1.090 -0.4214 -3.0271  0.9930
  109SOL     OW 1110   4.240   3.114   2.045  0.1625 -0.9826  0.2016
  109SOL    HW1 1111   4.234   3.111   2.140 -1.9312  0.7001  0.2111
  109SOL    HW2 1112   4.324   3.157   2.027  0.3322 -0.8306  1.3107
  110SOL     OW 1113   3.950   3.020   2.018 -0.1860  0.1286  0.1294
  110SOL    HW1 1114   3.927   3.014   2.111 -0.0850  0.6023  0.1878
  110SOL    HW2 1115   4.043   3.045   2.019 -0.5778  1.6741 -0.0887
  111SOL     OW 1116   3.276   0.608   2.590  0.6137  0.0853 -0.2595
  111SOL    HW1 1117   3.334   0.551   2.641 -0.1936  0.7255  1.4596
  111SOL    HW2 1118   3.265   0.562   2.507 -0.9801 -3.0300  1.4502
  112SOL     OW 1119   5.521   4.442   3.039  0.0688  0.2374 -0.1235
  112SOL    HW1 1120   5.427   4.453   3.054  0.0484 -0.8978  0.7411
  112SOL    HW2 1121   5.547   4.374   3.100  1.3972  0.2781 -0.6074
  113SOL     OW 1122   3.471   1.157   3.426 -0.0465  0.6780 -0.4261
  113SOL    HW1 1123   3.486   1.230   3.486 -2.1269  1.5243 -0.8574
  113SOL    HW2 1124   3.559   1.132   3.396  0.8198  2.0258  0.8404
  114SOL     OW 1125   3.668   1.527   2.754  0.3612  1.0443 -0.5436
  114SOL    HW1 1126   3.725   1.518   2.830 -0.9238  1.5932  0.5195
  114SOL    HW2 1127   3.624   1.611   2.767  0.5741  1.4523 -2.2248
  115SOL     OW 1128   4.636   4.812   1.507  0.9530 -0.3356  0.3187
  115SOL    HW1 1129   4.721   4.810   1.551  0.7697 -0.2557  0.6729
  115SOL    HW2 1130   4.649   4.869   1.432  1.2980 -0.5676  0.2003
  116SOL     OW 1131   4.103   3.839   3.259  0.0254 -0.1658  0.8211
  116SOL    HW1 1132   4.065   3.920   3.295  1.3816 -0.2636  2.6358
  116SOL    HW2 1133   4.128   3.789   3.337 -0.3708 -2.1517 -0.2860
  117SOL     OW 1134   5.357   1.137   3.951 -0.0099  0.1761 -0.2675
  117SOL    HW1 1135   5.301   1.119   4.027 -0.0370 -0.9354 -0.5365
  117SOL    HW2 1136   5.311   1.206   3.903 -1.1113 -0.6478 -0.4275
  118SOL     OW 1137   5.069   0.171   2.664  0.0436  0.1683  0.4444
  118SOL    HW1 1138   5.070   0.120   2.583  3.1726  2.3120 -1.0937
  118SOL    HW2 1139   5.021   0.251   2.642  0.7667  0.6907  0.7123
  119SOL     OW 1140   3.191   5.392   2.759  0.2982  0.2609  0.7929
  119SOL    HW1 1141   3.155   5.306   2.782  0.3739 -0.0607 -0.2242
  119SOL    HW2 1142   3.243   5.375   2.681  0.7820  1.1411  0.9185
  120SOL     OW 1143   5.277   0.754   3.715  0.0561  0.2408 -0.0755
  120SOL    HW1 1144   5.227   0.765   3.796 -0.2140 -0.4319 -0.1366
  120SOL    HW2 1145   5.367   0.776   3.739 -0.2152  1.1887  0.1091
  121SOL     OW 1146   4.634   4.256   2.524  0.0619  0.3666  0.1642
  121SOL    HW1 1147   4.581   4.210   2.458  1.7090 -1.7658  0.2129
  121SOL    HW2 1148   4.707   4.293   2.475  0.1586  0.6284  0.5007
  122SOL     OW 1149   3.192   5.668   3.151  0.0609 -0.9611  0.3351
  122SOL    HW1 1150   3.253   5.603   3.116  1.9589  0.5129  0.7302
  122SOL    HW2 1151   3.171   5.724   3.075  0.0377 -0.8605  0.4152
  123SOL     OW 1152   4.005   4.477   0.807  0.4390 -0.3228 -0.3795
  123SOL    HW1 1153   3.980   4.552   0.862  1.6360 -0.0637 -0.1664
  123SOL    HW2 1154   4.032   4.516   0.724  0.1606 -0.5986 -0.6025
  124SOL     OW 1155   4.115   1.856   2.953  0.3972  0.3120 -0.0152
  124SOL    HW1 1156   4.024   1.879   2.936  0.6097  0.9235 -0.3922
  124SOL    HW2 1157   4.136   1.790   2.887  0.9629  2.0512 -1.6691
  125SOL     OW 1158   3.566   1.488   2.235  0.5881  0.3024 -1.0391
  125SOL    HW1 1159   3.523   1.405   2.213  0.7293 -0.3470  0.8924
  125SOL    HW2 1160   3.653   1.462   2.265  0.2588  0.9726  0.6526
  126SOL     OW 1161   3.732   1.584   1.973 -0.6157 -1.1163 -0.0873
  126SOL    HW1 1162   3.752   1.639   2.049  0.6612 -2.0226  0.2499
  126SOL    HW2 1163   3.646   1.615   1.944 -0.2351  0.6185  0.4843
  127SOL     OW 1164   5.119   1.041   2.718  0.4769 -0.6662  0.1213
  127SOL    HW1 1165   5.166   0.964   2.752 -1.6390 -1.7878  0.6824
  127SOL    HW2 1166   5.142   1.043   2.625  1.0582 -1.6182  0.2261
  128SOL     OW 1167   3.724   3.711   1.479  0.0668  0.9773  0.1030
  128SOL    HW1 1168   3.687   3.665   1.554  0.3319 -1.4509 -1.1460
  128SOL    HW2 1169   3.733   3.802   1.508 -1.2578  0.4359  2.4435
  129SOL     OW 1170   4.666   4.465   1.421  0.5282 -0.2285 -0.1479
  129SOL    HW1 1171   4.684   4.441   1.512  0.3041 -1.2800 -0.3760
  129SOL    HW2 1172   4.605   4.539   1.429  1.6317  0.6486  0.5581
  130SOL     OW 1173   2.508   5.466   1.523 -0.0450  0.3144 -0.5151
  130SOL    HW1 1174   2.544   5.378   1.532 -0.0876  0.3879  0.4021
  130SOL    HW2 1175   2.417   5.452   1.496 -0.8836 -0.0374  2.1860
  131SOL     OW 1176   4.023   0.817   3.256  0.0152 -0.3872  0.6021
  131SOL    HW1 1177   4.115   0.795   3.269  0.0164  0.4421  2.1737
  131SOL    HW2 1178   4.020   0.913   3.257 -0.9041 -0.4046  0.8910
  132SOL     OW 1179   5.098   0.802   3.935 -0.2496 -0.1321  0.6230
  132SOL    HW1 1180   5.056   0.734   3.988 -2.8680  0.4145 -0.5873
  132SOL    HW2 1181   5.036   0.820   3.864  0.7274  2.8642  0.3611
  133SOL     OW 1182   5.195   0.527   3.559 -0.6915 -0.4048 -0.3215
  133SOL    HW1 1183   5.245   0.581   3.620 -0.1513  1.5350 -2.3291
  133SOL    HW2 1184   5.251   0.451   3.543 -1.1367 -1.2997  2.0046
  134SOL     OW 1185   2.830   5.223   1.672 -0.0754 -0.4749  0.7915
  134SOL    HW1 1186   2.787   5.222   1.758 -1.1363  2.7143  0.4201
  134SOL    HW2 1187   2.892   5.296   1.677  1.6051 -1.7453 -0.4152
  135SOL     OW 1188   4.104   3.273   2.549  0.0836 -0.1934  0.5175
  135SOL    HW1 1189   4.102   3.268   2.645 -0.1183 -0.2407  0.5116
  135SOL    HW2 1190   4.195   3.294   2.528  0.3258 -1.0303  0.6839
  136SOL     OW 1191   5.169   5.309   2.607  0.1756 -0.9341 -0.1744
  136SOL    HW1 1192   5.188   5.321   2.700  2.2244  1.4819 -0.7668
  136SOL    HW2 1193   5.157   5.215   2.597 -2.2537 -1.1066  2.8263
  137SOL     OW 1194   3.809   2.419   1.050 -0.7258 -0.3795 -0.5055
  137SOL    HW1 1195   3.821   2.476   1.126  1.1889 -1.0090 -0.2926
  137SOL    HW2 1196   3.892   2.424   1.002 -1.0179 -1.9201 -1.2262
  138SOL     OW 1197   1.584   4.129   3.718  0.2305  0.3182  0.2761
  138SOL    HW1 1198   1.657   4.185   3.694 -1.0522  1.5152 -0.9916
  138SOL    HW2 1199   1.625   4.044   3.739  1.8588  0.5334 -1.7441
  139SOL     OW 1200   4.539   5.622   3.682 -0.1812 -0.0141 -0.3254
  139SOL    HW1 1201   4.605   5.687   3.707 -0.4870 -0.2474  1.1627
  139SOL    HW2 1202   4.589   5.541   3.672 -0.3767 -0.5580  2.3540
  140SOL     OW 1203   4.634   2.109   1.848 -0.5914 -0.2956  0.7684
  140SOL    HW1 1204   4.666   2.145   1.931 -0.2513 -2.3946  1.6012
  140SOL    HW2 1205   4.691   2.148   1.781  0.0873  0.2786  1.6665
  141SOL     OW 1206   3.786   4.298   2.356 -0.4289  0.0758  0.3913
  141SOL    HW1 1207   3.827   4.214   2.376  2.6666  1.4469  0.5685
  141SOL    HW2 1208   3.720   4.278   2.290 -0.1206 -2.5111  0.7520
  142SOL     OW 1209   2.685   4.816   1.603 -0.1815 -0.2589 -0.3848
  142SOL    HW1 1210   2.658   4.907   1.618  0.0404 -0.4604  1.4123
  142SOL    HW2 1211   2.745   4.821   1.528  0.4716  1.2015  0.1942
  143SOL     OW 1212   4.794   4.251   1.231 -0.0024 -0.7658  0.0606
  143SOL    HW1 1213   4.708   4.264   1.191  0.0457 -0.9485 -0.1025
  143SOL    HW2 1214   4.832   4.338   1.235 -0.8558 -0.4216  1.6428
  144SOL     OW 1215   5.182   2.550   2.099  0.0579  0.0498 -0.0336
  144SOL    HW1 1216   5.123   2.478   2.076 -0.2980  0.4972 -0.5385
  144SOL    HW2 1217   5.125   2.620   2.130  0.5451 -0.7255  2.9197
  145SOL     OW 1218   3.622   3.940   0.731 -0.3939 -0.0321  0.0109
  145SOL    HW1 1219   3.653   3.953   0.821 -1.3299 -3.4098  0.9586
  145SOL    HW2 1220   3.693   3.893   0.688 -1.1890 -1.2471 -0.0184
  146SOL     OW 1221   4.550   3.992   1.346 -1.1012  0.0755 -0.2692
  146SOL    HW1 1222   4.541   3.988   1.441  0.4417  0.5606 -0.0768
  146SOL    HW2 1223   4.508   3.912   1.314 -2.8856  0.5627  0.6821
  147SOL     OW 1224   5.007   5.259   3.212 -0.2855 -0.2186  0.0818
  147SOL    HW1 1225   5.059   5.230   3.287  0.3050 -1.3043 -0.7195
  147SOL    HW2 1226   4.939   5.315   3.250  0.8923  0.4753  1.2598
  148SOL     OW 1227   3.447   1.572   3.107  0.1056  0.0196  0.3275
  148SOL    HW1 1228   3.427   1.593   3.198  0.6014  1.2688  0.1651
  148SOL    HW2 1229   3.503   1.495   3.111  0.6677  0.4674  1.1087
  149SOL     OW 1230   4.516   1.472   1.105 -0.0098  0.0644 -0.3690
  149SOL    HW1 1231   4.600   1.427   1.094  0.1506  0.5595 -1.3338
  149SOL    HW2 1232   4.476   1.469   1.018 -1.6520 -1.3981  0.3682
  150SOL     OW 1233   4.665   3.230   1.658 -0.4973 -0.2579  0.8471
  150SOL    HW1 1234   4.742   3.268   1.701  0.0920  0.4379 -0.7344
  150SOL    HW2 1235   4.591   3.256   1.713  0.2886 -0.0795  1.8526
  151SOL     OW 1236   4.214   0.972   1.559 -0.2771 -0.9423 -0.0413
  151SOL    HW1 1237   4.171   1.054   1.533 -0.3732 -1.2105 -0.7387
  151SOL    HW2 1238   4.141   0.913   1.581 -0.2289 -1.0520 -0.1782
  152SOL     OW 1239   4.757   5.408   0.876 -0.3111 -0.1413 -0.1450
  152SOL    HW1 1240   4.736   5.328   0.828  0.6034  0.3540 -1.4245
  152SOL    HW2 1241   4.672   5.443   0.903 -0.7229 -1.5532  0.5009
  153SOL     OW 1242   4.441   4.109   1.962 -0.0809 -0.1418  0.5424
  153SOL    HW1 1243   4.532   4.134   1.946  1.1804 -2.0927  3.5078
  153SOL    HW2 1244   4.404   4.182   2.012  0.1882  0.2325  0.1974
  154SOL     OW 1245   4.846   0.647   3.840  0.4599  0.0763  0.1373
  154SOL    HW1 1246   4.865   0.574   3.781 -1.4649  1.1316 -1.9670
  154SOL    HW2 1247   4.751   0.640   3.856  0.3840  1.6541  0.5071
  155SOL     OW 1248   4.499   4.846   0.980 -0.5955  0.3522  0.2809
  155SOL    HW1 1249   4.502   4.911   1.049  2.4346 -0.5499  1.1946
  155SOL    HW2 1250   4.570   4.871   0.920 -0.3945 -1.2014 -0.1848
  156SOL     OW 1251   3.296   0.650   3.326  0.4859 -0.6820  0.1568
  156SOL    HW1 1252   3.238   0.714   3.285 -1.0093 -1.0577  1.5957
  156SOL    HW2 1253   3.341   0.698   3.395  0.8581 -0.7301 -0.0467
  157SOL     OW 1254   5.331   5.231   3.917  0.8151 -0.3451 -0.3200
  157SOL    HW1 1255   5.246   5.239   3.959 -0.2337 -3.2139 -1.6578
  157SOL    HW2 1256   5.390   5.202   3.987  0.5117  0.8137  0.4274
  158SOL     OW 1257   5.347   1.278   2.215 -0.1755 -0.1498 -0.0610
  158SOL    HW1 1258   5.410   1.341   2.252 -0.0075 -0.6682  0.5465
  158SOL    HW2 1259   5.402   1.212   2.173 -0.2829 -0.9201  0.9780
  159SOL     OW 1260   3.979   0.483   1.710 -0.0934  0.3900  0.2028
  159SOL    HW1 1261   3.954   0.420   1.779  0.9869 -0.8626 -0.5038
  159SOL    HW2 1262   3.905   0.544   1.706 -0.2653  0.4180  2.3559
  160SOL     OW 1263   5.155   4.008   3.454 -0.0159  0.0857 -0.2099
  160SOL    HW1 1264   5.237   4.043   3.420 -1.3798  2.0543 -1.7259
  160SOL    HW2 1265   5.108   4.084   3.487 -1.5506 -0.8758 -0.0692
  161SOL     OW 1266   4.661   0.559   1.947 -0.1599  0.7856 -0.4390
  161SOL    HW1 1267   4.701   0.640   1.979  0.9078  0.2053 -0.2405
  161SOL    HW2 1268   4.704   0.542   1.864 -0.7154  0.6516 -0.7056
  162SOL     OW 1269   3.333   1.850   2.410  0.0090 -0.1421  0.2946
  162SOL    HW1 1270   3.390   1.923   2.433 -0.9376  0.3362  1.1869
  162SOL    HW2 1271   3.347   1.786   2.481  0.4025 -0.5917 -0.1780
  163SOL     OW 1272   4.426   4.667   4.055 -0.1434  0.3008  0.5265
  163SOL    HW1 1273   4.406   4.734   3.988  1.2843  0.1173 -0.1111
  163SOL    HW2 1274   4.521   4.662   4.056 -0.2156 -1.4466  0.8590
  164SOL     OW 1275   4.751   1.617   1.906  0.9504 -0.3125 -0.0143
  164SOL    HW1 1276   4.773   1.530   1.874 -0.5168 -1.0656  0.9326
  164SOL    HW2 1277   4.758   1.673   1.829 -1.5667 -1.9063 -1.5162
  165SOL     OW 1278   5.241   4.738   3.452 -0.3375  0.0936  0.7924
  165SOL    HW1 1279   5.234   4.729   3.357 -1.9335 -1.7616  1.0171
  165SOL    HW2 1280   5.324   4.784   3.466  0.6110 -0.7986 -1.4393
  166SOL     OW 1281   5.597   4.578   2.828  0.7627 -0.6701 -0.9167
  166SOL    HW1 1282   5.669   4.521   2.800 -0.0570 -1.3938 -1.5902
  166SOL    HW2 1283   5.580   4.553   2.919  2.1434  0.3442 -0.3413
  167SOL     OW 1284   4.303   3.107   2.311 -0.2349 -0.1909  0.4540
  167SOL    HW1 1285   4.339   3.033   2.359 -0.3132 -0.4905  0.0511
  167SOL    HW2 1286   4.363   3.179   2.329 -1.5670  0.4181  3.0801
  168SOL     OW 1287   3.840   0.885   3.792 -0.5191 -0.1273  0.3726
  168SOL    HW1 1288   3.754   0.898   3.832  0.3881  0.2076  2.3263
  168SOL    HW2 1289   3.859   0.792   3.808 -1.1995 -0.6305 -1.5453
  169SOL     OW 1290   2.720   0.509   3.279 -0.1016 -0.0665  0.0071
  169SOL    HW1 1291   2.801   0.560   3.276  1.2342 -2.0307  0.8764
  169SOL    HW2 1292   2.729   0.446   3.208  0.7593 -2.4729  2.0999
  170SOL     OW 1293   3.241   4.528   2.417  0.0289  0.7167 -0.3226
  170SOL    HW1 1294   3.236   4.483   2.333 -2.2371  1.0448 -0.4210
  170SOL    HW2 1295   3.330   4.511   2.448  0.3154 -0.9668 -1.9085
  171SOL     OW 1296   2.957   4.078   3.056 -0.3836  0.1426  0.2202
  171SOL    HW1 1297   2.976   4.172   3.062  0.6757  0.0582 -1.1396
  171SOL    HW2 1298   3.007   4.039   3.128  1.9391  0.3176 -1.2035
  172SOL     OW 1299   3.473   2.918   1.588  0.1408  0.5379 -0.1997
  172SOL    HW1 1300   3.404   2.961   1.639  1.7319  1.0102  1.6866
  172SOL    HW2 1301   3.511   2.853   1.647  0.4112 -0.7116 -1.6751
  173SOL     OW 1302   4.289   5.360   1.260 -0.0123  0.1671 -0.1170
  173SOL    HW1 1303   4.312   5.272   1.290 -1.7638 -0.6524 -1.0084
  173SOL    HW2 1304   4.337   5.419   1.318  2.8944 -1.3286 -0.8134
  174SOL     OW 1305   3.676   1.798   2.728 -0.2869 -0.2618 -0.2806
  174SOL    HW1 1306   3.754   1.829   2.773 -1.2158  0.2064  1.1067
  174SOL    HW2 1307   3.694   1.812   2.635  0.1462  2.6383  0.1430
  175SOL     OW 1308   3.984   1.590   2.661 -0.7470 -0.2543 -0.3281
  175SOL    HW1 1309   4.009   1.527   2.594  0.5850 -0.1270  0.0153
  175SOL    HW2 1310   3.889   1.582   2.667 -0.6629 -1.8952 -0.6241
  176SOL     OW 1311   5.481   5.369   3.720  0.3652 -0.2788 -0.4696
  176SOL    HW1 1312   5.547   5.302   3.738  1.1946  0.5509 -0.3346
  176SOL    HW2 1313   5.410   5.349   3.781 -0.6174 -2.6064 -2.2184
  177SOL     OW 1314   4.259   3.532   1.602 -1.3617  0.4335 -0.1442
  177SOL    HW1 1315   4.302   3.618   1.607 -0.0453 -0.2024 -0.2296
  177SOL    HW2 1316   4.283   3.498   1.516 -0.8358 -0.5401  0.3754
  178SOL     OW 1317   5.313   0.504   3.915 -0.0217 -0.0906 -0.2408
  178SOL    HW1 1318   5.284   0.499   4.007  1.3047 -1.0474  0.1596
  178SOL    HW2 1319   5.348   0.417   3.897  0.8721  0.4579 -1.2599
  179SOL     OW 1320   3.583   5.140   1.066  0.7752  0.1075 -0.2992
  179SOL    HW1 1321   3.633   5.218   1.090  1.1167 -0.1196 -0.2595
  179SOL    HW2 1322   3.634   5.100   0.995  1.8147 -1.2943  1.1650
  180SOL     OW 1323   4.347   1.979   3.051 -0.4459  0.1319  0.3321
  180SOL    HW1 1324   4.259   1.955   3.021 -0.4503  0.1204  0.3539
  180SOL    HW2 1325   4.389   2.017   2.974 -0.8206  1.1015  0.5911
  181SOL     OW 1326   3.018   0.349   2.531  0.3696  0.0870 -1.5416
  181SOL    HW1 1327   3.033   0.381   2.442 -1.5274 -0.3407 -2.0599
  181SOL    HW2 1328   2.926   0.321   2.532  0.4968 -0.4485  0.3941
  182SOL     OW 1329   4.308   3.909   2.054  0.3070  0.0859  0.3870
  182SOL    HW1 1330   4.230   3.892   2.001 -0.6470  1.6669  1.1882
  182SOL    HW2 1331   4.359   3.970   2.001  0.7622 -0.5610  0.0767
  183SOL     OW 1332   3.282   0.377   2.877  0.7661 -0.0676  0.7191
  183SOL    HW1 1333   3.353   0.432   2.910 -0.1511  1.8191 -0.2686
  183SOL    HW2 1334   3.219   0.372   2.949  0.4181  1.0223  0.5088
  184SOL     OW 1335   3.954   3.819   2.337 -0.1190 -0.1688 -0.5721
  184SOL    HW1 1336   3.967   3.782   2.425  2.6340  3.7019  0.9183
  184SOL    HW2 1337   3.983   3.750   2.278 -0.9134 -2.4888  1.5677
  185SOL     OW 1338   5.067   3.473   1.740  0.5591  0.1193  0.2520
  185SOL    HW1 1339   5.079   3.555   1.788  4.3871  0.8239 -1.5682
  185SOL    HW2 1340   5.021   3.499   1.660 -0.9639 -0.1325  1.0037
  186SOL     OW 1341   3.126   0.791   2.712 -0.0424 -0.3839 -0.3929
  186SOL    HW1 1342   3.081   0.727   2.767 -2.5910  0.6296 -1.1634
  186SOL    HW2 1343   3.178   0.738   2.652 -0.9700 -1.6952 -0.0873
  187SOL     OW 1344   4.358   4.160   3.167 -0.1273  0.1754 -0.9629
  187SOL    HW1 1345   4.350   4.159   3.262 -2.3003  3.8003 -0.9228
  187SOL    HW2 1346   4.309   4.084   3.138 -0.0793 -0.5702  0.7748
  188SOL     OW 1347   4.947   1.572   3.958  0.5964  0.1444 -0.6677
  188SOL    HW1 1348   4.918   1.638   4.021  0.4637 -0.7576  0.2350
  188SOL    HW2 1349   4.907   1.491   3.989  0.2665 -0.2632 -2.1034
  189SOL     OW 1350   3.284   0.986   2.811  0.0111  0.7154 -0.1732
  189SOL    HW1 1351   3.203   0.950   2.775 -0.3536  1.2543  0.1018
  189SOL    HW2 1352   3.317   0.917   2.869  0.0330  0.2810 -0.6926
  190SOL     OW 1353   3.107   3.337   0.172  0.6032 -0.4405  0.3650
  190SOL    HW1 1354   3.185   3.286   0.192  1.4128  0.5925 -0.0355
  190SOL    HW2 1355   3.123   3.372   0.085 -0.5207 -0.5802  0.0857
  191SOL     OW 1356   4.926   5.618   0.846  0.0999  0.5232  0.2000
  191SOL    HW1 1357   4.886   5.646   0.764  2.1299 -0.0822 -1.0764
  191SOL    HW2 1358   4.880   5.538   0.870 -0.3076  0.5404 -0.5031
  192SOL     OW 1359   5.070   2.117   2.183 -0.7287 -0.3676  0.0571
  192SOL    HW1 1360   5.138   2.075   2.130  2.3994  0.3758  3.0727
  192SOL    HW2 1361   5.039   2.049   2.242 -0.0905  0.0341  0.8900
  193SOL     OW 1362   5.254   0.882   1.541  0.1234  0.5631 -0.4129
  193SOL    HW1 1363   5.196   0.932   1.485 -0.8167  1.0881  0.9765
  193SOL    HW2 1364   5.226   0.791   1.531 -1.4467  0.8769  0.7468
  194SOL     OW 1365   3.201   4.148   2.384  0.4696 -0.4826  0.1781
  194SOL    HW1 1366   3.106   4.156   2.371  0.3186 -0.8966  1.0034
  194SOL    HW2 1367   3.214   4.162   2.477  1.1247 -1.3369  0.2230
  195SOL     OW 1368   4.000   5.315   1.358 -0.5272 -0.6676  0.2416
  195SOL    HW1 1369   3.965   5.274   1.280  1.1415  0.1591 -0.9960
  195SOL    HW2 1370   4.083   5.271   1.374  1.1244  1.8231 -0.9057
  196SOL     OW 1371   4.219   0.391   1.491  0.0543 -1.0364 -0.7523
  196SOL    HW1 1372   4.292   0.351   1.444  2.4116  0.9353  1.0092
  196SOL    HW2 1373   4.240   0.484   1.494 -1.8503 -0.5882  1.0435
  197SOL     OW 1374   4.838   3.987   1.340  0.1830  0.4177 -0.2727
  197SOL    HW1 1375   4.746   3.998   1.366 -0.3967  0.9126 -2.3538
  197SOL    HW2 1376   4.863   4.073   1.307  0.2945 -0.5568 -2.9007
  198SOL     OW 1377   5.115   0.137   1.645  0.1338  0.0851 -0.2362
  198SOL    HW1 1378   5.110   0.095   1.559 -0.8918 -1.4098  0.5066
  198SOL    HW2 1379   5.161   0.074   1.701  1.3102  1.2813  0.2012
  199SOL     OW 1380   4.510   1.338   3.058  0.1208  0.3893 -0.1964
  199SOL    HW1 1381   4.587   1.385   3.089 -0.0839  0.6032 -0.0139
  199SOL    HW2 1382   4.545   1.254   3.027  0.3185  0.1383  0.6735
  200SOL     OW 1383   4.139   4.578   1.421  0.0359 -0.3221 -0.4500
  200SOL    HW1 1384   4.051   4.593   1.387 -0.9876  0.0660  2.0832
  200SOL    HW2 1385   4.180   4.518   1.359 -2.9170 -2.5417 -0.4900
  201SOL     OW 1386   3.937   2.153   1.311  0.0814 -0.1165  0.3516
  201SOL    HW1 1387   3.970   2.092   1.378  0.3485 -1.6970 -1.1369
  201SOL    HW2 1388   4.014   2.205   1.287 -0.0923  0.6948  1.4730
  202SOL     OW 1389   5.191   4.558   3.732 -0.5402  0.0442 -0.0225
  202SOL    HW1 1390   5.278   4.528   3.760  0.1722 -0.0516 -2.1702
  202SOL    HW2 1391   5.138   4.479   3.731 -0.2070 -0.1772 -0.2735
  203SOL     OW 1392   3.361   4.858   2.514 -0.1509  0.0524 -0.3911
  203SOL    HW1 1393   3.332   4.832   2.601  1.2010  0.2598  0.1368
  203SOL    HW2 1394   3.329   4.788   2.457  2.0183 -2.0302  0.7708
  204SOL     OW 1395   4.982   0.855   1.246  0.0255  0.4046 -0.0241
  204SOL    HW1 1396   4.994   0.933   1.193 -0.3910  0.0916 -0.5972
  204SOL    HW2 1397   4.919   0.880   1.314 -1.6916  0.0522 -1.3959
  205SOL     OW 1398   4.576   1.451   2.650 -0.2315 -0.0650 -0.3766
  205SOL    HW1 1399   4.507   1.385   2.657 -0.5294  0.1879 -0.9295
  205SOL    HW2 1400   4.566   1.504   2.729  0.8756 -1.4979  0.7809
  206SOL     OW 1401   5.316   0.305   3.483 -0.3577 -0.3555  0.5441
  206SOL    HW1 1402   5.292   0.278   3.394 -0.3358 -0.6835  0.6363
  206SOL    HW2 1403   5.329   0.223   3.530 -1.8207 -0.1936  1.2616
  207SOL     OW 1404   3.893   5.550   1.200 -1.0631  0.0412  0.7190
  207SOL    HW1 1405   3.939   5.575   1.280  0.5211 -2.7397  0.7841
  207SOL    HW2 1406   3.846   5.470   1.223 -0.5427 -0.8557 -1.1015
  208SOL     OW 1407   4.177   5.119   1.383  0.0576 -0.1871  0.1914
  208SOL    HW1 1408   4.271   5.104   1.378  0.2429  1.0985 -1.6284
  208SOL    HW2 1409   4.151   5.085   1.468  1.5888 -3.4315 -0.4822
  209SOL     OW 1410   3.885   4.078   3.842  0.3110  0.0700  0.2865
  209SOL    HW1 1411   3.910   4.053   3.753  1.4512  0.7509  0.3967
  209SOL    HW2 1412   3.920   4.008   3.898  1.5348  0.7355  0.3859
  210SOL     OW 1413   4.761   1.215   2.448 -0.0356  0.0209 -0.3972
  210SOL    HW1 1414   4.730   1.175   2.529 -1.3545  0.5150 -0.6312
  210SOL    HW2 1415   4.814   1.147   2.407 -3.7433 -2.4395 -1.7129
  211SOL     OW 1416   4.576   4.678   3.512 -0.2911 -0.2574  0.0778
  211SOL    HW1 1417   4.558   4.586   3.534  0.7706 -0.5101 -0.0784
  211SOL    HW2 1418   4.577   4.680   3.416 -1.4961  0.1639  0.0628
  212SOL     OW 1419   4.905   0.058   1.221 -0.1181  0.3689  0.9769
  212SOL    HW1 1420   4.970   0.094   1.161  0.2239  0.3487  1.3346
  212SOL    HW2 1421   4.930  -0.033   1.234 -1.7066 -0.4090 -0.9243
  213SOL     OW 1422   4.219   4.862   3.894  0.2314 -0.3480  0.0944
  213SOL    HW1 1423   4.261   4.842   3.810 -0.2621  0.7246 -0.4263
  213SOL    HW2 1424   4.246   4.951   3.914  0.9116 -0.8350  1.4524
  214SOL     OW 1425   4.594   3.942   2.391  0.8093  0.1345 -0.2690
  214SOL    HW1 1426   4.647   3.945   2.470  1.9619  1.2610 -1.0441
  214SOL    HW2 1427   4.592   3.849   2.367 -0.9328 -0.4908  1.9174
  215SOL     OW 1428   2.787   4.634   2.001  0.4276 -0.1463  0.5946
  215SOL    HW1 1429   2.735   4.591   1.933  1.2258  0.2775 -0.3044
  215SOL    HW2 1430   2.789   4.726   1.976  4.4641 -0.5628 -1.4559
  216SOL     OW 1431   4.757   0.607   3.425  0.6532  0.2955  0.0808
  216SOL    HW1 1432   4.802   0.590   3.343  1.1290  0.1424  0.3714
  216SOL    HW2 1433   4.808   0.675   3.468  1.9798 -1.4771  1.4575
  217SOL     OW 1434   5.068   1.782   2.622 -0.5517  0.1265  0.2379
  217SOL    HW1 1435   5.038   1.853   2.565 -0.3381  0.6878  0.8117
  217SOL    HW2 1436   5.154   1.810   2.652 -1.4382  0.8145  2.4035
  218SOL     OW 1437   4.271   4.734   1.050 -0.5617 -0.3025 -0.0839
  218SOL    HW1 1438   4.331   4.793   1.005  0.4795 -0.1568  1.4080
  218SOL    HW2 1439   4.325   4.659   1.074 -1.8266 -1.8325 -1.8007
  219SOL     OW 1440   3.374   0.420   2.339  0.6885 -0.2045 -0.1327
  219SOL    HW1 1441   3.455   0.448   2.383  0.0691  1.4984  0.0106
  219SOL    HW2 1442   3.382   0.325   2.332  3.6054  0.0258 -1.8844
  220SOL     OW 1443   2.957   4.885   2.113 -0.4726  0.0346 -0.4597
  220SOL    HW1 1444   2.934   4.863   2.023 -0.4517  1.1477 -0.7459
  220SOL    HW2 1445   2.878   4.868   2.164 -0.1085 -1.8690 -0.4370
  221SOL     OW 1446   5.068   5.240   3.991  0.7853 -0.4010  0.3919
  221SOL    HW1 1447   5.072   5.183   3.915  2.7670  0.3676 -0.1668
  221SOL    HW2 1448   4.993   5.210   4.041 -0.5257 -0.9786 -1.8180
  222SOL     OW 1449   4.351   1.588   2.519 -0.4178  0.5121 -0.3677
  222SOL    HW1 1450   4.364   1.624   2.431 -1.7163 -3.0332 -2.1829
  222SOL    HW2 1451   4.439   1.570   2.551  0.1283  2.7507 -0.3918
  223SOL     OW 1452   3.811   1.306   1.360 -0.1604 -0.3970  0.2137
  223SOL    HW1 1453   3.731   1.357   1.349  0.9829  0.9743 -3.1666
  223SOL    HW2 1454   3.856   1.348   1.433 -0.9112  1.1734 -0.1713
  224SOL     OW 1455   4.811   0.110   3.429  0.1050 -0.7422  0.3345
  224SOL    HW1 1456   4.857   0.057   3.494  0.0034 -0.4152  0.6773
  224SOL    HW2 1457   4.796   0.050   3.355  0.1601 -1.1374  0.6389
  225SOL     OW 1458   4.473   3.958   1.639 -0.7706 -0.2995 -0.1471
  225SOL    HW1 1459   4.433   3.876   1.610 -1.0121 -0.7952  1.5074
  225SOL    HW2 1460   4.503   3.941   1.728  0.2380  1.0594 -0.1855
  226SOL     OW 1461   5.102   0.738   2.051  0.1893  0.3517 -0.3637
  226SOL    HW1 1462   5.078   0.807   1.989 -0.1073 -0.8197 -1.5901
  226SOL    HW2 1463   5.147   0.672   1.998  2.5670  0.6129  1.1704
  227SOL     OW 1464   2.810   0.545   2.130 -0.2721 -0.4042  0.0833
  227SOL    HW1 1465   2.734   0.602   2.144  1.1076  1.6638 -0.4790
  227SOL    HW2 1466   2.850   0.537   2.217 -0.4886 -0.5877  0.1695
  228SOL     OW 1467   3.454   4.909   2.253  0.0949 -0.1997  0.1362
  228SOL    HW1 1468   3.494   4.916   2.166  1.7596 -0.4398  0.8554
  228SOL    HW2 1469   3.471   4.819   2.281 -2.0881 -0.7328 -0.0196
  229SOL     OW 1470   3.155   4.778   2.344  0.2405  0.7117  0.0451
  229SOL    HW1 1471   3.160   4.756   2.251  1.0401  1.1388 -0.0250
  229SOL    HW2 1472   3.156   4.694   2.389 -2.8327  0.3328 -0.3785
  230SOL     OW 1473   3.057   0.054   1.600 -0.5275  0.3282  0.2314
  230SOL    HW1 1474   3.129   0.090   1.549 -1.0623  1.8309  0.4813
  230SOL    HW2 1475   3.047  -0.036   1.568  0.7942  0.4238 -0.4982
  231SOL     OW 1476   4.880   0.764   1.750  0.0740 -0.2649  0.5426
  231SOL    HW1 1477   4.814   0.702   1.719 -0.5440  0.8008 -0.3387
  231SOL    HW2 1478   4.960   0.738   1.704 -0.3184 -0.0787 -0.2696
  232SOL     OW 1479   0.007   5.319   2.984  0.1169 -1.0045 -0.0633
  232SOL    HW1 1480   0.085   5.298   2.933  0.6462 -2.7374  1.3449
  232SOL    HW2 1481  -0.066   5.284   2.933  0.2017  0.5725 -1.3602
  233SOL     OW 1482   3.983   3.446   1.684  0.3719 -0.4922  0.0395
  233SOL    HW1 1483   4.026   3.528   1.660  0.1754 -0.5494 -0.5195
  233SOL    HW2 1484   4.027   3.379   1.632  0.2439 -0.6815  0.1747
  234SOL     OW 1485   4.557   0.608   2.935 -0.5771 -0.1213 -1.0600
  234SOL    HW1 1486   4.542   0.535   2.875 -1.0230 -1.7756  0.9494
  234SOL    HW2 1487   4.470   0.641   2.955 -0.6806 -1.2587  0.5784
  235SOL     OW 1488   3.097   1.332   3.696 -0.8100  0.3219  0.2866
  235SOL    HW1 1489   3.170   1.291   3.650  0.0644 -0.3995  2.1878
  235SOL    HW2 1490   3.026   1.268   3.690 -0.6723  0.1890  0.0508
  236SOL     OW 1491   3.696   5.132   3.046 -0.8269 -0.6771  0.4120
  236SOL    HW1 1492   3.678   5.198   2.979 -4.3132  0.6289  2.3353
  236SOL    HW2 1493   3.609   5.100   3.072  0.4850 -2.6019  2.8674
  237SOL     OW 1494   4.701   4.225   1.843  0.5162 -0.0488 -0.2258
  237SOL    HW1 1495   4.766   4.162   1.873 -0.7786 -2.4605 -2.1473
  237SOL    HW2 1496   4.749   4.307   1.832  2.2550 -0.5894  2.4533
  238SOL     OW 1497   4.571   0.672   3.911 -0.1882  0.6218  0.3206
  238SOL    HW1 1498   4.556   0.746   3.852  1.9454  2.2930  1.7448
  238SOL    HW2 1499   4.561   0.709   3.998  0.5504 -0.8783  1.0733
  239SOL     OW 1500   4.389   3.760   2.468  0.7086  0.0252  0.0552
  239SOL    HW1 1501   4.439   3.831   2.507 -0.5106  0.0960  1.6055
  239SOL    HW2 1502   4.316   3.803   2.424 -1.9956 -0.1951  3.8215
  240SOL     OW 1503   5.003   0.546   1.063 -0.4814  0.1575  0.0610
  240SOL    HW1 1504   4.913   0.571   1.045  0.1309  0.5629 -3.0319
  240SOL    HW2 1505   5.006   0.452   1.043  0.2266  0.6171 -2.2498
  241SOL     OW 1506   3.621   0.775   2.420 -0.5101  0.0848 -0.6112
  241SOL    HW1 1507   3.715   0.790   2.407 -0.8575  0.5110 -3.1605
  241SOL    HW2 1508   3.617   0.697   2.475  1.2832  1.8886  2.3468
  242SOL     OW 1509   4.065   5.704   3.924 -0.3682 -0.6213  0.1867
  242SOL    HW1 1510   4.113   5.707   3.841 -1.1710  1.4959 -0.2564
  242SOL    HW2 1511   4.132   5.723   3.991 -0.0552 -0.5389 -0.1490
  243SOL     OW 1512   2.713   4.571   1.717 -0.2174  0.2545 -0.7394
  243SOL    HW1 1513   2.666   4.654   1.705 -1.6151 -0.5121 -0.8689
  243SOL    HW2 1514   2.793   4.581   1.666  0.6320  2.2492  0.8386
  244SOL     OW 1515   4.874   0.126   0.908  0.1010 -0.1162  0.1332
  244SOL    HW1 1516   4.896   0.033   0.910 -0.8791 -0.4479 -1.7635
  244SOL    HW2 1517   4.797   0.131   0.851  0.1143  1.8563  0.2171
  245SOL     OW 1518   5.530   1.049   2.188 -0.3754 -0.8834 -0.2771
  245SOL    HW1 1519   5.609   1.008   2.222 -0.3846  0.1784  1.1390
  245SOL    HW2 1520   5.463   1.032   2.255 -0.2578  1.7411  0.6476
  246SOL     OW 1521   3.605   4.031   1.288  1.0087  0.1721 -0.6761
  246SOL    HW1 1522   3.521   4.069   1.312  1.2231 -0.7710  1.8338
  246SOL    HW2 1523   3.653   4.024   1.371  3.3183  0.0622 -1.9230
  247SOL     OW 1524   4.257   3.542   3.782  0.5263 -0.1546 -0.5704
  247SOL    HW1 1525   4.179   3.497   3.814  0.9887 -0.9774 -0.5456
  247SOL    HW2 1526   4.324   3.473   3.780  1.0510  0.3629 -1.2928
  248SOL     OW 1527   5.170   5.021   3.377  0.1444  0.0251 -0.6109
  248SOL    HW1 1528   5.245   5.070   3.343 -1.3084  2.3290 -0.7183
  248SOL    HW2 1529   5.198   4.995   3.465  0.8448  1.4581 -0.3750
  249SOL     OW 1530   4.253   0.923   2.101 -0.3819  0.2826 -0.1900
  249SOL    HW1 1531   4.308   0.897   2.027  1.5440 -0.3002  1.3491
  249SOL    HW2 1532   4.308   0.908   2.178 -1.9275  1.8381  1.3126
  250SOL     OW 1533   5.068   0.192   4.221  0.5403 -0.4364  0.0699
  250SOL    HW1 1534   5.160   0.177   4.196  0.2541 -2.7074  0.1421
  250SOL    HW2 1535   5.036   0.105   4.244 -1.4214  0.4489  0.8408
  251SOL     OW 1536   4.173   2.866   1.147 -1.4517 -0.7177  0.6742
  251SOL    HW1 1537   4.260   2.884   1.111 -2.6334 -1.8721 -3.1975
  251SOL    HW2 1538   4.140   2.952   1.173 -0.1852  0.1190 -0.3565
  252SOL     OW 1539   3.456   0.428   3.291 -0.8661  0.6720 -1.1173
  252SOL    HW1 1540   3.396   0.503   3.292 -0.9902  0.5692  0.0994
  252SOL    HW2 1541   3.405   0.355   3.325 -0.3018  0.3757 -0.8880
  253SOL     OW 1542   4.704   3.891   2.650  0.3010  0.4041 -0.2706
  253SOL    HW1 1543   4.787   3.888   2.601  3.0291  1.6762  3.7295
  253SOL    HW2 1544   4.684   3.799   2.668 -0.5515 -0.0644 -3.1892
  254SOL     OW 1545   5.054   1.288   3.911 -0.1116  0.5351  0.4502
  254SOL    HW1 1546   5.012   1.277   3.997  1.3191 -0.8689  1.0303
  254SOL    HW2 1547   5.140   1.325   3.931  1.0470 -1.6651 -0.1066
  255SOL     OW 1548   2.734   5.250   1.927 -0.1381  0.0341  0.0014
  255SOL    HW1 1549   2.715   5.337   1.891 -2.2826  0.3302  1.6384
  255SOL    HW2 1550   2.685   5.248   2.010 -0.5386 -2.9239 -0.2211
  256SOL     OW 1551   4.227   3.948   2.337 -0.2455 -0.2616  0.0402
  256SOL    HW1 1552   4.132   3.933   2.330 -0.3325 -0.5264  1.5366
  256SOL    HW2 1553   4.258   3.945   2.246 -1.8282  0.9867 -0.6016
  257SOL     OW 1554   2.843   0.650   3.043  0.0165  0.1145  0.6064
  257SOL    HW1 1555   2.755   0.660   3.005  0.4156  0.9483 -0.1359
  257SOL    HW2 1556   2.895   0.611   2.973  1.3220  3.6937 -0.6639
  258SOL     OW 1557   3.964   3.409   1.999 -0.0136  0.0684  0.7018
  258SOL    HW1 1558   4.042   3.445   1.956  0.2866  0.2220  1.3610
  258SOL    HW2 1559   3.998   3.346   2.062 -0.3730  0.5733  1.4225
  259SOL     OW 1560   4.476   1.880   1.853  0.6976  0.3036  0.7688
  259SOL    HW1 1561   4.546   1.946   1.860  0.1183  0.9010  1.0303
  259SOL    HW2 1562   4.435   1.879   1.939  0.3337  0.0119  0.5962
  260SOL     OW 1563   4.044   4.203   2.211  0.2191 -0.7980 -0.2856
  260SOL    HW1 1564   4.053   4.246   2.296  3.2582 -0.1533 -0.8341
  260SOL    HW2 1565   3.951   4.212   2.189  0.2113  3.4916  0.7143
  261SOL     OW 1566   4.840   0.427   3.633  0.6434  0.5895 -0.2188
  261SOL    HW1 1567   4.814   0.334   3.637  1.1044  0.4911  1.5290
  261SOL    HW2 1568   4.835   0.449   3.540  1.7655 -1.5517 -0.8736
  262SOL     OW 1569   2.951   5.174   2.941  0.3079 -0.7579  0.0078
  262SOL    HW1 1570   3.040   5.142   2.922  0.6281 -1.1169  1.9708
  262SOL    HW2 1571   2.961   5.270   2.944  0.8339 -0.8394  1.1395
  263SOL     OW 1572   3.723   1.032   2.983 -0.2476  0.3488 -0.5750
  263SOL    HW1 1573   3.752   1.087   3.056  0.2561 -0.9048  0.2019
  263SOL    HW2 1574   3.680   0.958   3.025 -1.0575  0.2113 -1.6071
  264SOL     OW 1575   3.808   4.911   1.400 -0.5301  0.8676 -0.2326
  264SOL    HW1 1576   3.733   4.920   1.341 -0.2539  0.4674 -0.6517
  264SOL    HW2 1577   3.883   4.897   1.342 -0.6260 -2.3228  0.2068
  265SOL     OW 1578   4.734   0.761   2.618  0.2484  0.1563 -0.1333
  265SOL    HW1 1579   4.686   0.777   2.700 -0.0032  0.3321 -0.3137
  265SOL    HW2 1580   4.819   0.801   2.633  1.0063 -1.7219  0.8757
  266SOL     OW 1581   3.691   0.424   1.825  0.3659  0.1239  0.3640
  266SOL    HW1 1582   3.642   0.459   1.751  1.8383 -1.4383 -1.4718
  266SOL    HW2 1583   3.670   0.483   1.898 -1.5993  1.3959 -1.1209
  267SOL     OW 1584   4.336   5.242   2.685  0.0505 -0.1756  0.3229
  267SOL    HW1 1585   4.414   5.195   2.717  0.4712 -1.0161 -1.7903
  267SOL    HW2 1586   4.263   5.200   2.732  0.6723 -0.9570  0.6297
  268SOL     OW 1587   3.489   4.390   0.638  0.0028 -0.0514  0.5110
  268SOL    HW1 1588   3.458   4.452   0.572 -1.0787 -0.1520  0.9155
  268SOL    HW2 1589   3.470   4.304   0.601  1.4831 -0.1816 -0.0396
  269SOL     OW 1590   3.715   0.064   1.742 -0.1433 -0.2490 -0.1270
  269SOL    HW1 1591   3.770   0.059   1.663 -3.3667  1.2143 -2.7041
  269SOL    HW2 1592   3.771   0.031   1.812  2.9578 -1.6780 -2.9847
  270SOL     OW 1593   2.522   1.578   2.758 -0.4460 -0.5336 -0.3508
  270SOL    HW1 1594   2.451   1.521   2.785  0.2797 -2.1504 -1.6575
  270SOL    HW2 1595   2.494   1.613   2.673 -0.1088 -0.4228 -0.4211
  271SOL     OW 1596   4.244   3.178   1.696 -0.1358 -0.0743 -0.1360
  271SOL    HW1 1597   4.210   3.108   1.640 -0.2200 -1.3219  1.3914
  271SOL    HW2 1598   4.167   3.217   1.735  0.0071 -1.5380  1.7420
  272SOL     OW 1599   3.993   4.017   3.410 -0.0509  0.0332 -0.2387
  272SOL    HW1 1600   4.037   4.035   3.493  1.9535  0.2929 -1.3015
  272SOL    HW2 1601   3.987   4.102   3.367  1.6876 -0.4841 -1.6218
  273SOL     OW 1602   5.372   0.416   1.615  0.7114  0.0460 -0.1556
  273SOL    HW1 1603   5.332   0.344   1.566  0.9424  0.0139 -0.3000
  273SOL    HW2 1604   5.304   0.483   1.619 -0.6776 -1.3520  2.7213
  274SOL     OW 1605   4.532   4.194   1.156 -0.0321 -0.4480 -0.6533
  274SOL    HW1 1606   4.443   4.186   1.123 -0.7959  2.6282  0.2993
  274SOL    HW2 1607   4.539   4.129   1.225 -1.7732 -0.3402 -0.3397
  275SOL     OW 1608   4.024   4.405   2.745  0.2727  0.0415  0.3837
  275SOL    HW1 1609   4.034   4.397   2.840  3.4796  1.4864  0.2857
  275SOL    HW2 1610   3.962   4.336   2.722 -2.8594  1.4111  3.7721
  276SOL     OW 1611   5.272   0.972   1.801 -0.7740  0.3473 -0.2624
  276SOL    HW1 1612   5.256   0.957   1.707  2.4097 -0.1019 -0.8320
  276SOL    HW2 1613   5.294   1.064   1.808  0.4669  0.0693 -0.2490
  277SOL     OW 1614   0.047   3.594   3.197 -0.8876 -0.2369  0.2372
  277SOL    HW1 1615   0.101   3.643   3.259  0.5515 -0.4048 -0.8471
  277SOL    HW2 1616  -0.041   3.631   3.209 -0.9448 -1.0128  3.1362
  278SOL     OW 1617   3.605   2.625   1.009  0.4854  0.4664 -0.5754
  278SOL    HW1 1618   3.658   2.547   1.024 -0.4796  0.2130  1.9355
  278SOL    HW2 1619   3.552   2.604   0.932  1.0644 -0.8896 -0.6223
  279SOL     OW 1620   4.943   5.487   4.091  0.3750  0.2823  0.2326
  279SOL    HW1 1621   4.986   5.403   4.105 -2.4608 -1.3600 -0.1491
  279SOL    HW2 1622   4.859   5.465   4.051 -0.3807  3.3368 -0.1392
  280SOL     OW 1623   5.227   1.285   1.712  1.0117  0.6198 -0.2288
  280SOL    HW1 1624   5.291   1.302   1.643 -0.3649  0.3171 -1.6194
  280SOL    HW2 1625   5.142   1.304   1.673  0.0894 -0.7716  0.9584
  281SOL     OW 1626   4.197   4.529   3.709  0.2919 -0.1941 -0.2839
  281SOL    HW1 1627   4.223   4.572   3.627 -2.5127 -0.2022 -1.2984
  281SOL    HW2 1628   4.144   4.594   3.755  2.3855  0.0596  1.9537
  282SOL     OW 1629   3.372   0.882   2.515 -0.6418 -0.3694  0.0768
  282SOL    HW1 1630   3.329   0.833   2.585  1.5085 -1.1725  0.8942
  282SOL    HW2 1631   3.454   0.836   2.499 -0.1165  1.0013 -1.5522
  283SOL     OW 1632   4.868   3.393   2.082 -0.0436  0.5680 -0.0409
  283SOL    HW1 1633   4.802   3.428   2.023  0.2080 -0.2462 -0.8253
  283SOL    HW2 1634   4.851   3.299   2.084  1.4308  0.2629 -0.6925
  284SOL     OW 1635   3.085   4.370   0.682 -0.0556 -0.3250 -0.0164
  284SOL    HW1 1636   3.033   4.344   0.758  1.4774 -0.2282  1.1342
  284SOL    HW2 1637   3.132   4.291   0.656 -0.9035 -0.4686 -1.1709
  285SOL     OW 1638   4.044   5.476   5.585  0.1760 -0.4662 -0.1570
  285SOL    HW1 1639   3.975   5.435   5.637  0.7125 -1.7424 -0.4084
  285SOL    HW2 1640   4.009   5.478   5.496 -0.6643  1.5397  0.1635
  286SOL     OW 1641   4.149   1.080   2.891 -0.1719 -0.3548  0.7037
  286SOL    HW1 1642   4.185   1.048   2.973  0.6732  0.5330  0.6967
  286SOL    HW2 1643   4.093   1.153   2.916  1.3988  1.0121  0.3958
  287SOL     OW 1644   4.325   0.167   1.017 -0.6088  0.0237  0.8686
  287SOL    HW1 1645   4.390   0.180   1.085 -0.5874 -0.6147  0.9721
  287SOL    HW2 1646   4.265   0.101   1.052  0.1187 -1.2666 -0.2169
  288SOL     OW 1647   4.618   4.038   3.462 -0.0278 -0.0250  0.0946
  288SOL    HW1 1648   4.692   3.989   3.498 -0.1361  0.6156  1.2329
  288SOL    HW2 1649   4.652   4.127   3.448  0.0228 -0.2532 -1.4708
  289SOL     OW 1650   4.780   1.324   1.387 -0.0068 -0.5039 -0.6270
  289SOL    HW1 1651   4.713   1.274   1.434  0.6681 -1.6317 -0.8261
  289SOL    HW2 1652   4.736   1.353   1.307  0.1783 -2.7463 -1.6263
  290SOL     OW 1653   5.253   0.280   3.218  0.0508  0.6048  0.3679
  290SOL    HW1 1654   5.309   0.315   3.149  0.1898 -0.5581 -0.1310
  290SOL    HW2 1655   5.197   0.216   3.173  0.9175 -1.0163  1.4967
  291SOL     OW 1656   4.851   5.142   4.131  0.0095 -0.1129  0.5025
  291SOL    HW1 1657   4.800   5.099   4.062  1.7463 -3.0613  0.8994
  291SOL    HW2 1658   4.795   5.138   4.209 -0.0378 -1.3070  0.4157
  292SOL     OW 1659   4.918   3.872   2.489  0.4760 -0.5623 -0.4902
  292SOL    HW1 1660   4.891   3.845   2.402 -1.4265  0.5435 -0.2858
  292SOL    HW2 1661   4.967   3.953   2.476  2.5622 -1.7602 -0.7078
  293SOL     OW 1662   3.204   1.110   3.451 -0.0705  0.1891  0.2223
  293SOL    HW1 1663   3.175   1.075   3.367 -0.6292  0.3530  0.3439
  293SOL    HW2 1664   3.294   1.139   3.435 -0.6983  1.7182 -0.7643
  294SOL     OW 1665   3.740   4.038   1.544 -0.3568  0.8037 -0.1513
  294SOL    HW1 1666   3.802   4.106   1.571  0.7821  0.2692 -1.2894
  294SOL    HW2 1667   3.654   4.075   1.561  0.2569  1.4960  1.6787
  295SOL     OW 1668   3.478   0.165   3.069  0.2855  0.0398 -0.8269
  295SOL    HW1 1669   3.421   0.142   2.995 -0.0860  1.4947 -1.0103
  295SOL    HW2 1670   3.556   0.110   3.057  0.0557 -0.0423 -2.0740
  296SOL     OW 1671   4.760   4.098   2.193  0.1924  0.0532  0.1219
  296SOL    HW1 1672   4.713   4.053   2.264 -1.3355 -1.6356 -1.8527
  296SOL    HW2 1673   4.710   4.178   2.178  0.5296  0.4276  0.9133
  297SOL     OW 1674   4.201   1.174   2.139 -0.7223  0.1146  0.0871
  297SOL    HW1 1675   4.210   1.079   2.131 -0.1973  0.2188 -0.6946
  297SOL    HW2 1676   4.261   1.210   2.073 -1.7814  0.9709 -0.4518
  298SOL     OW 1677   3.333   0.194   3.313 -0.5627 -0.1939  0.1081
  298SOL    HW1 1678   3.239   0.198   3.295 -0.1858 -0.7639 -2.4227
  298SOL    HW2 1679   3.370   0.155   3.234  1.6817 -1.2058  1.5673
  299SOL     OW 1680   3.213   5.610   1.028  0.3336 -0.3593 -0.2425
  299SOL    HW1 1681   3.226   5.607   0.933  1.0266 -0.8129 -0.1428
  299SOL    HW2 1682   3.228   5.520   1.057  0.0267 -0.2453  0.2854
  300SOL     OW 1683   3.888   1.061   1.415  0.1409  0.5130  0.0536
  300SOL    HW1 1684   3.887   1.153   1.388  1.8621  0.5852  0.1490
  300SOL    HW2 1685   3.905   1.064   1.509  1.5387  0.0874 -0.1685
  301SOL     OW 1686   2.947   5.735   1.130  0.5013  0.5453 -0.4012
  301SOL    HW1 1687   3.024   5.707   1.080  0.7374 -1.3599  0.9348
  301SOL    HW2 1688   2.914   5.655   1.170 -1.2654  1.5863  0.3270
  302SOL     OW 1689   4.104   3.129   1.183 -0.3095 -0.2636  0.7413
  302SOL    HW1 1690   4.029   3.106   1.128 -0.0709 -1.1782  0.7736
  302SOL    HW2 1691   4.082   3.092   1.269 -0.2028  0.2124  0.9731
  303SOL     OW 1692   4.399   0.573   2.085  0.3680  0.3594 -0.6123
  303SOL    HW1 1693   4.443   0.490   2.105 -1.6870 -1.0430 -1.4836
  303SOL    HW2 1694   4.399   0.621   2.167  0.1237 -1.2809  0.4043
  304SOL     OW 1695   2.929   4.498   2.207  0.2044 -0.7649 -0.0905
  304SOL    HW1 1696   3.004   4.482   2.149  1.9063 -0.4708  1.9247
  304SOL    HW2 1697   2.877   4.564   2.161  0.8440 -1.3751 -1.7902
  305SOL     OW 1698   2.992   2.870   1.936 -0.3746 -0.5098 -0.3138
  305SOL    HW1 1699   2.968   2.930   1.865  0.2248  0.3550  0.1867
  305SOL    HW2 1700   2.922   2.881   2.001 -2.3014 -3.1578 -1.7615
  306SOL     OW 1701   3.197   3.984   1.913  0.2853  0.1283 -0.3457
  306SOL    HW1 1702   3.276   3.990   1.967 -0.3337  1.6892  0.4664
  306SOL    HW2 1703   3.134   4.041   1.957 -0.7466  0.2573 -1.9077
  307SOL     OW 1704   3.973   4.155   2.525 -0.3118 -0.9259  0.0690
  307SOL    HW1 1705   3.921   4.236   2.525 -1.0974 -1.4010  1.2343
  307SOL    HW2 1706   3.943   4.108   2.602  1.1176 -1.7120  0.1768
  308SOL     OW 1707   2.966   0.048   1.842  0.0877 -0.0842 -0.3470
  308SOL    HW1 1708   2.999   0.056   1.752 -0.3368  0.7163 -0.4337
  308SOL    HW2 1709   3.045   0.053   1.896  0.3798 -0.8769 -0.6831
  309SOL     OW 1710   4.720   5.199   1.157 -0.2080 -0.3303 -0.0978
  309SOL    HW1 1711   4.724   5.192   1.253 -1.2600 -0.1257 -0.0333
  309SOL    HW2 1712   4.799   5.248   1.134 -0.6062  0.7794  0.7938
  310SOL     OW 1713   5.136   3.906   2.903 -0.4365 -0.3061  0.0418
  310SOL    HW1 1714   5.136   3.817   2.938  0.6259  0.1310  1.2661
  310SOL    HW2 1715   5.146   3.962   2.981 -0.5106  0.8504 -0.7533
  311SOL     OW 1716   3.330   5.017   1.184 -0.2768 -0.6043  0.1435
  311SOL    HW1 1717   3.312   5.043   1.275 -2.2897  0.7561 -0.5640
  311SOL    HW2 1718   3.425   5.024   1.176 -0.2580  2.1665  1.3775
  312SOL     OW 1719   3.587   2.965   2.283  0.6013  0.3574  0.2374
  312SOL    HW1 1720   3.518   3.032   2.283  0.4092  0.1642  0.0650
  312SOL    HW2 1721   3.560   2.904   2.214  0.2453 -0.4386  1.0712
  313SOL     OW 1722   4.139   0.068   3.682 -0.2064  0.3551  0.2293
  313SOL    HW1 1723   4.219   0.067   3.630 -1.1185  1.2887 -1.2502
  313SOL    HW2 1724   4.117   0.161   3.690 -0.2688  0.2279  2.0518
  314SOL     OW 1725   2.980   5.184   2.586  0.0389 -0.0219  0.6277
  314SOL    HW1 1726   3.044   5.122   2.549  1.9773  0.1291  3.4360
  314SOL    HW2 1727   2.952   5.144   2.668 -1.5328  1.1452  0.7010
  315SOL     OW 1728   4.926   3.648   1.505  0.9790 -0.5185  0.7601
  315SOL    HW1 1729   4.897   3.694   1.426  0.9803 -3.2483 -0.9662
  315SOL    HW2 1730   5.016   3.677   1.518  1.3077 -0.7162 -0.8541
  316SOL     OW 1731   3.552   0.789   2.781 -0.2365  0.3808  0.2693
  316SOL    HW1 1732   3.580   0.881   2.783  1.2172 -0.0292  0.0157
  316SOL    HW2 1733   3.469   0.788   2.829 -0.6538  1.9390 -0.3576
  317SOL     OW 1734   3.911   4.647   1.245  0.2161 -0.4562  0.1517
  317SOL    HW1 1735   3.816   4.653   1.238  0.3106  1.2507 -0.1246
  317SOL    HW2 1736   3.938   4.733   1.276  1.6074 -1.2202  1.1994
  318SOL     OW 1737   5.320   0.949   2.943 -0.4662 -0.1918  0.3097
  318SOL    HW1 1738   5.242   0.916   2.988 -1.1737  0.7810 -0.1503
  318SOL    HW2 1739   5.391   0.938   3.006 -1.5186  1.6099  1.9114
  319SOL     OW 1740   4.865   4.623   3.679 -0.7922  0.7419 -0.2528
  319SOL    HW1 1741   4.873   4.697   3.739 -3.7554  0.6116  0.4523
  319SOL    HW2 1742   4.771   4.611   3.668 -0.4141 -0.1251 -3.9007
  320SOL     OW 1743   5.281   4.482   1.736  0.5732  0.1860 -0.3298
  320SOL    HW1 1744   5.242   4.407   1.691  0.3431 -0.5926  1.1130
  320SOL    HW2 1745   5.233   4.557   1.702 -0.7237 -0.5415 -0.2039
  321SOL     OW 1746   5.397   5.283   2.206 -0.3787 -0.4518 -0.2156
  321SOL    HW1 1747   5.344   5.318   2.278  1.5423  1.7949  0.2358
  321SOL    HW2 1748   5.344   5.213   2.169 -2.8917  0.5262  1.2698
  322SOL     OW 1749   0.027   0.224   4.736  0.3926  0.1353 -0.3375
  322SOL    HW1 1750   0.086   0.153   4.711  1.7358  0.9352  0.4113
  322SOL    HW2 1751   0.003   0.265   4.652 -0.4653 -1.2281 -0.7761
  323SOL     OW 1752   3.157   4.632   0.587 -0.0231  0.6098  0.2016
  323SOL    HW1 1753   3.222   4.659   0.652  0.2927  1.3397 -0.3954
  323SOL    HW2 1754   3.135   4.542   0.611  0.4895  0.6767  0.9879
  324SOL     OW 1755   3.958   4.989   3.449  0.6110 -0.1007  0.3184
  324SOL    HW1 1756   3.882   4.955   3.401 -0.0898  0.4685  1.0163
  324SOL    HW2 1757   4.027   4.925   3.432 -0.3601 -1.2653  0.6521
  325SOL     OW 1758   4.014   3.723   2.585  0.0135 -0.2269 -0.1431
  325SOL    HW1 1759   3.947   3.666   2.623 -1.2280  1.0654 -0.3167
  325SOL    HW2 1760   4.032   3.789   2.652  1.2224 -0.6209 -0.0523
  326SOL     OW 1761   4.470   3.965   2.974  0.1220  0.8509 -0.4067
  326SOL    HW1 1762   4.379   3.955   3.001  0.1511  0.9457 -0.2774
  326SOL    HW2 1763   4.474   4.052   2.935  0.5402  1.5401  1.1079
  327SOL     OW 1764   3.665   4.131   2.136  0.7107  0.4735  0.1545
  327SOL    HW1 1765   3.672   4.038   2.112 -0.9111  0.1605  0.7326
  327SOL    HW2 1766   3.578   4.138   2.175  1.2092  2.0448  1.0428
  328SOL     OW 1767   4.119   4.464   3.020 -0.2042 -0.4302  0.6249
  328SOL    HW1 1768   4.046   4.448   3.081 -2.1275 -1.3824 -1.7768
  328SOL    HW2 1769   4.102   4.551   2.986  0.4274 -0.2155  0.8515
  329SOL     OW 1770   2.616   5.556   1.791  0.4942 -0.6450 -0.2837
  329SOL    HW1 1771   2.568   5.521   1.716 -0.8246 -0.4302  0.4399
  329SOL    HW2 1772   2.626   5.649   1.772 -0.0341 -0.5478 -0.0993
  330SOL     OW 1773   4.654   0.971   2.127  1.0806 -0.1001 -0.4147
  330SOL    HW1 1774   4.601   1.049   2.108  0.1469 -1.0104 -1.8035
  330SOL    HW2 1775   4.730   0.979   2.070  1.3310  0.1322 -0.0477
  331SOL     OW 1776   5.569   5.649   3.765  0.0700  0.5904 -0.9421
  331SOL    HW1 1777   5.564   5.562   3.727 -1.4007  1.0944 -2.0375
  331SOL    HW2 1778   5.567   5.635   3.860 -0.8669 -0.5563 -1.1108
  332SOL     OW 1779   2.961   4.177   2.062  0.0652 -0.1588 -0.8400
  332SOL    HW1 1780   2.913   4.160   1.981  0.5433 -0.2688 -1.1080
  332SOL    HW2 1781   2.904   4.234   2.113 -0.5588 -0.6969 -0.9372
  333SOL     OW 1782   3.931   0.142   1.514 -0.1536 -0.3288 -0.4450
  333SOL    HW1 1783   3.907   0.051   1.532  1.5525 -0.7296  0.0661
  333SOL    HW2 1784   3.932   0.149   1.419 -1.0251 -0.6295 -0.4797
  334SOL     OW 1785   3.231   4.363   1.504  0.0482  0.5482 -0.5810
  334SOL    HW1 1786   3.262   4.355   1.414 -1.8439  2.0735 -1.4384
  334SOL    HW2 1787   3.199   4.275   1.526  2.2954 -0.3396 -0.6453
  335SOL     OW 1788   4.664   1.200   0.966 -0.0217  0.3098 -0.3797
  335SOL    HW1 1789   4.578   1.159   0.976  1.1475 -2.5464 -1.2131
  335SOL    HW2 1790   4.716   1.165   1.038  1.1115  0.0820 -1.2815
  336SOL     OW 1791   4.140   5.707   0.884  0.2151  0.1574 -0.3925
  336SOL    HW1 1792   4.164   5.624   0.926 -2.1176 -0.3043  0.1857
  336SOL    HW2 1793   4.223   5.746   0.857  1.3278 -3.1258 -2.2106
  337SOL     OW 1794   4.468   0.217   3.409  0.4236 -0.5962  0.3134
  337SOL    HW1 1795   4.485   0.124   3.419  1.1523 -0.5507 -0.4001
  337SOL    HW2 1796   4.490   0.236   3.318  0.7619  0.3620  0.5798
  338SOL     OW 1797   4.041   3.980   1.462  0.2465 -0.6740 -0.0952
  338SOL    HW1 1798   4.082   3.996   1.547  0.0337 -1.8457  0.2465
  338SOL    HW2 1799   4.076   3.895   1.434  0.6501 -0.1058 -1.3945
  339SOL     OW 1800   2.760   0.297   2.465 -0.3106 -0.1286  0.1282
  339SOL    HW1 1801   2.665   0.305   2.456 -0.4023  0.0938  1.1766
  339SOL    HW2 1802   2.777   0.203   2.461 -0.3442 -0.1020 -1.9641
  340SOL     OW 1803   3.798   1.498   3.011  0.4045 -0.4522  0.8172
  340SOL    HW1 1804   3.893   1.489   2.998  0.7936  1.6505  1.7188
  340SOL    HW2 1805   3.787   1.590   3.036 -2.1457  0.0277 -1.5900
  341SOL     OW 1806   3.580   3.552   1.718 -0.4109 -0.6955 -0.2414
  341SOL    HW1 1807   3.641   3.557   1.791 -0.9256  2.3829  0.1108
  341SOL    HW2 1808   3.494   3.543   1.758 -1.1042  4.1986  0.0198
  342SOL     OW 1809   4.144   0.948   1.281  0.0466 -0.6093 -0.4775
  342SOL    HW1 1810   4.115   0.968   1.370  1.7304 -0.5676  0.0917
  342SOL    HW2 1811   4.063   0.950   1.229 -1.2610 -2.5082  1.3307
  343SOL     OW 1812   4.455   5.681   3.416  0.3572  0.2294 -0.1234
  343SOL    HW1 1813   4.380   5.638   3.456  0.4427  0.5021  0.3460
  343SOL    HW2 1814   4.531   5.644   3.462  0.5043 -0.0006 -0.5517
  344SOL     OW 1815   5.130   0.467   2.159  0.4493 -1.0231  0.7299
  344SOL    HW1 1816   5.040   0.485   2.132  0.1828 -0.2513  2.0774
  344SOL    HW2 1817   5.151   0.383   2.118  0.4943  0.5157 -2.8588
  345SOL     OW 1818   3.563   5.531   1.658  0.6721  0.4013 -0.2869
  345SOL    HW1 1819   3.556   5.615   1.612  2.1460  0.7906  0.1307
  345SOL    HW2 1820   3.597   5.471   1.592 -0.7477  0.0143 -0.6913
  346SOL     OW 1821   3.759   1.961   1.195  0.0741 -0.0005 -0.2088
  346SOL    HW1 1822   3.807   2.041   1.216  1.0262  0.7698 -4.4389
  346SOL    HW2 1823   3.729   1.973   1.105 -0.9023 -3.8671 -0.5901
  347SOL     OW 1824   4.842   4.342   2.707 -0.6083 -0.2915  0.2950
  347SOL    HW1 1825   4.910   4.337   2.773 -0.6210  0.2969  0.3564
  347SOL    HW2 1826   4.862   4.270   2.647  0.8235  0.6364 -0.3956
  348SOL     OW 1827   4.715   1.170   3.919  1.0028  0.1754 -0.2502
  348SOL    HW1 1828   4.739   1.150   3.829  0.2849 -1.4812 -0.1058
  348SOL    HW2 1829   4.733   1.090   3.968  0.1945  0.6241  0.8381
  349SOL     OW 1830   4.304   0.041   4.065  0.2249 -0.1971 -0.3678
  349SOL    HW1 1831   4.322   0.128   4.028  0.9424 -0.0879  0.2111
  349SOL    HW2 1832   4.257   0.058   4.146 -0.8131 -0.4122 -0.9152
  350SOL     OW 1833   3.847   2.978   1.400 -0.4205 -0.1682 -0.4888
  350SOL    HW1 1834   3.890   2.952   1.482  3.3748 -2.2089 -2.8500
  350SOL    HW2 1835   3.754   2.969   1.419  0.2563 -1.0030  3.4436
  351SOL     OW 1836   5.185   0.355   2.850 -0.0280 -0.0933  0.2455
  351SOL    HW1 1837   5.154   0.321   2.767 -0.7600  1.9383 -0.3874
  351SOL    HW2 1838   5.155   0.292   2.915 -1.7035 -0.4096 -0.7926
  352SOL     OW 1839   3.436   1.091   1.687  0.5112  0.8101 -0.4583
  352SOL    HW1 1840   3.476   1.168   1.726 -1.2727  1.6697 -0.2111
  352SOL    HW2 1841   3.361   1.125   1.638  1.1561 -0.5107 -2.4911
  353SOL     OW 1842   3.072   3.770   1.820 -0.1250  0.1479  0.3185
  353SOL    HW1 1843   3.126   3.847   1.838  1.5255 -1.2254  1.6048
  353SOL    HW2 1844   3.132   3.708   1.778 -1.3465 -0.5608 -0.4334
  354SOL     OW 1845   4.179   0.987   3.536  0.2502 -1.4065  0.8360
  354SOL    HW1 1846   4.267   1.023   3.533 -0.3226  0.0083  0.0336
  354SOL    HW2 1847   4.189   0.895   3.512  1.4369 -1.1195  0.1802
  355SOL     OW 1848   3.296   3.829   2.226  0.3114  0.4270 -0.5696
  355SOL    HW1 1849   3.209   3.862   2.206 -1.5867 -3.3927  0.5439
  355SOL    HW2 1850   3.312   3.854   2.317 -0.5767 -0.6001 -0.1159
  356SOL     OW 1851   3.650   3.643   0.777 -0.4265  0.3769  0.1582
  356SOL    HW1 1852   3.562   3.672   0.756 -1.0086 -1.9730 -0.9433
  356SOL    HW2 1853   3.704   3.675   0.704 -0.2918  1.8486  0.8536
  357SOL     OW 1854   4.522   5.552   1.005  0.0115  0.5956  0.6927
  357SOL    HW1 1855   4.474   5.600   1.073 -0.1021 -0.3606  1.3124
  357SOL    HW2 1856   4.476   5.469   0.999  1.0630  0.0100  0.6653
  358SOL     OW 1857   4.843   0.730   2.095  0.0464 -0.1522  0.7142
  358SOL    HW1 1858   4.817   0.657   2.151  0.4190 -0.3648  0.6142
  358SOL    HW2 1859   4.938   0.738   2.109  0.1154 -0.1011  0.2388
  359SOL     OW 1860   2.866   2.959   2.256  0.1311 -0.0566 -0.1404
  359SOL    HW1 1861   2.810   3.014   2.311  0.2836 -1.2796  1.3138
  359SOL    HW2 1862   2.839   2.870   2.277  0.9153 -0.5892 -1.3094
  360SOL     OW 1863   3.456   4.995   3.110 -0.5610  0.2874 -1.0389
  360SOL    HW1 1864   3.466   4.904   3.081 -0.6792  0.0041 -0.2159
  360SOL    HW2 1865   3.363   5.003   3.131 -0.5769  0.6450 -1.2476
  361SOL     OW 1866   3.130   0.392   3.118  0.3668 -0.4853 -0.3134
  361SOL    HW1 1867   3.073   0.334   3.169 -1.1332  0.7648 -0.4859
  361SOL    HW2 1868   3.140   0.470   3.173 -0.2395  0.3623 -1.3605
  362SOL     OW 1869   3.986   5.049   3.144 -0.6986 -1.1948  0.5804
  362SOL    HW1 1870   3.901   5.056   3.101 -1.3422 -0.1959  1.9275
  362SOL    HW2 1871   3.981   5.112   3.216  1.4701 -0.5462  0.2399
  363SOL     OW 1872   4.243   4.520   3.430  0.4608  0.1793 -0.3740
  363SOL    HW1 1873   4.309   4.468   3.474 -0.5654 -1.7007 -0.9619
  363SOL    HW2 1874   4.267   4.517   3.338 -0.2801 -0.3156 -0.5608
  364SOL     OW 1875   5.374   0.142   2.058  0.5352  0.3401  0.1311
  364SOL    HW1 1876   5.377   0.097   1.973  0.6911 -1.8030  1.2092
  364SOL    HW2 1877   5.465   0.169   2.074  1.1415 -1.9758  0.9433
  365SOL     OW 1878   3.287   1.345   3.121  0.2395  1.0838  0.0892
  365SOL    HW1 1879   3.370   1.364   3.077 -0.3604  2.1224 -0.6680
  365SOL    HW2 1880   3.269   1.424   3.172  0.4810  0.2402  1.5210
  366SOL     OW 1881   4.720   3.596   1.724  0.6820 -0.2613  0.1630
  366SOL    HW1 1882   4.783   3.573   1.655  0.7083 -0.3618  0.2198
  366SOL    HW2 1883   4.752   3.679   1.759 -0.1433  0.5450 -0.9329
  367SOL     OW 1884   4.424   4.345   3.529 -0.0188  0.2067 -0.1463
  367SOL    HW1 1885   4.444   4.333   3.622 -0.8468 -1.3872 -0.1226
  367SOL    HW2 1886   4.379   4.264   3.505  0.7324  0.3257 -2.0950
  368SOL     OW 1887   2.043   1.658   1.398 -0.6603 -0.3044  0.3127
  368SOL    HW1 1888   2.105   1.725   1.425  0.7802 -1.5183  0.1193
  368SOL    HW2 1889   1.966   1.708   1.369  1.5325  1.5671 -3.0860
  369SOL     OW 1890   4.803   1.274   1.963  0.6628  0.0539  0.1353
  369SOL    HW1 1891   4.768   1.211   1.899 -0.1626  0.4171  0.2181
  369SOL    HW2 1892   4.826   1.220   2.039  1.9224 -0.4254 -0.5502
  370SOL     OW 1893   3.988   0.890   1.685  0.2226 -0.4816  0.3408
  370SOL    HW1 1894   3.901   0.854   1.702  0.5978 -1.8313 -0.4779
  370SOL    HW2 1895   3.988   0.975   1.731 -1.3724 -0.6293  0.6764
  371SOL     OW 1896   3.042   5.379   1.692  0.4805 -0.2562 -0.1875
  371SOL    HW1 1897   3.074   5.363   1.603 -1.2560  0.9992 -1.0935
  371SOL    HW2 1898   3.120   5.408   1.740  1.0726  1.0799 -1.8459
  372SOL     OW 1899   3.700   0.937   3.333 -0.2046  0.0659 -0.4730
  372SOL    HW1 1900   3.761   0.935   3.407  1.9583  2.0947 -2.0420
  372SOL    HW2 1901   3.730   0.868   3.275 -1.1803 -0.7535 -0.0391
  373SOL     OW 1902   5.592   5.680   1.968 -1.1587  0.0221 -0.1800
  373SOL    HW1 1903   5.521   5.636   1.922 -1.1512  0.4998 -0.6612
  373SOL    HW2 1904   5.670   5.661   1.916 -0.3884 -2.7710  1.7772
  374SOL     OW 1905   4.408   5.400   5.709 -0.0767  1.2620  0.5092
  374SOL    HW1 1906   4.453   5.399   5.624  0.2529 -2.4091  0.5558
  374SOL    HW2 1907   4.315   5.407   5.687  0.0689  1.4046 -0.0736
  375SOL     OW 1908   5.077   4.557   4.462  0.3519  0.2592 -0.2008
  375SOL    HW1 1909   5.023   4.552   4.383  2.3229 -1.8769 -1.5554
  375SOL    HW2 1910   5.075   4.469   4.499  2.6022  0.1568 -0.1741
  376SOL     OW 1911   3.910   0.642   3.421 -0.2821  0.4502  0.1845
  376SOL    HW1 1912   3.870   0.689   3.494  2.8496 -0.3048  2.6105
  376SOL    HW2 1913   3.980   0.700   3.390  1.4516 -1.0615  1.0226
  377SOL     OW 1914   4.252   0.452   0.987  0.1532  0.3220 -0.3738
  377SOL    HW1 1915   4.264   0.471   1.079  0.3998  1.9747 -0.7177
  377SOL    HW2 1916   4.264   0.357   0.980 -4.1648 -0.6833  1.9643
  378SOL     OW 1917   2.941   0.444   1.755  0.1490 -0.3995  0.5274
  378SOL    HW1 1918   2.863   0.496   1.736 -0.0308  0.3572  3.0078
  378SOL    HW2 1919   2.923   0.359   1.715 -0.9874  0.4020 -0.7677
  379SOL     OW 1920   5.251   1.194   2.456 -0.4496  0.3661 -0.1109
  379SOL    HW1 1921   5.288   1.221   2.372 -1.4217 -0.5251 -0.8641
  379SOL    HW2 1922   5.189   1.264   2.478 -0.7146  0.2625 -0.5063
  380SOL     OW 1923   4.554   1.080   2.948 -0.9342 -0.3998  0.1749
  380SOL    HW1 1924   4.499   1.062   2.872  2.4049 -0.9675 -2.2941
  380SOL    HW2 1925   4.623   1.137   2.916  0.7542 -0.8258  2.7439
  381SOL     OW 1926   3.957   1.263   2.484  0.4664 -0.3372 -0.1105
  381SOL    HW1 1927   3.996   1.184   2.520 -2.0108 -1.3355  0.6330
  381SOL    HW2 1928   3.898   1.294   2.554 -0.2800  0.8646 -1.2323
  382SOL     OW 1929   5.351   5.146   3.259  0.0368 -0.1575  0.8290
  382SOL    HW1 1930   5.311   5.160   3.173  0.0796 -3.1829  0.2072
  382SOL    HW2 1931   5.444   5.164   3.246 -0.2839  1.8189  0.9498
  383SOL     OW 1932   3.368   1.626   2.583  0.5354 -0.2025  0.0158
  383SOL    HW1 1933   3.336   1.542   2.552 -4.0490  1.4292 -0.3581
  383SOL    HW2 1934   3.369   1.617   2.679 -1.4502 -0.3111  0.0667
  384SOL     OW 1935   5.033   0.283   3.800  0.0852 -0.5610 -0.0460
  384SOL    HW1 1936   4.995   0.351   3.744 -0.5712 -0.4496  0.5238
  384SOL    HW2 1937   5.116   0.321   3.830  1.1711 -1.2055 -2.1043
  385SOL     OW 1938   3.212   5.590   2.303  0.2945  0.1405 -0.9047
  385SOL    HW1 1939   3.161   5.509   2.305 -2.4438  1.7331 -1.4532
  385SOL    HW2 1940   3.178   5.641   2.377  0.3834  1.6507 -1.8707
  386SOL     OW 1941   4.497   5.304   0.619  0.6842  0.6994 -0.1340
  386SOL    HW1 1942   4.464   5.329   0.532  2.4039 -0.6499 -1.2588
  386SOL    HW2 1943   4.444   5.354   0.680 -3.0630 -0.9606 -1.7344
  387SOL     OW 1944   2.799   5.598   2.259  0.3802  0.1113  0.0488
  387SOL    HW1 1945   2.770   5.620   2.170 -2.1309 -1.1057  0.4992
  387SOL    HW2 1946   2.804   5.503   2.260 -1.3107 -0.0048  1.6524
  388SOL     OW 1947   3.681   2.625   1.558  0.1838  0.3186  0.4253
  388SOL    HW1 1948   3.740   2.669   1.620 -0.0794  1.1304  0.1231
  388SOL    HW2 1949   3.609   2.592   1.612  1.2276 -1.2857  0.8914
  389SOL     OW 1950   5.405   5.505   1.877 -0.3023 -0.2280 -0.3068
  389SOL    HW1 1951   5.423   5.420   1.837 -0.9996 -0.7316  0.4267
  389SOL    HW2 1952   5.359   5.484   1.958 -1.4572  0.8972 -0.6512
  390SOL     OW 1953   4.282   0.826   1.067  0.4953  0.1939  0.1155
  390SOL    HW1 1954   4.259   0.875   1.147  0.5375  1.0693 -0.3963
  390SOL    HW2 1955   4.203   0.777   1.045  0.2972  0.3976  0.3722
  391SOL     OW 1956   4.993   0.787   2.660 -0.1141  0.0738 -0.5329
  391SOL    HW1 1957   5.034   0.724   2.601 -1.3433  1.3984 -2.9577
  391SOL    HW2 1958   5.021   0.760   2.747  2.8852 -1.2272 -1.7512
  392SOL     OW 1959   3.991   1.698   3.161  1.0138  0.1979  0.5417
  392SOL    HW1 1960   4.067   1.755   3.150  0.1376  1.3954  0.5689
  392SOL    HW2 1961   4.024   1.610   3.139  2.3544  0.7121  0.4029
  393SOL     OW 1962   5.181   4.299   2.688  0.0013 -0.1133  0.0233
  393SOL    HW1 1963   5.245   4.362   2.656 -0.2722 -0.2471 -0.8119
  393SOL    HW2 1964   5.157   4.331   2.775  1.5495 -0.3266  0.5697
  394SOL     OW 1965   4.051   0.554   0.573 -0.9698  0.6563 -0.2766
  394SOL    HW1 1966   4.073   0.474   0.526 -3.2267  1.4550 -2.9841
  394SOL    HW2 1967   4.069   0.625   0.511  0.6735  2.3160  1.9269
  395SOL     OW 1968   4.479   1.141   1.251 -0.1844  0.4736 -0.6418
  395SOL    HW1 1969   4.515   1.171   1.334  0.3147 -2.5434  0.3366
  395SOL    HW2 1970   4.388   1.170   1.252 -0.2420  0.3165  1.0737
  396SOL     OW 1971   3.227   0.036   2.100  0.4784  0.2966  0.9873
  396SOL    HW1 1972   3.225  -0.036   2.164  0.4505 -0.2747  0.3543
  396SOL    HW2 1973   3.217   0.115   2.153 -1.2226 -0.2461  1.5617
  397SOL     OW 1974   3.783   3.902   2.026  0.2009 -0.5670 -0.7205
  397SOL    HW1 1975   3.813   3.811   2.029 -0.7370 -0.9346 -1.7542
  397SOL    HW2 1976   3.863   3.954   2.034  0.5428 -1.3090  4.1520
  398SOL     OW 1977   4.981   5.083   1.518 -0.1875 -0.1495  0.7522
  398SOL    HW1 1978   4.994   4.988   1.513  0.2192 -0.0906  0.6626
  398SOL    HW2 1979   4.909   5.094   1.580 -0.5572 -0.5391  0.3957
  399SOL     OW 1980   3.502   4.125   2.343  0.5620  0.9288  0.5217
  399SOL    HW1 1981   3.423   4.155   2.298  1.0922  0.7434 -0.5666
  399SOL    HW2 1982   3.492   4.157   2.433 -0.1291  2.0360  0.0731
  400SOL     OW 1983   4.691   2.191   2.091 -0.2620  0.7474  0.1118
  400SOL    HW1 1984   4.675   2.263   2.151 -0.0959  0.3184  0.6865
  400SOL    HW2 1985   4.769   2.148   2.125  0.5156  1.1672 -1.0742
  401SOL     OW 1986   3.162   1.437   2.278 -0.4439  0.0270  0.6367
  401SOL    HW1 1987   3.100   1.372   2.310 -0.6121 -0.3548 -0.4000
  401SOL    HW2 1988   3.244   1.417   2.323 -0.7493 -0.2755  1.0622
  402SOL     OW 1989   4.978   0.625   4.115 -0.7192  0.2178 -0.4772
  402SOL    HW1 1990   4.907   0.598   4.057  0.3926 -2.4878 -0.6996
  402SOL    HW2 1991   4.990   0.552   4.175  3.6061 -0.7782 -2.1655
  403SOL     OW 1992   2.952   5.457   3.236  0.0403  0.3255 -0.2956
  403SOL    HW1 1993   2.917   5.368   3.234  3.0949 -1.0022 -0.9400
  403SOL    HW2 1994   2.947   5.487   3.146 -4.3968  2.4710  0.4099
  404SOL     OW 1995   4.775   5.092   3.491 -0.5878 -0.1749 -0.2102
  404SOL    HW1 1996   4.844   5.060   3.549 -1.7971  0.5212  1.7047
  404SOL    HW2 1997   4.738   5.168   3.536 -1.7571  0.2584 -1.7894
  405SOL     OW 1998   4.992   4.500   2.217 -0.0024 -0.3790  0.3181
  405SOL    HW1 1999   4.907   4.459   2.236 -0.7142  0.7664 -0.2344
  405SOL    HW2 2000   5.017   4.541   2.300  0.7736 -1.9582  0.9081
  406SOL     OW 2001   5.342   4.575   2.675  0.4357 -0.1926  0.3726
  406SOL    HW1 2002   5.432   4.572   2.707  1.0308  0.6063 -1.1395
  406SOL    HW2 2003   5.301   4.646   2.724  1.0240  0.3287  0.1201
  407SOL     OW 2004   2.887   4.845   1.827  0.2678 -0.8631 -0.4502
  407SOL    HW1 2005   2.976   4.827   1.795  0.0163 -0.7598 -1.2271
  407SOL    HW2 2006   2.830   4.818   1.755 -0.1754  2.1560 -1.3832
  408SOL     OW 2007   4.291   5.010   0.857  0.0637  0.5310  1.3161
  408SOL    HW1 2008   4.384   5.007   0.882 -0.1720  0.8627  2.3096
  408SOL    HW2 2009   4.279   4.937   0.797  1.2291  1.1918  0.2239
  409SOL     OW 2010   5.222   5.042   2.197  1.1198 -0.4430  0.1010
  409SOL    HW1 2011   5.270   4.989   2.133  0.1185 -2.7938  1.1818
  409SOL    HW2 2012   5.141   5.065   2.153  1.6687  0.4896 -0.4664
  410SOL     OW 2013   3.171   5.547   1.398 -0.6813  0.4885 -0.2721
  410SOL    HW1 2014   3.199   5.625   1.352  0.7536 -1.2240 -2.4901
  410SOL    HW2 2015   3.231   5.478   1.369 -2.9906 -1.8733  0.1032
  411SOL     OW 2016   4.534   3.749   2.001 -0.5312  0.8660 -0.0950
  411SOL    HW1 2017   4.584   3.790   2.072 -0.6622 -1.4082  1.3997
  411SOL    HW2 2018   4.444   3.777   2.015 -0.4429  0.9972  0.2021
  412SOL     OW 2019   4.467   5.337   0.262 -0.7621  0.4114 -0.2080
  412SOL    HW1 2020   4.455   5.289   0.179  2.2393 -0.7971 -0.0771
  412SOL    HW2 2021   4.477   5.428   0.236  2.9230 -0.2264 -1.6926
  413SOL     OW 2022   4.389   1.281   2.730 -0.5898 -0.0721  0.4327
  413SOL    HW1 2023   4.351   1.262   2.645 -1.1991  2.1030  0.1649
  413SOL    HW2 2024   4.318   1.266   2.793 -0.5154 -0.4337  0.4337
  414SOL     OW 2025   3.732   1.038   2.696 -0.3641  0.6605 -1.5311
  414SOL    HW1 2026   3.756   1.024   2.604  1.0613 -0.1912 -1.0658
  414SOL    HW2 2027   3.762   1.127   2.715 -0.0465  0.5960 -1.7204
  415SOL     OW 2028   3.700   4.005   1.012 -0.4763 -0.2323 -0.6439
  415SOL    HW1 2029   3.684   4.031   1.103 -0.7556  0.4017 -0.8712
  415SOL    HW2 2030   3.705   3.910   1.015  1.8256 -0.1480  0.4162
  416SOL     OW 2031   2.866   5.569   1.956  0.1568  0.0170 -0.0115
  416SOL    HW1 2032   2.884   5.659   1.929  1.1840 -0.1749  0.0017
  416SOL    HW2 2033   2.794   5.542   1.899 -0.1957  0.8546  0.0135
  417SOL     OW 2034   3.931   0.873   2.893  1.1886 -0.4242  0.5886
  417SOL    HW1 2035   4.000   0.932   2.921  0.1349  0.3910  1.5725
  417SOL    HW2 2036   3.851   0.926   2.896  0.6729 -0.9917 -1.6956
  418SOL     OW 2037   4.528   0.640   3.240 -0.0272 -0.1932  0.1577
  418SOL    HW1 2038   4.559   0.642   3.150  1.1659  3.0743  0.5163
  418SOL    HW2 2039   4.608   0.648   3.293 -0.6194 -2.7025  1.6262
  419SOL     OW 2040   5.230   4.472   3.163  0.0173 -0.3844 -0.0725
  419SOL    HW1 2041   5.157   4.500   3.217 -1.3302 -3.1030 -0.2964
  419SOL    HW2 2042   5.197   4.395   3.116  2.6575 -1.0088 -1.0853
  420SOL     OW 2043   5.482   1.625   3.828  0.0704  0.9863  0.3278
  420SOL    HW1 2044   5.397   1.669   3.838  0.6824  2.8004 -1.6432
  420SOL    HW2 2045   5.497   1.582   3.912 -2.3945  1.3337  1.0129
  421SOL     OW 2046   3.047   5.023   1.597 -0.2113 -0.0336 -0.3200
  421SOL    HW1 2047   2.974   5.052   1.652 -0.8973 -1.7969 -0.2254
  421SOL    HW2 2048   3.081   4.945   1.642  2.0625  1.0037 -0.1150
  422SOL     OW 2049   3.095   0.459   2.290 -0.2950  0.6591  0.0438
  422SOL    HW1 2050   3.090   0.475   2.196  0.1546 -1.6788 -0.4499
  422SOL    HW2 2051   3.188   0.456   2.309 -0.3805  0.5204  0.4509
  423SOL     OW 2052   4.405   0.870   1.351 -0.3982  0.4592 -0.1319
  423SOL    HW1 2053   4.419   0.828   1.436 -0.4322 -1.5825 -1.0856
  423SOL    HW2 2054   4.323   0.918   1.361  0.7431  2.1941  1.6576
  424SOL     OW 2055   4.495   5.063   1.121  0.8398  1.1300 -0.2456
  424SOL    HW1 2056   4.475   5.029   1.209  0.8400  0.2958 -0.5539
  424SOL    HW2 2057   4.572   5.119   1.134  2.4075 -0.9367 -0.0586
  425SOL     OW 2058   4.208   1.524   1.950  0.2352 -0.3499 -0.0008
  425SOL    HW1 2059   4.266   1.596   1.926  1.7673 -1.9042 -1.1733
  425SOL    HW2 2060   4.230   1.506   2.042  1.4368 -0.7375 -0.3510
  426SOL     OW 2061   4.134   5.508   1.087  1.1164  0.0327  0.4138
  426SOL    HW1 2062   4.185   5.466   1.157 -0.2845 -0.7981  0.9823
  426SOL    HW2 2063   4.048   5.522   1.126  0.3757 -0.2046 -1.0665
  427SOL     OW 2064   3.092   0.373   1.049 -0.2880  0.5353 -0.0527
  427SOL    HW1 2065   3.030   0.300   1.047 -0.9205  1.0812 -0.8114
  427SOL    HW2 2066   3.117   0.385   0.957  0.2988  0.8681  0.1478
  428SOL     OW 2067   3.263   5.071   1.457  0.0249 -0.8292 -0.2922
  428SOL    HW1 2068   3.180   5.040   1.493 -0.0158 -2.6201 -1.7758
  428SOL    HW2 2069   3.327   5.055   1.527 -0.9965  2.1482  1.5607
  429SOL     OW 2070   5.009   5.105   3.706  0.2676  0.2517  0.9603
  429SOL    HW1 2071   4.963   5.181   3.671  1.9214  1.3897  1.0984
  429SOL    HW2 2072   5.100   5.117   3.676  0.4533 -2.0199  0.4329
  430SOL     OW 2073   4.001   3.928   1.138 -0.1281  0.0155  0.0415
  430SOL    HW1 2074   3.992   3.859   1.204 -3.6367  1.7482  1.6317
  430SOL    HW2 2075   3.977   3.886   1.055  1.9771 -1.5937  0.1590
  431SOL     OW 2076   4.336   0.752   1.904 -0.9556  0.0940 -0.0615
  431SOL    HW1 2077   4.356   0.669   1.948  0.4783  1.1616  1.4081
  431SOL    HW2 2078   4.268   0.729   1.840  1.9661 -2.9739 -2.4393
  432SOL     OW 2079   4.663   5.143   4.335  0.0926 -0.6193 -0.4611
  432SOL    HW1 2080   4.600   5.072   4.346  0.8696 -1.2067  0.3456
  432SOL    HW2 2081   4.657   5.193   4.417  0.2267 -0.3202 -0.6342
  433SOL     OW 2082   4.266   3.361   1.374  0.2853  0.3321 -0.4132
  433SOL    HW1 2083   4.228   3.324   1.294 -0.9149 -0.9478  0.6928
  433SOL    HW2 2084   4.305   3.286   1.419 -0.3417  0.7472  0.8748
  434SOL     OW 2085   4.878   1.003   1.908  0.0210 -0.0159  0.7195
  434SOL    HW1 2086   4.872   0.909   1.888  0.8745  0.0553  0.0416
  434SOL    HW2 2087   4.813   1.044   1.851 -1.3642 -0.2978  2.0249
  435SOL     OW 2088   4.432   4.577   4.310 -0.2702  0.2103 -0.0098
  435SOL    HW1 2089   4.347   4.542   4.336 -0.4069  1.0406  0.7037
  435SOL    HW2 2090   4.415   4.618   4.225 -0.8188  1.1866  0.5485
  436SOL     OW 2091   3.413   5.606   1.879  0.2709  0.3376 -0.3442
  436SOL    HW1 2092   3.335   5.583   1.830  0.7639 -1.0851 -0.5113
  436SOL    HW2 2093   3.485   5.561   1.833  1.2921  2.1276 -0.5864
  437SOL     OW 2094   3.870   0.492   1.187 -0.0018  0.0296  0.4601
  437SOL    HW1 2095   3.872   0.417   1.246 -0.2871  0.5951  1.2109
  437SOL    HW2 2096   3.822   0.462   1.110 -1.5449 -0.0758  1.4430
  438SOL     OW 2097   4.804   0.823   2.924  0.2592 -0.0991  0.5221
  438SOL    HW1 2098   4.737   0.756   2.915  0.0196  0.1695  0.2877
  438SOL    HW2 2099   4.764   0.902   2.887 -0.4145  0.8252  3.0660
  439SOL     OW 2100   3.638   0.482   3.711 -0.6242 -0.6193  0.1735
  439SOL    HW1 2101   3.664   0.550   3.650  2.1045 -0.1636  1.6689
  439SOL    HW2 2102   3.706   0.415   3.702 -0.3776 -0.7285  2.3264
  440SOL     OW 2103   2.143   1.236   5.306  0.2720 -0.4880 -0.4878
  440SOL    HW1 2104   2.175   1.227   5.396  1.1653  0.0378 -0.7444
  440SOL    HW2 2105   2.176   1.158   5.261  1.8701  0.4048 -0.9318
  441SOL     OW 2106   4.582   4.142   2.796  0.6508 -0.1816  0.3855
  441SOL    HW1 2107   4.653   4.184   2.747  0.1087  0.2147 -0.0728
  441SOL    HW2 2108   4.591   4.049   2.775 -0.4028  0.1173 -1.6079
  442SOL     OW 2109   5.136   0.825   4.316  0.2100  0.5795  0.2358
  442SOL    HW1 2110   5.043   0.817   4.294  0.5213 -0.2156 -0.9096
  442SOL    HW2 2111   5.170   0.737   4.306  1.3521  1.1049 -0.6934
  443SOL     OW 2112   4.095   1.602   1.578  0.2681  0.2394 -0.2984
  443SOL    HW1 2113   4.125   1.620   1.489  2.6974  0.2960  0.4651
  443SOL    HW2 2114   4.153   1.654   1.634  0.0987 -1.3175  1.4047
  444SOL     OW 2115   5.589   5.174   2.820 -0.0521  0.2062 -0.0474
  444SOL    HW1 2116   5.548   5.172   2.733 -1.8650 -0.8193  0.7659
  444SOL    HW2 2117   5.546   5.103   2.868  0.4496  1.1358  1.8800
  445SOL     OW 2118   4.169   4.228   1.261  0.1023  0.8180 -0.3960
  445SOL    HW1 2119   4.217   4.292   1.314  0.1533 -0.3474  1.0301
  445SOL    HW2 2120   4.216   4.226   1.177  0.3358  2.3267 -0.3165
  446SOL     OW 2121   3.131   4.001   3.300 -0.1832 -0.5722 -0.2745
  446SOL    HW1 2122   3.186   4.079   3.309 -0.4022 -0.0868 -2.5224
  446SOL    HW2 2123   3.190   3.932   3.270  0.5040 -2.0827  3.8870
  447SOL     OW 2124   3.320   4.237   0.841 -0.4896  0.4567  0.1120
  447SOL    HW1 2125   3.394   4.286   0.805  1.2063 -0.9083  1.6121
  447SOL    HW2 2126   3.352   4.200   0.923 -3.4215  1.3237  1.7851
  448SOL     OW 2127   5.051   3.491   2.873 -0.0899 -1.0527  0.4883
  448SOL    HW1 2128   5.119   3.424   2.868 -0.5055 -1.4025 -1.2478
  448SOL    HW2 2129   5.053   3.533   2.787  0.1089  1.1543  1.4883
  449SOL     OW 2130   5.042   3.721   2.720 -0.7264 -0.5369 -0.0074
  449SOL    HW1 2131   5.066   3.803   2.764  2.0847 -1.7005  0.8739
  449SOL    HW2 2132   4.989   3.748   2.645  0.3521  2.1029  0.0908
  450SOL     OW 2133   3.589   2.643   2.714 -0.0828  0.0494  0.0562
  450SOL    HW1 2134   3.508   2.633   2.765  0.3890 -1.6987  0.5300
  450SOL    HW2 2135   3.560   2.639   2.623 -0.4355 -2.3263  0.1918
  451SOL     OW 2136   5.620   0.855   2.610 -0.0808  0.0296  0.9856
  451SOL    HW1 2137   5.586   0.919   2.673 -0.2013 -0.0515  1.0032
  451SOL    HW2 2138   5.669   0.792   2.663 -0.3870 -0.1749  1.0267
  452SOL     OW 2139   4.664   4.273   3.095 -0.2471 -0.6680 -0.3015
  452SOL    HW1 2140   4.572   4.253   3.081 -0.0424 -2.2517  0.3749
  452SOL    HW2 2141   4.675   4.361   3.060 -2.0528 -0.3636 -0.2053
  453SOL     OW 2142   5.449   0.168   2.761  0.1490  0.1548  0.5647
  453SOL    HW1 2143   5.528   0.119   2.741  0.0747  0.4833 -0.6035
  453SOL    HW2 2144   5.410   0.188   2.675  0.4110  2.6339  0.9355
  454SOL     OW 2145   4.322   0.282   3.913  0.2581  0.0863 -0.0536
  454SOL    HW1 2146   4.286   0.366   3.940  1.1512 -0.3293  2.8146
  454SOL    HW2 2147   4.359   0.297   3.826  0.5199  2.6780  0.4400
  455SOL     OW 2148   4.470   3.540   1.303  0.1778  0.6794  0.7907
  455SOL    HW1 2149   4.532   3.468   1.317  0.8537  0.3435 -2.8451
  455SOL    HW2 2150   4.384   3.497   1.302  0.3846  0.2555  0.7477
  456SOL     OW 2151   3.221   3.009   1.649 -0.4831 -0.4702 -0.3093
  456SOL    HW1 2152   3.203   3.101   1.630 -1.4156 -0.5942 -0.0462
  456SOL    HW2 2153   3.239   2.969   1.563  0.9472  0.1504 -0.3339
  457SOL     OW 2154   4.995   5.549   3.797  0.4141  0.0823  0.2231
  457SOL    HW1 2155   4.964   5.570   3.885  1.9701  2.3955  0.3185
  457SOL    HW2 2156   4.924   5.498   3.758 -1.1555  0.6627  2.1521
  458SOL     OW 2157   4.064   1.255   1.085  0.0109 -0.0084 -0.1448
  458SOL    HW1 2158   4.002   1.194   1.123 -0.6687 -0.1072 -1.3726
  458SOL    HW2 2159   4.131   1.200   1.044  0.3966  0.0955  0.3289
  459SOL     OW 2160   3.644   2.034   2.171  0.2287  0.2959  0.0144
  459SOL    HW1 2161   3.685   2.012   2.087  3.0795 -0.3894  1.4796
  459SOL    HW2 2162   3.614   1.950   2.205 -1.2245  0.6165 -0.3949
  460SOL     OW 2163   4.501   3.670   1.538  0.0623  0.0960 -0.6381
  460SOL    HW1 2164   4.500   3.615   1.460  1.3848  0.4095 -0.8984
  460SOL    HW2 2165   4.533   3.613   1.608  0.4003  0.2360 -0.6759
  461SOL     OW 2166   3.831   5.629   1.506 -0.5697  0.5105  0.2768
  461SOL    HW1 2167   3.769   5.564   1.472  1.6698 -0.1319 -3.0037
  461SOL    HW2 2168   3.867   5.589   1.585  1.3488 -2.8266 -2.0639
  462SOL     OW 2169   4.135   5.096   2.843  0.2192  0.7471  0.1538
  462SOL    HW1 2170   4.118   5.119   2.935 -0.8776  1.3474 -0.1855
  462SOL    HW2 2171   4.192   5.020   2.848 -0.2797  0.4230  1.3505
  463SOL     OW 2172   4.526   5.322   3.316 -0.5593 -0.0284  0.5142
  463SOL    HW1 2173   4.529   5.234   3.279 -1.2540 -0.4925  1.5211
  463SOL    HW2 2174   4.566   5.313   3.403 -4.0944 -0.2805  2.3052
  464SOL     OW 2175   2.990   0.088   2.755  0.6928 -0.2201  0.7603
  464SOL    HW1 2176   2.935   0.161   2.729  0.8836 -0.6249 -0.9075
  464SOL    HW2 2177   2.929   0.020   2.783  0.4631  0.1408  1.1482
  465SOL     OW 2178   5.462   4.621   1.938  0.2355 -0.3126  0.1234
  465SOL    HW1 2179   5.401   4.603   1.867 -0.8779 -0.1507  1.0106
  465SOL    HW2 2180   5.512   4.540   1.949 -0.3491 -0.7107 -0.1164
  466SOL     OW 2181   3.869   1.415   1.601  0.6806 -0.2609  0.0001
  466SOL    HW1 2182   3.956   1.450   1.617  0.8598 -0.4465 -0.5448
  466SOL    HW2 2183   3.842   1.378   1.685  1.6279 -1.2721 -0.1175
  467SOL     OW 2184   4.099   1.055   2.583  0.2126  0.5275  0.3859
  467SOL    HW1 2185   4.132   1.050   2.672 -0.2863 -0.0918  0.5473
  467SOL    HW2 2186   4.086   0.964   2.557  3.2242  0.5181 -1.4437
  468SOL     OW 2187   5.262   1.679   2.346  0.6183  0.3885  0.4558
  468SOL    HW1 2188   5.199   1.607   2.352  2.8392 -1.8816 -1.5701
  468SOL    HW2 2189   5.297   1.674   2.257  0.6376  4.2923  0.0796
  469SOL     OW 2190   4.108   4.776   3.340 -0.4584 -0.4852 -0.2780
  469SOL    HW1 2191   4.190   4.727   3.351 -0.7674 -0.8618  0.4132
  469SOL    HW2 2192   4.041   4.708   3.331 -0.5421 -0.1928 -2.2972
  470SOL     OW 2193   3.696   0.552   2.048  0.9194 -0.2829  0.0833
  470SOL    HW1 2194   3.741   0.636   2.042  0.7235  0.0214  1.9946
  470SOL    HW2 2195   3.736   0.509   2.124 -0.2267 -1.1232  0.2398
  471SOL     OW 2196   4.633   0.935   1.142  0.2213 -0.3392 -0.7917
  471SOL    HW1 2197   4.711   0.951   1.196  0.2504 -0.6368 -0.7430
  471SOL    HW2 2198   4.566   0.992   1.180  0.2587 -0.5013 -0.4788
  472SOL     OW 2199   4.989   5.299   1.002  0.4336  0.0017  0.8279
  472SOL    HW1 2200   5.031   5.384   1.018  0.6293  0.3265 -1.1285
  472SOL    HW2 2201   4.907   5.321   0.960 -0.7109 -0.7314  2.5667
  473SOL     OW 2202   5.294   1.592   2.071  0.5989 -0.4537 -0.0921
  473SOL    HW1 2203   5.365   1.558   2.016  0.1758 -0.6724 -0.5066
  473SOL    HW2 2204   5.215   1.575   2.021  0.0624 -1.8855  1.1509
  474SOL     OW 2205   3.763   3.714   1.025 -0.3207 -0.0103  0.3076
  474SOL    HW1 2206   3.685   3.689   1.075 -1.7002 -1.2861 -2.2696
  474SOL    HW2 2207   3.742   3.689   0.935  2.3029  1.4853 -0.8143
  475SOL     OW 2208   3.489   1.755   2.205 -0.2736 -0.0318  0.2354
  475SOL    HW1 2209   3.476   1.783   2.296 -0.7266 -2.1761  0.9059
  475SOL    HW2 2210   3.530   1.668   2.213 -0.3771 -0.2880 -1.6148
  476SOL     OW 2211   5.407   0.297   2.491  0.5546 -0.9327  0.1935
  476SOL    HW1 2212   5.424   0.377   2.441  0.2077 -1.8863 -1.5385
  476SOL    HW2 2213   5.486   0.244   2.481  1.1921 -0.4385  2.1841
  477SOL     OW 2214   3.744   4.169   1.880 -0.1919  0.7606  0.0238
  477SOL    HW1 2215   3.702   4.168   1.966 -0.1928  0.3239  0.0223
  477SOL    HW2 2216   3.747   4.077   1.854  0.2654  0.8412 -0.2214
  478SOL     OW 2217   3.402   0.900   3.460  0.0791 -0.0214  0.4517
  478SOL    HW1 2218   3.408   0.976   3.403 -0.3750  0.0587  0.5077
  478SOL    HW2 2219   3.340   0.926   3.528  0.4114 -0.2109  0.8344
  479SOL     OW 2220   3.287   0.041   2.884 -0.2999  0.2455  0.1947
  479SOL    HW1 2221   3.341  -0.012   2.826  0.4843  1.5641 -0.3280
  479SOL    HW2 2222   3.258   0.114   2.830 -3.1541 -0.7055  0.2780
  480SOL     OW 2223   5.028   4.065   2.299 -0.1729  0.6970  0.0447
  480SOL    HW1 2224   5.017   4.142   2.354 -0.8641  0.3435  0.4160
  480SOL    HW2 2225   5.114   4.031   2.321 -0.0455  1.1175  0.1911
  481SOL     OW 2226   5.241   5.039   2.534 -0.0037 -0.0672 -0.1463
  481SOL    HW1 2227   5.211   5.050   2.444  1.7021 -0.1115 -0.7598
  481SOL    HW2 2228   5.286   4.954   2.534 -1.2630 -0.7744  1.1411
  482SOL     OW 2229   5.137   0.886   2.335 -0.5377  0.8091 -0.6923
  482SOL    HW1 2230   5.227   0.910   2.357 -0.5125 -1.5713  2.6170
  482SOL    HW2 2231   5.139   0.867   2.242  2.3888  0.8988 -0.7444
  483SOL     OW 2232   4.178   1.349   1.696 -0.6767  0.2866 -0.4114
  483SOL    HW1 2233   4.244   1.331   1.763 -1.4413 -0.7103  0.1146
  483SOL    HW2 2234   4.188   1.442   1.676  1.3602  0.0300 -0.8857
  484SOL     OW 2235   3.685   1.733   2.995 -0.3141  0.0103 -0.0715
  484SOL    HW1 2236   3.639   1.785   2.929  0.4938 -1.0490 -1.5311
  484SOL    HW2 2237   3.620   1.671   3.027 -0.1767 -0.9213 -1.5098
  485SOL     OW 2238   5.395   4.914   1.999  0.0939 -0.5542 -0.9770
  485SOL    HW1 2239   5.446   4.835   1.983 -2.5011 -2.7902  0.8361
  485SOL    HW2 2240   5.326   4.912   1.933 -0.3757 -0.2073 -0.5055
  486SOL     OW 2241   3.928   4.370   4.069 -0.5771  0.0635  0.4509
  486SOL    HW1 2242   4.000   4.381   4.008 -1.3920  2.5262 -0.1736
  486SOL    HW2 2243   3.969   4.362   4.155  0.4440  1.2231  0.0817
  487SOL     OW 2244   5.531   0.512   1.841  0.3085  0.4883 -0.2918
  487SOL    HW1 2245   5.562   0.434   1.795  0.8597 -0.8166  2.1300
  487SOL    HW2 2246   5.448   0.534   1.798 -2.4832 -4.3415  1.7402
  488SOL     OW 2247   3.650   1.086   1.226 -0.3050  0.6178 -0.0571
  488SOL    HW1 2248   3.731   1.042   1.251 -2.5308 -3.9817  0.0075
  488SOL    HW2 2249   3.642   1.158   1.289  2.0512 -0.9254  2.2098
  489SOL     OW 2250   5.144   5.224   1.954  0.8799  0.1078  0.1633
  489SOL    HW1 2251   5.111   5.312   1.973  0.7366  0.0355  0.2501
  489SOL    HW2 2252   5.235   5.238   1.927  0.4162  0.4509 -1.3412
  490SOL     OW 2253   3.846   3.802   0.635 -0.1258 -0.6478  0.2421
  490SOL    HW1 2254   3.918   3.852   0.597 -0.5339 -1.1130 -1.2209
  490SOL    HW2 2255   3.883   3.715   0.651 -0.2493 -0.7665 -0.1173
  491SOL     OW 2256   4.328   1.077   1.810 -0.8383 -0.2406 -0.0695
  491SOL    HW1 2257   4.288   0.992   1.827 -0.5905 -1.1338 -3.4249
  491SOL    HW2 2258   4.343   1.079   1.716  2.7426  1.9619  0.3712
  492SOL     OW 2259   3.400   3.139   1.405 -0.1753  0.1506 -0.0032
  492SOL    HW1 2260   3.416   3.116   1.496 -1.2979 -1.0639 -0.0806
  492SOL    HW2 2261   3.477   3.108   1.357 -0.1635 -0.3785  0.3576
  493SOL     OW 2262   3.229   0.054   1.292 -0.3698 -0.3139 -0.1350
  493SOL    HW1 2263   3.247   0.148   1.288 -0.5376 -0.2309  0.7639
  493SOL    HW2 2264   3.136   0.047   1.270 -0.5124 -0.1931  0.3963
  494SOL     OW 2265   4.199   0.716   2.334 -0.5380  0.2395 -0.7028
  494SOL    HW1 2266   4.291   0.740   2.323 -0.7297  0.9675 -0.8227
  494SOL    HW2 2267   4.200   0.622   2.352  0.7643  0.9350  5.0660
  495SOL     OW 2268   3.449   3.895   2.649 -0.0277 -1.1087 -0.2889
  495SOL    HW1 2269   3.505   3.842   2.707 -0.2654 -1.3700 -0.2964
  495SOL    HW2 2270   3.511   3.947   2.598  0.1815 -0.6557  0.4060
  496SOL     OW 2271   5.000   0.073   2.254 -0.5934  0.3073 -0.0556
  496SOL    HW1 2272   5.067   0.134   2.285  0.5003 -1.6560  1.6562
  496SOL    HW2 2273   4.929   0.082   2.318  1.7703 -3.9381  3.7398
  497SOL     OW 2274   5.079   5.339   1.651 -0.3050 -0.1803 -0.1203
  497SOL    HW1 2275   5.123   5.277   1.593 -0.0730  0.0550 -0.1971
  497SOL    HW2 2276   5.105   5.312   1.739  0.5256  0.3461 -0.1876
  498SOL     OW 2277   5.393   5.487   3.100 -0.1618 -0.6870  0.5806
  498SOL    HW1 2278   5.413   5.498   3.007 -0.1213 -0.4496  0.6161
  498SOL    HW2 2279   5.342   5.406   3.104 -3.2622  1.0597 -0.0996
  499SOL     OW 2280   3.387   3.453   2.025 -0.0488 -0.1561  0.7329
  499SOL    HW1 2281   3.383   3.537   1.978 -2.1359  0.5583  2.0344
  499SOL    HW2 2282   3.454   3.466   2.092  0.2605  0.1512  0.3672
  500SOL     OW 2283   5.423   1.030   2.703 -0.0595  0.3360 -0.4289
  500SOL    HW1 2284   5.386   0.970   2.769 -0.3346 -0.0923 -0.9599
  500SOL    HW2 2285   5.375   1.112   2.716  1.3329  0.9260  1.2713
  501SOL     OW 2286   4.698   4.686   4.039  0.1899  0.4446  0.4993
  501SOL    HW1 2287   4.731   4.743   4.108  0.3503  2.7413 -1.3470
  501SOL    HW2 2288   4.769   4.683   3.974 -0.3821 -0.7046 -0.1120
  502SOL     OW 2289   3.516   4.616   0.938  0.9965 -0.6775 -0.6032
  502SOL    HW1 2290   3.554   4.577   0.859  0.7307  0.5308 -1.3387
  502SOL    HW2 2291   3.442   4.668   0.907 -1.3011 -2.8651  0.7813
  503SOL     OW 2292   2.991   4.943   1.205  0.5776  0.2037 -0.4665
  503SOL    HW1 2293   3.052   5.014   1.223  1.0601  0.1169 -1.6344
  503SOL    HW2 2294   3.043   4.863   1.216  0.5283  0.1082 -0.8996
  504SOL     OW 2295   4.552   0.533   2.294  0.6508  0.1582  0.4463
  504SOL    HW1 2296   4.603   0.452   2.289  1.2194  0.5380 -0.0682
  504SOL    HW2 2297   4.617   0.603   2.287  0.1061  0.6580  0.2751
  505SOL     OW 2298   2.925   5.485   2.627 -0.4831 -0.2638 -0.4623
  505SOL    HW1 2299   3.010   5.516   2.597 -1.4110  2.5980 -0.4170
  505SOL    HW2 2300   2.864   5.513   2.558 -1.8325  1.0967  1.1800
  506SOL     OW 2301   4.461   3.447   0.878  0.6159 -0.2790 -0.4021
  506SOL    HW1 2302   4.425   3.486   0.958 -1.6509 -2.9682  0.0422
  506SOL    HW2 2303   4.550   3.424   0.901  0.0490 -0.8807  1.3693
  507SOL     OW 2304   4.232   1.697   2.727  0.0360 -0.1030  0.3001
  507SOL    HW1 2305   4.258   1.660   2.643 -0.7524  1.5776 -0.7338
  507SOL    HW2 2306   4.139   1.676   2.736 -0.7740  2.5627 -0.9228
  508SOL     OW 2307   3.927   4.912   2.312  0.6061  0.1273 -0.3061
  508SOL    HW1 2308   3.987   4.946   2.378  0.1508 -2.7160  1.7702
  508SOL    HW2 2309   3.840   4.931   2.346  0.3146  0.9694 -1.4641
  509SOL     OW 2310   5.272   4.762   3.151 -0.3785  0.1639  0.6617
  509SOL    HW1 2311   5.350   4.817   3.147 -0.1880 -0.0328  1.5267
  509SOL    HW2 2312   5.252   4.742   3.060  0.7787 -0.0470  0.4424
  510SOL     OW 2313   3.058   1.785   2.481 -0.4963  0.0100 -0.4574
  510SOL    HW1 2314   3.144   1.798   2.443 -0.8155  1.9249 -0.6210
  510SOL    HW2 2315   2.998   1.828   2.421 -1.4567 -0.3788  0.1897
  511SOL     OW 2316   3.695   5.470   1.885  0.6750  0.1644  0.1539
  511SOL    HW1 2317   3.727   5.554   1.917  0.1777  0.1580  0.6709
  511SOL    HW2 2318   3.671   5.486   1.794  2.2648  0.1384 -0.3068
  512SOL     OW 2319   4.707   0.891   3.597 -0.1475  1.4455 -0.4191
  512SOL    HW1 2320   4.783   0.835   3.611 -0.0836  1.7368  0.4973
  512SOL    HW2 2321   4.741   0.966   3.547 -0.7745 -0.5591 -4.2054
  513SOL     OW 2322   4.898   5.464   3.347 -0.4338  0.2666  0.3402
  513SOL    HW1 2323   4.856   5.435   3.428 -1.9304 -0.8685 -0.7862
  513SOL    HW2 2324   4.841   5.532   3.312  1.4477  2.4843  1.3756
  514SOL     OW 2325   3.469   3.729   2.046 -1.1691 -0.3773  0.1148
  514SOL    HW1 2326   3.398   3.773   2.092  0.4705  0.3988  2.0643
  514SOL    HW2 2327   3.541   3.728   2.109  1.3362  0.9804 -2.5012
  515SOL     OW 2328   3.836   4.203   1.127 -0.8085 -0.5069  0.3359
  515SOL    HW1 2329   3.809   4.295   1.120  1.9140  0.2814 -2.2551
  515SOL    HW2 2330   3.789   4.159   1.056 -1.2014 -0.8634  0.8146
  516SOL     OW 2331   3.835   1.231   3.163 -0.2832 -0.3589 -0.0379
  516SOL    HW1 2332   3.867   1.319   3.144  0.7768 -0.6780  0.2294
  516SOL    HW2 2333   3.901   1.192   3.220  0.2256 -1.9990 -1.6565
  517SOL     OW 2334   5.246   5.598   2.736 -0.1583 -0.2591  0.1977
  517SOL    HW1 2335   5.332   5.565   2.761  0.0333  0.2718  0.2689
  517SOL    HW2 2336   5.247   5.598   2.641  0.8063  1.8833  0.1434
  518SOL     OW 2337   3.854   0.642   3.937  0.5811 -0.5276 -0.4045
  518SOL    HW1 2338   3.795   0.569   3.953  2.4329 -2.5494 -2.1700
  518SOL    HW2 2339   3.941   0.609   3.960  1.3839  1.4899 -0.2582
  519SOL     OW 2340   3.060   5.363   2.387  0.2647 -0.1898 -0.2508
  519SOL    HW1 2341   3.101   5.284   2.351 -0.4102 -1.2111  1.0928
  519SOL    HW2 2342   3.061   5.348   2.482  2.4061  2.5507  0.3005
  520SOL     OW 2343   4.855   5.709   1.664  0.5211 -0.8449 -0.4447
  520SOL    HW1 2344   4.859   5.760   1.745 -2.4748 -0.2131 -0.5729
  520SOL    HW2 2345   4.922   5.747   1.607 -0.6950  2.0972 -0.0431
  521SOL     OW 2346   5.482   0.109   3.066  0.0938  0.0285  0.2334
  521SOL    HW1 2347   5.474   0.175   2.997 -0.2366  0.9316  1.1125
  521SOL    HW2 2348   5.398   0.109   3.111  0.7758  0.5348  1.5735
  522SOL     OW 2349   4.466   1.775   2.321  0.3617  0.0312 -0.0494
  522SOL    HW1 2350   4.419   1.844   2.274 -1.5969 -1.0635  0.2477
  522SOL    HW2 2351   4.537   1.750   2.262 -0.6578  0.2934 -1.4266
  523SOL     OW 2352   5.510   5.490   2.818  0.1604  1.1448  0.7947
  523SOL    HW1 2353   5.596   5.530   2.826  0.1401  0.9550  2.1660
  523SOL    HW2 2354   5.522   5.400   2.848 -0.1108  0.4982 -0.8725
  524SOL     OW 2355   4.864   0.267   2.048  0.0647  0.8586  0.2309
  524SOL    HW1 2356   4.958   0.264   2.032  0.3181  0.4283  1.7291
  524SOL    HW2 2357   4.827   0.203   1.987  0.8725  0.0886  0.5366
  525SOL     OW 2358   4.491   1.570   4.075 -0.3843  0.1608  0.2216
  525SOL    HW1 2359   4.450   1.526   4.150 -0.1161 -0.6960 -0.1251
  525SOL    HW2 2360   4.433   1.644   4.056 -0.8810 -0.0789  0.7749
  526SOL     OW 2361   4.489   1.623   2.831  0.2671  0.4061 -0.4443
  526SOL    HW1 2362   4.407   1.658   2.798  0.4158  1.2562  0.0616
  526SOL    HW2 2363   4.539   1.700   2.858 -0.0248 -0.2442  2.1741
  527SOL     OW 2364   3.664   5.444   1.392  0.3027  0.1065 -0.0515
  527SOL    HW1 2365   3.656   5.360   1.346  4.0670  0.5715 -1.9065
  527SOL    HW2 2366   3.610   5.504   1.341  0.6351 -0.3934 -1.0126
  528SOL     OW 2367   3.673   0.446   0.981 -0.1598  0.1974 -0.3855
  528SOL    HW1 2368   3.618   0.519   1.010 -0.3575 -0.3903  0.7895
  528SOL    HW2 2369   3.628   0.411   0.904 -0.2097  1.1272 -0.7977
  529SOL     OW 2370   3.240   5.643   0.772  0.4055  0.5530 -0.3927
  529SOL    HW1 2371   3.203   5.638   0.684 -2.4686  2.7189  0.5422
  529SOL    HW2 2372   3.289   5.724   0.773  3.7279 -1.2722 -0.9683
  530SOL     OW 2373   4.522   1.254   2.264 -0.6214 -0.4286  0.2459
  530SOL    HW1 2374   4.439   1.222   2.299  0.2278 -2.3913  0.6254
  530SOL    HW2 2375   4.588   1.216   2.322  0.5467  1.7953  0.4817
  531SOL     OW 2376   3.453   4.293   2.556  0.2919 -0.2610 -0.5203
  531SOL    HW1 2377   3.495   4.373   2.523 -2.0722  0.4696 -2.0883
  531SOL    HW2 2378   3.368   4.323   2.588 -0.7903 -2.1715 -1.4455
  532SOL     OW 2379   4.185   1.216   1.440 -0.3352 -0.2397  0.6336
  532SOL    HW1 2380   4.154   1.276   1.508 -2.6671 -0.4624 -0.1600
  532SOL    HW2 2381   4.169   1.263   1.358  0.0843 -1.0067  0.1043
  533SOL     OW 2382   2.950   4.271   2.372  0.9496  0.0796  0.2121
  533SOL    HW1 2383   2.946   4.355   2.327 -1.5009 -0.7913 -1.3957
  533SOL    HW2 2384   2.942   4.292   2.465 -3.5657  1.5828 -0.2912
  534SOL     OW 2385   3.881   1.246   2.795  0.3341  0.7551  0.8625
  534SOL    HW1 2386   3.824   1.203   2.859  0.0402  3.1167  2.2814
  534SOL    HW2 2387   3.943   1.296   2.848 -0.3567  3.3661 -0.6473
  535SOL     OW 2388   3.294   3.636   1.791 -0.4218 -0.4009  0.3503
  535SOL    HW1 2389   3.298   3.690   1.870 -3.5177  1.0462 -0.3220
  535SOL    HW2 2390   3.345   3.684   1.726 -1.9980  1.1313  0.1543
  536SOL     OW 2391   3.873   0.284   3.662  0.0068 -0.1714 -0.8937
  536SOL    HW1 2392   3.929   0.332   3.724  1.0054 -0.2333 -1.7061
  536SOL    HW2 2393   3.856   0.201   3.704  1.0239 -0.3749 -0.8499
  537SOL     OW 2394   3.909   5.232   1.610  0.1408 -0.3700 -0.1066
  537SOL    HW1 2395   3.942   5.270   1.528  0.0734 -1.5698 -0.7153
  537SOL    HW2 2396   3.815   5.221   1.595  0.4317 -2.4546 -0.6743
  538SOL     OW 2397   5.254   5.550   2.121 -0.0759 -0.2871  0.3711
  538SOL    HW1 2398   5.273   5.627   2.174 -0.0300 -0.7719  1.0714
  538SOL    HW2 2399   5.256   5.477   2.183  3.2549 -1.3361 -0.7773
  539SOL     OW 2400   5.529   5.654   3.271 -0.5049 -0.0131  0.1504
  539SOL    HW1 2401   5.516   5.728   3.211  1.8544  1.0130  0.7960
  539SOL    HW2 2402   5.476   5.583   3.233 -0.5982  1.1483 -2.0808
  540SOL     OW 2403   3.393   0.153   0.725 -0.1462 -0.2285 -0.1919
  540SOL    HW1 2404   3.370   0.243   0.702 -0.8102  0.0412  1.4349
  540SOL    HW2 2405   3.465   0.161   0.787  1.0682 -0.9203 -1.4388
  541SOL     OW 2406   4.256   0.660   3.793 -0.1956 -0.3377 -0.4804
  541SOL    HW1 2407   4.304   0.653   3.876 -0.0284  1.1527 -0.4271
  541SOL    HW2 2408   4.305   0.724   3.743 -2.1637  1.3135 -0.4044
  542SOL     OW 2409   5.212   5.661   4.034  0.0585  0.2803 -0.5663
  542SOL    HW1 2410   5.235   5.703   3.951  0.3351  1.2472 -0.0101
  542SOL    HW2 2411   5.155   5.589   4.009  0.6862  0.1384 -1.6611
  543SOL     OW 2412   3.740   1.126   2.070  0.7126  0.2004  0.0336
  543SOL    HW1 2413   3.668   1.063   2.071 -0.6157  1.6388 -0.8584
  543SOL    HW2 2414   3.785   1.113   2.153 -0.4029 -0.9372  0.4775
  544SOL     OW 2415   3.824   1.469   2.359  0.0969 -0.0707  0.4963
  544SOL    HW1 2416   3.846   1.389   2.407 -1.1758 -0.9734 -0.3548
  544SOL    HW2 2417   3.888   1.473   2.288 -0.1319 -0.6151  0.2523
  545SOL     OW 2418   3.101   3.065   2.188  0.5020  0.2141  0.7872
  545SOL    HW1 2419   3.093   3.093   2.097  2.9577  0.8000  0.6749
  545SOL    HW2 2420   3.021   3.015   2.205  0.5241 -0.9610 -2.0372
  546SOL     OW 2421   5.396   5.222   1.911  0.9253  0.0053 -0.2700
  546SOL    HW1 2422   5.456   5.221   1.985  2.4990 -0.0736 -1.4845
  546SOL    HW2 2423   5.403   5.135   1.873 -1.1087 -0.4994  0.3918
  547SOL     OW 2424   4.082   0.445   3.763  0.3573 -0.0511  0.6124
  547SOL    HW1 2425   4.128   0.471   3.684  1.8238  0.5839  1.6153
  547SOL    HW2 2426   4.090   0.521   3.822 -2.3623  0.2669  0.7329
  548SOL     OW 2427   2.989   1.647   2.777  0.9329  0.4985  0.5557
  548SOL    HW1 2428   2.899   1.629   2.802  1.5763 -2.3757  1.1853
  548SOL    HW2 2429   2.985   1.675   2.686 -0.5328 -0.5784  0.2640
  549SOL     OW 2430   3.443   5.524   2.185  0.0899  0.0981  0.3429
  549SOL    HW1 2431   3.418   5.450   2.130 -0.2014  1.4634 -1.4937
  549SOL    HW2 2432   3.361   5.565   2.209  0.1856  2.6810 -2.9547
  550SOL     OW 2433   5.149   5.694   1.870 -0.2962  0.2464 -0.0375
  550SOL    HW1 2434   5.214   5.654   1.927  0.6166  1.7706  0.0387
  550SOL    HW2 2435   5.064   5.665   1.905  0.2844 -2.8945 -0.9612
  551SOL     OW 2436   3.352   3.577   2.312 -0.2133 -0.0901  0.4071
  551SOL    HW1 2437   3.297   3.564   2.235  1.2523  1.0585 -0.9245
  551SOL    HW2 2438   3.430   3.525   2.294  0.4401  0.7331  0.7720
  552SOL     OW 2439   2.857   3.819   1.684 -0.3916 -0.0534  0.0771
  552SOL    HW1 2440   2.939   3.829   1.733 -1.9052  0.6041  2.6382
  552SOL    HW2 2441   2.871   3.741   1.630  2.3936  0.8403 -0.6849
  553SOL     OW 2442   4.673   4.405   4.319 -0.0236 -0.4634 -0.6183
  553SOL    HW1 2443   4.624   4.332   4.280 -1.4392  2.1816 -4.4687
  553SOL    HW2 2444   4.609   4.477   4.323  2.1232  1.5397 -0.3321
  554SOL     OW 2445   4.949   1.013   1.617 -0.2256  0.3706 -0.0650
  554SOL    HW1 2446   4.939   0.927   1.657  1.9342 -1.7957 -3.5997
  554SOL    HW2 2447   4.957   1.074   1.691  3.3152 -3.1365  2.8999
  555SOL     OW 2448   4.789   1.469   2.424 -0.1522 -0.0304  0.2815
  555SOL    HW1 2449   4.709   1.510   2.456 -2.1061 -2.2601 -1.4009
  555SOL    HW2 2450   4.782   1.378   2.453  1.4136 -0.4599 -0.5943
  556SOL     OW 2451   4.454   0.829   2.306 -0.5764  0.2407  0.5654
  556SOL    HW1 2452   4.488   0.808   2.393 -1.1054  0.1031  0.7394
  556SOL    HW2 2453   4.527   0.810   2.247 -0.7994 -1.4702  0.7785
  557SOL     OW 2454   3.150   4.839   1.013  0.0209 -0.1451 -0.0105
  557SOL    HW1 2455   3.059   4.868   1.012  0.9532  3.2686 -0.7616
  557SOL    HW2 2456   3.184   4.872   1.097  1.0804  0.7324 -0.7510
  558SOL     OW 2457   3.482   1.644   1.895 -0.1908 -0.0660 -0.0895
  558SOL    HW1 2458   3.405   1.635   1.950 -2.7133 -1.7033 -3.5230
  558SOL    HW2 2459   3.476   1.733   1.859 -1.4958 -0.6997 -1.5591
  559SOL     OW 2460   3.599   5.178   1.330  0.5501 -0.4181  0.8972
  559SOL    HW1 2461   3.602   5.107   1.394 -1.3562 -0.4882  0.9677
  559SOL    HW2 2462   3.602   5.134   1.245 -0.9321 -0.6502  0.9377
  560SOL     OW 2463   3.694   5.232   3.558  0.2971  0.0301 -0.9395
  560SOL    HW1 2464   3.778   5.187   3.564  0.5844  0.7262  0.8240
  560SOL    HW2 2465   3.707   5.298   3.490  0.1611 -1.8544 -2.9000
  561SOL     OW 2466   3.377   1.161   2.620 -0.2282  0.5845 -0.5085
  561SOL    HW1 2467   3.426   1.080   2.603 -0.3144  0.6687 -1.1684
  561SOL    HW2 2468   3.304   1.133   2.675  0.2063  0.3514 -0.0446
  562SOL     OW 2469   3.011   4.572   1.515  0.1386 -0.8741  0.6172
  562SOL    HW1 2470   3.049   4.659   1.524 -2.0884  0.1827  0.4286
  562SOL    HW2 2471   3.086   4.513   1.509  1.7676  1.2844 -2.1048
  563SOL     OW 2472   4.275   4.057   2.722  0.0382  0.4318  0.3459
  563SOL    HW1 2473   4.184   4.040   2.746 -0.4423  1.6035 -0.5254
  563SOL    HW2 2474   4.293   3.996   2.650 -0.9716  1.9415 -1.2906
  564SOL     OW 2475   4.327   5.330   3.006 -0.5525  0.3206 -0.7438
  564SOL    HW1 2476   4.335   5.421   2.976 -0.0625 -0.8725 -4.7964
  564SOL    HW2 2477   4.240   5.327   3.046 -0.4719  2.5981 -0.2269
  565SOL     OW 2478   3.358   0.078   3.544 -0.0115  0.2889  0.6225
  565SOL    HW1 2479   3.361   0.123   3.460  1.1748 -1.0842 -0.1348
  565SOL    HW2 2480   3.438   0.025   3.545 -0.3946 -0.3212  2.2826
  566SOL     OW 2481   3.916   0.659   2.382 -0.2657 -0.1485  0.0379
  566SOL    HW1 2482   3.918   0.635   2.289  2.1208  3.5760 -1.0817
  566SOL    HW2 2483   4.008   0.672   2.405 -0.7647 -1.2122  3.1173
  567SOL     OW 2484   3.071   2.588   2.373  0.0954  0.4134 -0.2395
  567SOL    HW1 2485   3.120   2.642   2.311  1.3572  0.2254  0.5571
  567SOL    HW2 2486   3.073   2.500   2.335 -0.0440  0.4998 -0.4483
  568SOL     OW 2487   2.794   5.302   2.354 -1.1922 -0.5257  0.0474
  568SOL    HW1 2488   2.789   5.217   2.399  0.0198 -1.2712 -1.1686
  568SOL    HW2 2489   2.887   5.324   2.354 -1.6253  1.4992  1.5311
  569SOL     OW 2490   2.836   0.059   2.458  0.7837  0.5954  0.2984
  569SOL    HW1 2491   2.915   0.022   2.496 -0.4380 -1.6270  0.8877
  569SOL    HW2 2492   2.807  -0.006   2.394  0.5853  2.3842 -1.5572
  570SOL     OW 2493   5.581   0.674   3.444 -0.3928 -0.7202  0.3230
  570SOL    HW1 2494   5.498   0.657   3.400 -1.2071 -0.3442  1.6354
  570SOL    HW2 2495   5.600   0.594   3.492 -1.7540  0.2149  2.6483
  571SOL     OW 2496   4.593   5.300   2.945 -0.8250 -0.2130 -0.2941
  571SOL    HW1 2497   4.604   5.205   2.938  0.2999 -0.1365  0.3521
  571SOL    HW2 2498   4.500   5.311   2.963 -0.4193 -1.4149  3.2340
  572SOL     OW 2499   3.971   4.966   1.036 -0.3152  0.2355 -0.0463
  572SOL    HW1 2500   3.996   4.932   1.122  0.5176 -0.4617 -0.5440
  572SOL    HW2 2501   4.001   4.899   0.974  2.1933  2.2463 -1.1645
  573SOL     OW 2502   3.231   3.318   1.697  0.2246 -0.4486  0.3248
  573SOL    HW1 2503   3.286   3.392   1.670  1.2674 -0.3709  2.4412
  573SOL    HW2 2504   3.155   3.360   1.738 -0.1773 -0.5666 -0.2886
  574SOL     OW 2505   3.799   4.969   2.868  0.3005 -0.1241  0.0447
  574SOL    HW1 2506   3.756   5.024   2.934 -0.4993 -1.9942  1.1961
  574SOL    HW2 2507   3.730   4.909   2.839  1.0799 -0.4050 -1.3044
  575SOL     OW 2508   5.151   5.514   1.316 -0.5878  0.5797 -0.3875
  575SOL    HW1 2509   5.141   5.421   1.338 -1.3901  0.1072 -2.5225
  575SOL    HW2 2510   5.162   5.557   1.401 -1.0375 -1.3489  0.7214
  576SOL     OW 2511   4.100   3.565   2.285 -0.3990  0.2636 -0.4325
  576SOL    HW1 2512   4.165   3.572   2.355 -0.4669  0.2475 -0.3668
  576SOL    HW2 2513   4.035   3.504   2.320  0.7950 -1.6614 -1.4640
  577SOL     OW 2514   4.207   4.461   4.071  0.4070 -0.0115  0.4885
  577SOL    HW1 2515   4.184   4.547   4.035 -0.5503 -0.7706 -0.8122
  577SOL    HW2 2516   4.302   4.461   4.074  0.4016  1.6718  2.0240
  578SOL     OW 2517   3.973   2.746   0.958 -0.3051 -0.8787 -0.3394
  578SOL    HW1 2518   3.879   2.761   0.968 -0.4617  0.0569 -2.4948
  578SOL    HW2 2519   4.012   2.783   1.037 -1.6201  0.5002 -0.2744
  579SOL     OW 2520   4.929   3.362   2.609 -0.1051 -0.1114  0.6431
  579SOL    HW1 2521   4.901   3.453   2.619 -2.6069 -0.8262  0.8475
  579SOL    HW2 2522   4.939   3.330   2.699 -2.7482 -0.9398  0.7402
  580SOL     OW 2523   4.985   0.800   3.571  0.0639  0.6498  0.3551
  580SOL    HW1 2524   4.973   0.883   3.526 -0.5947  1.1675  1.4309
  580SOL    HW2 2525   5.079   0.796   3.589 -0.1913  2.4016  2.5021
  581SOL     OW 2526   3.804   3.558   2.526  0.0055 -0.5570 -1.1612
  581SOL    HW1 2527   3.735   3.593   2.470 -1.4968 -3.4451 -1.2971
  581SOL    HW2 2528   3.835   3.480   2.481 -0.7136 -2.5691  1.5526
  582SOL     OW 2529   4.268   0.726   3.427  1.0145 -0.0938  0.0907
  582SOL    HW1 2530   4.330   0.759   3.362  1.2179 -1.6415 -0.5341
  582SOL    HW2 2531   4.270   0.631   3.417  0.4223 -0.3255  1.8084
  583SOL     OW 2532   4.750   0.713   2.339 -0.1267 -0.7056 -0.4611
  583SOL    HW1 2533   4.789   0.793   2.302  2.5609 -2.0630 -0.8069
  583SOL    HW2 2534   4.745   0.730   2.433 -3.2980  1.2724 -0.8438
  584SOL     OW 2535   3.370   4.403   2.916 -0.3900  0.5642 -0.8686
  584SOL    HW1 2536   3.344   4.472   2.854  0.1562  1.4373 -0.1579
  584SOL    HW2 2537   3.461   4.423   2.937 -0.9139  1.0463  1.1642
  585SOL     OW 2538   4.769   0.375   2.939 -0.1225  1.0062 -0.5481
  585SOL    HW1 2539   4.682   0.380   2.980 -0.1359  2.2981 -0.6867
  585SOL    HW2 2540   4.826   0.423   2.999  0.9831 -1.6471  0.6462
  586SOL     OW 2541   4.335   1.469   1.301 -0.4337  0.5195 -0.4467
  586SOL    HW1 2542   4.242   1.464   1.277 -0.6881 -1.2472  0.7355
  586SOL    HW2 2543   4.381   1.457   1.218 -1.2517  0.3456 -0.8969
  587SOL     OW 2544   4.806   0.294   3.234  0.1097 -0.0660 -1.0268
  587SOL    HW1 2545   4.878   0.355   3.251 -0.2509  0.1936 -0.3773
  587SOL    HW2 2546   4.807   0.234   3.308 -2.6696  2.2249  1.0795
  588SOL     OW 2547   4.997   3.432   2.327 -0.3931  0.6503 -0.0133
  588SOL    HW1 2548   4.996   3.407   2.419  3.1345 -0.3381 -0.0944
  588SOL    HW2 2549   4.937   3.370   2.285 -0.0250 -0.6693  1.3111
  589SOL     OW 2550   3.543   0.134   0.972  0.0285 -0.5621 -0.7882
  589SOL    HW1 2551   3.497   0.051   0.988 -0.6262 -0.2113 -0.8454
  589SOL    HW2 2552   3.628   0.121   1.013 -0.6587 -0.6696  0.6742
  590SOL     OW 2553   3.508   0.868   1.309 -0.0403 -0.1690 -0.7523
  590SOL    HW1 2554   3.559   0.928   1.255  1.1148  0.9033  1.3580
  590SOL    HW2 2555   3.574   0.818   1.357 -0.9944 -0.8292 -0.0908
  591SOL     OW 2556   4.426   2.042   2.142  0.4445  0.4164  0.2639
  591SOL    HW1 2557   4.507   2.000   2.171 -0.2723 -2.8522 -1.9561
  591SOL    HW2 2558   4.434   2.132   2.173  3.5271 -0.5162  2.7322
  592SOL     OW 2559   3.759   0.930   1.829  0.1947  0.0534 -0.1626
  592SOL    HW1 2560   3.805   0.929   1.913  1.9588  0.1978 -1.0812
  592SOL    HW2 2561   3.678   0.978   1.847  1.2949  1.5623  1.0979
  593SOL     OW 2562   4.403   5.019   3.749 -0.5516 -0.2083  0.8213
  593SOL    HW1 2563   4.419   5.096   3.803 -2.8826  0.1220  1.1336
  593SOL    HW2 2564   4.372   5.054   3.665 -0.8563 -0.8026  0.6802
  594SOL     OW 2565   4.673   5.139   3.932 -0.4541  0.2778 -0.1150
  594SOL    HW1 2566   4.579   5.157   3.944 -0.7647 -1.5787  0.5384
  594SOL    HW2 2567   4.699   5.195   3.858 -1.7575  1.7696  0.4846
  595SOL     OW 2568   5.047   5.257   1.310  0.2110 -0.1827 -0.0232
  595SOL    HW1 2569   5.009   5.245   1.223  0.3753  0.2467 -0.1565
  595SOL    HW2 2570   5.001   5.194   1.365 -1.5897  1.1708  0.1008
  596SOL     OW 2571   3.843   0.063   3.464 -0.3094  0.8656  0.5448
  596SOL    HW1 2572   3.855   0.077   3.558 -0.1649  1.0186  0.5031
  596SOL    HW2 2573   3.834  -0.032   3.456  2.6017  0.5211  0.3846
  597SOL     OW 2574   3.512   0.561   1.630  0.5679  0.1089  0.2999
  597SOL    HW1 2575   3.456   0.626   1.587  0.4362  0.0767  0.4197
  597SOL    HW2 2576   3.528   0.494   1.564 -4.1157 -2.8500  1.6736
  598SOL     OW 2577   3.430   4.167   1.886  0.3942  0.1967  0.0816
  598SOL    HW1 2578   3.469   4.247   1.850  0.8422 -0.2142 -0.3611
  598SOL    HW2 2579   3.404   4.192   1.975 -1.1600  1.3581 -0.6493
  599SOL     OW 2580   4.962   1.166   3.197  0.2713  0.3031 -0.2764
  599SOL    HW1 2581   4.893   1.232   3.198  0.2508  0.3023  1.4293
  599SOL    HW2 2582   5.044   1.216   3.193  0.3685  0.6699  3.1111
  600SOL     OW 2583   4.408   4.511   1.094  0.6741  0.8726 -0.1028
  600SOL    HW1 2584   4.354   4.473   1.024  1.2142 -1.2818  0.5698
  600SOL    HW2 2585   4.460   4.437   1.126  1.4665  2.1329  1.6292
  601SOL     OW 2586   3.689   0.252   3.332 -0.5743 -0.7682 -0.1970
  601SOL    HW1 2587   3.698   0.163   3.366 -2.8939 -0.9963 -0.0059
  601SOL    HW2 2588   3.595   0.267   3.331 -0.3219  1.0654 -1.8602
  602SOL     OW 2589   3.264   0.276   2.590 -0.0549  0.6983  0.6021
  602SOL    HW1 2590   3.172   0.284   2.562 -0.9853  0.2168  3.2350
  602SOL    HW2 2591   3.268   0.324   2.672  1.9940  0.3690  0.7442
  603SOL     OW 2592   3.554   0.192   1.918  0.4027 -0.0882 -0.6501
  603SOL    HW1 2593   3.496   0.268   1.905  2.0817  1.5732  0.8296
  603SOL    HW2 2594   3.591   0.174   1.832  2.2924  2.8542 -0.5957
  604SOL     OW 2595   0.631   0.190   3.050  0.6089  0.0412 -0.3587
  604SOL    HW1 2596   0.684   0.193   2.971 -0.6596  0.6493 -1.2196
  604SOL    HW2 2597   0.541   0.178   3.019  0.2352 -1.1348  1.0620
  605SOL     OW 2598   3.591   0.881   2.101 -0.7210  0.1493 -0.2494
  605SOL    HW1 2599   3.500   0.891   2.074 -0.2954  0.5532 -1.5918
  605SOL    HW2 2600   3.590   0.806   2.161 -2.0742  0.7574  0.5441
  606SOL     OW 2601   3.521   2.847   1.997 -0.3272  0.5379 -0.1670
  606SOL    HW1 2602   3.587   2.828   1.930  2.1936  0.4851  2.1776
  606SOL    HW2 2603   3.440   2.860   1.947  1.0668 -0.9431 -3.0808
  607SOL     OW 2604   4.457   0.360   1.874 -0.6454  0.3539  0.3383
  607SOL    HW1 2605   4.457   0.430   1.939 -2.8375 -0.9857  1.9268
  607SOL    HW2 2606   4.534   0.308   1.894  0.2044  1.4767  0.0614
  608SOL     OW 2607   3.890   5.719   0.977  0.2608  0.4866 -0.1834
  608SOL    HW1 2608   3.861   5.650   1.038 -0.3612 -1.4151 -2.4924
  608SOL    HW2 2609   3.985   5.709   0.973  0.1313 -0.5536 -0.8378
  609SOL     OW 2610   3.659   0.264   1.230 -0.4767 -0.1634 -0.2040
  609SOL    HW1 2611   3.741   0.217   1.219  0.2777  0.8966  0.7198
  609SOL    HW2 2612   3.654   0.322   1.154 -0.4122 -0.2891 -0.3039
  610SOL     OW 2613   4.591   1.673   2.112 -0.0366  0.4097  0.4288
  610SOL    HW1 2614   4.566   1.581   2.124 -2.4082  1.1400  1.7957
  610SOL    HW2 2615   4.636   1.675   2.028 -0.8017 -1.8320 -0.1080
  611SOL     OW 2616   3.754   4.826   3.333  0.4811 -0.6463 -0.2673
  611SOL    HW1 2617   3.809   4.750   3.316  0.7140 -0.7987  1.1005
  611SOL    HW2 2618   3.665   4.794   3.324  0.4838 -1.7654  2.7184
  612SOL     OW 2619   4.884   1.149   1.186  0.5505 -0.1654 -0.6327
  612SOL    HW1 2620   4.891   1.165   1.280 -0.9785 -0.6176 -0.4091
  612SOL    HW2 2621   4.959   1.194   1.148  1.0248  0.2770  0.7742
  613SOL     OW 2622   3.498   4.155   1.632 -0.5866  0.4819 -0.8217
  613SOL    HW1 2623   3.513   4.250   1.624 -0.1901  0.3653 -1.6036
  613SOL    HW2 2624   3.454   4.145   1.716 -0.0165  1.2917 -0.4034
  614SOL     OW 2625   3.675   3.741   2.294  0.6605  0.1725 -0.9194
  614SOL    HW1 2626   3.741   3.811   2.292  0.2880  0.5270 -1.1086
  614SOL    HW2 2627   3.613   3.770   2.361  0.0341  0.4605 -1.6207
  615SOL     OW 2628   4.362   5.724   0.719 -1.0059  0.1226  0.1676
  615SOL    HW1 2629   4.362   5.628   0.727 -2.5173  0.0533 -0.3005
  615SOL    HW2 2630   4.451   5.750   0.742 -0.7457 -1.3415  0.9805
  616SOL     OW 2631   2.901   3.522   1.618  0.8540 -0.6386 -0.1465
  616SOL    HW1 2632   2.910   3.517   1.713 -0.7503 -2.0367 -0.0281
  616SOL    HW2 2633   2.843   3.450   1.595  0.4268  0.2560 -2.0864
  617SOL     OW 2634   4.301   0.937   3.073  0.1070 -0.1750 -0.3439
  617SOL    HW1 2635   4.280   0.849   3.043 -1.1291  0.1544 -0.4802
  617SOL    HW2 2636   4.397   0.937   3.082 -0.0298 -2.3603  2.3022
  618SOL     OW 2637   4.286   5.728   1.279  0.0643  1.0113  0.1150
  618SOL    HW1 2638   4.211   5.668   1.286  0.7105 -0.0482 -1.4233
  618SOL    HW2 2639   4.310   5.747   1.369  0.7909 -2.3400  0.7913
  619SOL     OW 2640   3.964   0.225   0.961 -0.2545  0.0799  0.8227
  619SOL    HW1 2641   3.960   0.130   0.950 -1.9925  0.2849 -0.8057
  619SOL    HW2 2642   4.002   0.258   0.880 -0.5326  0.8250  0.9826
  620SOL     OW 2643   5.021   4.434   1.951  0.6452  0.4332 -0.1372
  620SOL    HW1 2644   5.013   4.457   2.043  0.0717  1.9701 -0.5351
  620SOL    HW2 2645   5.053   4.514   1.908 -0.1581  0.1053 -1.4225
  621SOL     OW 2646   4.851   0.643   3.169  0.6387 -0.0754 -0.7220
  621SOL    HW1 2647   4.942   0.619   3.186  0.4902 -0.0741  0.1073
  621SOL    HW2 2648   4.849   0.665   3.076  1.3525 -0.6635 -0.8872
  622SOL     OW 2649   3.050   3.906   2.148  0.2274 -0.0776  0.1717
  622SOL    HW1 2650   3.001   3.988   2.147  1.7726  1.0064  3.2254
  622SOL    HW2 2651   2.988   3.841   2.184 -0.2098  0.3034  0.1184
  623SOL     OW 2652   3.904   0.956   1.105  0.1839 -0.6611 -0.5283
  623SOL    HW1 2653   3.938   0.867   1.093  1.8938 -0.1783  0.4832
  623SOL    HW2 2654   3.809   0.946   1.098  0.2626 -2.7704  0.7065
  624SOL     OW 2655   3.687   3.178   1.996 -0.3349 -0.2513  0.9480
  624SOL    HW1 2656   3.762   3.120   2.006 -0.4537 -0.3778  1.1023
  624SOL    HW2 2657   3.611   3.120   1.997 -0.4679 -0.0722  1.3401
  625SOL     OW 2658   4.038   3.650   1.024  0.4653  0.2508  0.6800
  625SOL    HW1 2659   4.030   3.577   1.086  0.2047 -0.0215  0.3270
  625SOL    HW2 2660   3.951   3.691   1.024 -0.3929 -1.3757 -1.5068
  626SOL     OW 2661   4.233   2.931   1.414  0.5405  0.1651 -0.0127
  626SOL    HW1 2662   4.260   2.877   1.489 -2.2086  1.1122  1.8088
  626SOL    HW2 2663   4.199   2.868   1.351  1.3806 -0.5307  0.2056
  627SOL     OW 2664   3.136   0.826   3.161 -0.0669  0.0118 -0.4747
  627SOL    HW1 2665   3.054   0.814   3.113  0.9199 -0.7165 -2.0696
  627SOL    HW2 2666   3.162   0.916   3.141 -0.3445  0.1633 -0.1660
  628SOL     OW 2667   3.464   5.611   1.281  0.1716  0.4985  0.1634
  628SOL    HW1 2668   3.428   5.565   1.205  0.2862 -0.9851  0.9665
  628SOL    HW2 2669   3.447   5.703   1.264  0.2764  0.2041 -1.7005
  629SOL     OW 2670   4.319   1.722   3.187  0.1221  0.4666 -0.7936
  629SOL    HW1 2671   4.374   1.777   3.243  1.9188  0.1005 -2.1367
  629SOL    HW2 2672   4.282   1.782   3.122  1.2226  0.2729 -1.6082
  630SOL     OW 2673   4.996   4.603   3.990  0.2637 -0.7741  0.0821
  630SOL    HW1 2674   5.014   4.522   4.038  0.4511 -0.1001  1.1965
  630SOL    HW2 2675   5.046   4.594   3.909  1.2521 -1.2824  0.7188
  631SOL     OW 2676   5.668   5.723   2.906  0.1878 -0.3236  0.0479
  631SOL    HW1 2677   5.737   5.744   2.969  0.1005 -2.5429  0.9953
  631SOL    HW2 2678   5.587   5.751   2.949  0.2525 -0.5007  0.2862
  632SOL     OW 2679   5.510   0.979   3.605 -0.4723  0.7828 -0.6749
  632SOL    HW1 2680   5.606   0.979   3.615 -0.4425  2.4744 -0.7241
  632SOL    HW2 2681   5.490   0.895   3.565  0.8905 -0.0575  0.3196
  633SOL     OW 2682   3.618   4.366   1.191  0.7115  0.6047 -0.0496
  633SOL    HW1 2683   3.555   4.438   1.186  1.8142  1.6189  0.0985
  633SOL    HW2 2684   3.573   4.291   1.152 -0.5896  1.2821  0.1047
  634SOL     OW 2685   4.718   5.423   1.442  0.3368  0.4833 -0.1821
  634SOL    HW1 2686   4.666   5.344   1.431 -0.3740  0.9359 -0.1343
  634SOL    HW2 2687   4.663   5.493   1.407  0.4159  1.1385  0.9591
  635SOL     OW 2688   4.029   4.697   0.963 -0.2970  0.5398  0.2660
  635SOL    HW1 2689   4.125   4.695   0.961 -0.2850 -1.1884  1.0846
  635SOL    HW2 2690   4.006   4.682   1.055 -1.3648 -0.4535 -0.1424
  636SOL     OW 2691   3.339   1.661   2.851  0.3982  0.0418 -0.0567
  636SOL    HW1 2692   3.249   1.646   2.879  0.3551  1.3607  0.5837
  636SOL    HW2 2693   3.393   1.633   2.925  0.3042  3.0478  1.2912
  637SOL     OW 2694   5.091   4.039   2.681 -0.0439  0.5290 -0.2006
  637SOL    HW1 2695   5.105   3.988   2.760 -0.7890 -0.9504 -0.9740
  637SOL    HW2 2696   5.133   4.123   2.698 -1.5831  0.8945  2.4146
  638SOL     OW 2697   4.201   3.954   3.028  0.1947  0.0939 -0.3070
  638SOL    HW1 2698   4.129   3.958   2.965 -0.1671 -0.6509  0.0469
  638SOL    HW2 2699   4.161   3.919   3.108  0.7537  0.5467  0.1852
  639SOL     OW 2700   4.553   0.150   0.867 -0.6074  0.6842 -0.9649
  639SOL    HW1 2701   4.469   0.192   0.885  0.2918  1.2980  2.4742
  639SOL    HW2 2702   4.599   0.150   0.951  2.6735 -0.0645 -2.5787
  640SOL     OW 2703   3.913   3.178   1.734  0.3288  0.0512  0.0997
  640SOL    HW1 2704   3.824   3.142   1.741 -0.0995  1.1673  0.6782
  640SOL    HW2 2705   3.902   3.271   1.754  1.2848  0.6645 -1.9526
  641SOL     OW 2706   3.550   5.604   3.559 -0.0910  0.2665  0.1133
  641SOL    HW1 2707   3.545   5.611   3.654 -0.4782  2.0204  0.0044
  641SOL    HW2 2708   3.623   5.544   3.543  1.4563  1.6509  1.5131
  642SOL     OW 2709   3.216   5.517   3.377  0.0648 -0.0624 -0.3142
  642SOL    HW1 2710   3.194   5.576   3.305  0.2120  0.0603 -0.2599
  642SOL    HW2 2711   3.136   5.466   3.392  0.9085 -2.1799 -2.5236
  643SOL     OW 2712   4.168   0.651   1.697  0.4454  0.3461 -0.5580
  643SOL    HW1 2713   4.095   0.589   1.696 -0.6707  1.5600  1.3370
  643SOL    HW2 2714   4.129   0.736   1.678  0.8555  1.3977  2.6623
  644SOL     OW 2715   2.724   4.750   2.271 -0.4068  0.0842  0.3893
  644SOL    HW1 2716   2.724   4.655   2.262 -1.1446  0.1137 -0.0045
  644SOL    HW2 2717   2.632   4.773   2.284 -0.2573  0.7623  0.2721
  645SOL     OW 2718   5.369   0.965   2.413  0.5706  0.4170 -0.7043
  645SOL    HW1 2719   5.328   1.050   2.430 -0.5914 -0.4089  1.0084
  645SOL    HW2 2720   5.422   0.949   2.491  2.1821  0.3167 -1.7851
  646SOL     OW 2721   3.738   0.674   1.359  0.0344  0.4171  0.5532
  646SOL    HW1 2722   3.774   0.603   1.305  1.1474  0.1498  1.6027
  646SOL    HW2 2723   3.792   0.674   1.438  0.0016  2.3761  0.6317
  647SOL     OW 2724   3.489   1.134   2.282 -0.6292 -0.1721  0.5818
  647SOL    HW1 2725   3.476   1.076   2.357 -1.1273 -0.5964  0.1682
  647SOL    HW2 2726   3.513   1.076   2.210  0.8927  0.3216  0.6356
  648SOL     OW 2727   4.988   1.270   2.776 -0.2243 -0.1551 -0.4410
  648SOL    HW1 2728   5.047   1.199   2.750 -1.2103 -0.8635 -0.7944
  648SOL    HW2 2729   5.006   1.340   2.714  2.3704  0.8410  1.2437
  649SOL     OW 2730   5.040   0.449   4.321  0.2371 -0.3400 -0.4705
  649SOL    HW1 2731   5.078   0.376   4.273  0.9083 -0.4731  0.2411
  649SOL    HW2 2732   5.061   0.431   4.412 -1.0613 -0.1215 -0.1073
  650SOL     OW 2733   3.098   5.468   2.007  0.3343 -0.0189 -0.5549
  650SOL    HW1 2734   3.026   5.520   1.970 -1.2001 -1.2013  0.6149
  650SOL    HW2 2735   3.060   5.427   2.085  2.9198  1.0378  1.4040
  651SOL     OW 2736   4.653   0.145   1.113  0.2353 -0.4886  0.0269
  651SOL    HW1 2737   4.648   0.239   1.127 -1.1729 -0.2283 -1.8669
  651SOL    HW2 2738   4.745   0.123   1.133  0.5977  1.2529  0.4841
  652SOL     OW 2739   3.193   2.809   2.201  1.0379 -0.0186 -0.0920
  652SOL    HW1 2740   3.282   2.832   2.229  0.3395  1.6072  0.9320
  652SOL    HW2 2741   3.140   2.884   2.226 -0.7799 -1.2870  0.0300
  653SOL     OW 2742   3.250   2.898   1.888  0.1359 -0.6914 -0.0193
  653SOL    HW1 2743   3.166   2.875   1.929 -0.2003  2.1967  1.1485
  653SOL    HW2 2744   3.228   2.912   1.796 -1.1938  1.8028  0.5702
  654SOL     OW 2745   3.232   5.194   3.184 -0.2523 -0.4578 -0.0264
  654SOL    HW1 2746   3.259   5.286   3.184 -1.9134  0.1398  2.4487
  654SOL    HW2 2747   3.263   5.160   3.269 -0.5785 -1.8898 -0.4499
  655SOL     OW 2748   4.380   4.744   1.370  0.0031  0.3175 -0.3396
  655SOL    HW1 2749   4.390   4.710   1.281  1.3587 -0.4797  0.0912
  655SOL    HW2 2750   4.317   4.686   1.411  0.9693 -0.6467 -0.1565
  656SOL     OW 2751   4.923   4.519   4.264  0.1132  0.0505  0.3566
  656SOL    HW1 2752   4.841   4.480   4.292  0.6777 -0.6281  1.1181
  656SOL    HW2 2753   4.900   4.571   4.187 -1.2204  0.7661  1.2029
  657SOL     OW 2754   4.585   0.694   1.526 -0.1251  0.0607  0.0793
  657SOL    HW1 2755   4.533   0.626   1.569 -0.9218 -0.1304 -1.1227
  657SOL    HW2 2756   4.614   0.653   1.444 -0.3817  1.0651 -0.5258
  658SOL     OW 2757   4.147   5.466   3.762 -0.1673  0.2350  0.8611
  658SOL    HW1 2758   4.181   5.467   3.851 -0.2706  1.2445  0.8998
  658SOL    HW2 2759   4.059   5.504   3.769 -0.6767 -0.8242  0.5084
  659SOL     OW 2760   5.383   0.014   3.564 -0.6225 -0.6241 -0.5874
  659SOL    HW1 2761   5.406  -0.044   3.491 -0.0200 -0.2974 -0.6615
  659SOL    HW2 2762   5.467   0.036   3.604 -0.5382  2.3760 -2.1851
  660SOL     OW 2763   3.842   5.723   3.770 -0.1125  0.2506  0.5431
  660SOL    HW1 2764   3.911   5.714   3.836 -0.2899 -1.3663  0.5429
  660SOL    HW2 2765   3.844   5.640   3.722 -0.0734  1.3448 -1.4324
  661SOL     OW 2766   3.318   5.310   1.353 -0.1016  1.1481  0.1018
  661SOL    HW1 2767   3.409   5.334   1.374 -1.0767  4.1695  1.4995
  661SOL    HW2 2768   3.301   5.232   1.405  1.6044  0.6515 -0.0136
  662SOL     OW 2769   4.443   3.313   2.456  0.1271 -0.5080  0.0915
  662SOL    HW1 2770   4.514   3.295   2.518  2.2202  1.2333 -1.6195
  662SOL    HW2 2771   4.469   3.395   2.413 -1.7943 -0.9956 -2.2162
  663SOL     OW 2772   4.428   3.511   2.098 -0.2156  0.4134 -0.0605
  663SOL    HW1 2773   4.469   3.525   2.183  0.5628 -1.9458  0.0028
  663SOL    HW2 2774   4.480   3.564   2.037 -0.2118  1.3881  0.7635
  664SOL     OW 2775   5.019   1.497   2.569 -0.1084  0.3540 -0.5389
  664SOL    HW1 2776   4.956   1.484   2.498 -1.7993  0.4576  0.8874
  664SOL    HW2 2777   5.052   1.585   2.556 -1.6148  0.9814 -0.3126
  665SOL     OW 2778   4.325   4.236   0.986  0.1279  0.1299 -0.5014
  665SOL    HW1 2779   4.393   4.197   0.931 -0.4542  0.8583 -1.7883
  665SOL    HW2 2780   4.243   4.214   0.942 -0.3168  1.2384 -0.2576
  666SOL     OW 2781   4.722   4.479   1.710 -0.4716  0.7162  0.3414
  666SOL    HW1 2782   4.643   4.532   1.720  0.2672  2.8123 -3.2358
  666SOL    HW2 2783   4.790   4.541   1.683  1.4808 -1.4975 -0.2398
  667SOL     OW 2784   5.223   5.414   2.363 -0.1506  0.6840  0.5072
  667SOL    HW1 2785   5.159   5.485   2.372  1.5534  2.5029 -0.8838
  667SOL    HW2 2786   5.218   5.367   2.447 -2.1183  1.7578  1.0550
  668SOL     OW 2787   3.323   4.218   2.141  0.4476 -0.2935 -0.0713
  668SOL    HW1 2788   3.282   4.305   2.135 -0.1247 -0.6213 -1.0652
  668SOL    HW2 2789   3.269   4.171   2.204  0.3785 -0.1380 -0.0132
  669SOL     OW 2790   3.956   4.239   3.219 -0.2310 -0.2788 -1.1003
  669SOL    HW1 2791   3.892   4.305   3.192  0.4932  0.6559 -0.5877
  669SOL    HW2 2792   4.036   4.261   3.171  0.5952  0.4360  0.5211
  670SOL     OW 2793   3.668   0.733   3.552  0.2398  0.6587 -0.3376
  670SOL    HW1 2794   3.595   0.773   3.504  0.6387  0.2142 -1.3379
  670SOL    HW2 2795   3.655   0.760   3.643 -2.5497 -1.3810 -0.0171
  671SOL     OW 2796   5.376   0.458   3.023  0.1385 -0.4226  0.2883
  671SOL    HW1 2797   5.463   0.442   2.984  0.3906 -2.6419  1.5853
  671SOL    HW2 2798   5.315   0.441   2.951  0.7298  0.4475 -0.4454
  672SOL     OW 2799   2.654   5.201   1.454  0.1474  0.2981  0.1148
  672SOL    HW1 2800   2.716   5.195   1.381  0.2519  2.6654 -0.0695
  672SOL    HW2 2801   2.702   5.166   1.529  0.8415 -0.1024 -0.4956
  673SOL     OW 2802   5.203   3.920   2.436  0.6495 -0.1182 -0.8474
  673SOL    HW1 2803   5.199   3.963   2.522  0.4939 -0.2490 -0.7892
  673SOL    HW2 2804   5.173   3.831   2.453  0.8777 -0.2226 -0.9882
  674SOL     OW 2805   5.010   3.935   3.211 -0.1446  0.0579  0.0225
  674SOL    HW1 2806   5.056   3.854   3.190 -0.1200  0.5936 -2.2103
  674SOL    HW2 2807   5.043   3.960   3.298  1.0102 -1.4895  0.0644
  675SOL     OW 2808   3.976   1.360   2.154 -0.0216  0.0947  0.2060
  675SOL    HW1 2809   3.981   1.387   2.062 -1.0109 -0.9865 -0.1860
  675SOL    HW2 2810   4.054   1.306   2.167 -0.4291 -0.6373 -0.3202
  676SOL     OW 2811   5.216   0.733   3.370  0.2862  0.0566 -0.0800
  676SOL    HW1 2812   5.134   0.782   3.374  2.1854  3.5038  0.7967
  676SOL    HW2 2813   5.212   0.674   3.445 -1.0637  0.6808  0.3790
  677SOL     OW 2814   3.576   0.502   3.975  0.5736 -0.3885 -0.1593
  677SOL    HW1 2815   3.572   0.489   3.881 -0.5633 -0.2573 -0.1360
  677SOL    HW2 2816   3.492   0.471   4.008  0.4858  0.6450  0.6642
  678SOL     OW 2817   3.885   0.966   3.553 -0.0045  0.0220 -0.7276
  678SOL    HW1 2818   3.857   0.950   3.643 -1.1512 -1.2487 -1.2691
  678SOL    HW2 2819   3.980   0.976   3.559 -0.2335  1.9181  0.8497
  679SOL     OW 2820   3.379   0.767   2.969 -0.1097  0.1851 -0.7182
  679SOL    HW1 2821   3.440   0.752   3.042 -0.9529 -2.1552 -0.4128
  679SOL    HW2 2822   3.294   0.781   3.011 -0.6711 -1.5377 -1.1821
  680SOL     OW 2823   3.362   1.360   2.457  0.1615  0.3260  0.5604
  680SOL    HW1 2824   3.372   1.293   2.525  3.0207 -0.2493 -0.2742
  680SOL    HW2 2825   3.450   1.370   2.421 -0.7977  2.3505 -1.4444
  681SOL     OW 2826   3.750   1.831   3.260  1.0655 -0.3519  0.5687
  681SOL    HW1 2827   3.691   1.803   3.189  1.4508 -1.0496  0.5188
  681SOL    HW2 2828   3.837   1.805   3.230  1.8539  3.2476 -0.7138
  682SOL     OW 2829   4.911   2.166   1.831 -0.9005  0.1848  0.1700
  682SOL    HW1 2830   4.933   2.099   1.766 -0.5657 -1.0040  1.4786
  682SOL    HW2 2831   4.988   2.223   1.833 -0.3066 -0.6142  0.5568
  683SOL     OW 2832   3.312   0.983   2.069 -0.6255  0.4580 -0.3225
  683SOL    HW1 2833   3.290   0.898   2.107  2.6190 -2.5405 -4.1812
  683SOL    HW2 2834   3.247   0.995   1.999 -1.3535  1.5276  0.4913
  684SOL     OW 2835   3.967   3.591   0.716 -0.1699 -0.5782  0.6086
  684SOL    HW1 2836   4.017   3.646   0.777 -0.0878 -0.6272  0.5864
  684SOL    HW2 2837   3.998   3.502   0.734  0.8146 -0.4610 -0.4062
  685SOL     OW 2838   3.398   3.506   2.871 -0.4362  0.2537  0.1887
  685SOL    HW1 2839   3.327   3.565   2.845 -0.5401 -0.2470 -0.7180
  685SOL    HW2 2840   3.478   3.557   2.857 -0.6089  0.8527  1.3045
  686SOL     OW 2841   3.010   3.432   1.870 -0.7520 -0.0306  0.2553
  686SOL    HW1 2842   3.048   3.395   1.950 -0.4963  1.5160  0.8986
  686SOL    HW2 2843   3.008   3.527   1.887 -1.4018  0.2542 -1.2791
  687SOL     OW 2844   3.230   5.134   2.892  0.0205 -0.5607 -0.0153
  687SOL    HW1 2845   3.247   5.167   2.980 -0.9950  0.6943 -0.2576
  687SOL    HW2 2846   3.290   5.060   2.882  0.8267 -0.1341  1.3746
  688SOL     OW 2847   4.645   3.366   1.924 -0.1508 -0.4047  0.2683
  688SOL    HW1 2848   4.666   3.449   1.880 -0.0044 -1.0341 -0.8960
  688SOL    HW2 2849   4.549   3.363   1.923 -0.1746 -1.4683 -2.1861
  689SOL     OW 2850   4.057   1.488   1.257 -0.0583  0.6385  1.1929
  689SOL    HW1 2851   4.047   1.428   1.183  3.3634  2.5837 -1.1220
  689SOL    HW2 2852   3.979   1.543   1.254 -0.2483  0.3159 -0.6591
  690SOL     OW 2853   4.127   0.496   2.078 -0.0536 -0.0654  0.4714
  690SOL    HW1 2854   4.219   0.476   2.058 -0.2529 -1.5335  0.9698
  690SOL    HW2 2855   4.127   0.591   2.092  0.8808  0.4212 -2.2064
  691SOL     OW 2856   4.437   3.352   3.795 -0.4978 -0.0429 -0.5802
  691SOL    HW1 2857   4.525   3.375   3.825  0.0553 -1.3470 -1.1102
  691SOL    HW2 2858   4.432   3.258   3.808 -2.5287  0.2463  1.1923
  692SOL     OW 2859   5.325   5.001   3.602  0.5598 -0.1599 -0.2297
  692SOL    HW1 2860   5.398   5.062   3.605  0.4948  0.0798 -2.1580
  692SOL    HW2 2861   5.360   4.919   3.636  0.0586  1.3252  4.6513
  693SOL     OW 2862   5.698   0.175   2.497  0.1003 -0.6550  0.4270
  693SOL    HW1 2863   5.719   0.158   2.589  0.1392  0.8695  0.7152
  693SOL    HW2 2864   5.778   0.154   2.450 -0.2284 -2.4412  0.5899
  694SOL     OW 2865   3.005   4.001   1.430  0.0856  0.0717 -0.3362
  694SOL    HW1 2866   2.954   3.920   1.436  2.5561 -1.7374 -1.6566
  694SOL    HW2 2867   2.954   4.058   1.372 -3.6094  1.2365  3.5215
  695SOL     OW 2868   5.098   1.118   4.161 -0.0907 -0.6902  0.6603
  695SOL    HW1 2869   5.054   1.042   4.121 -0.8380 -0.0139  0.1754
  695SOL    HW2 2870   5.128   1.085   4.246  0.2900 -1.7517  0.1352
  696SOL     OW 2871   4.335   4.309   2.931  0.3010 -0.2127  0.1371
  696SOL    HW1 2872   4.381   4.266   3.003  0.8043 -0.5821 -0.3985
  696SOL    HW2 2873   4.285   4.379   2.974 -1.8080 -2.2604  1.2595
  697SOL     OW 2874   3.320   5.349   1.093 -0.2659  0.1091  1.3802
  697SOL    HW1 2875   3.299   5.339   1.186 -3.6942 -1.1398  0.6097
  697SOL    HW2 2876   3.358   5.265   1.068 -1.6015 -0.4426  1.1646
  698SOL     OW 2877   4.098   5.568   1.392 -0.1897 -0.0761  0.0213
  698SOL    HW1 2878   4.090   5.473   1.384  2.8984 -0.4619  0.3948
  698SOL    HW2 2879   4.065   5.587   1.480 -2.3289 -0.5093 -0.6308
  699SOL     OW 2880   3.438   1.815   3.300  0.5624 -0.1419  0.7094
  699SOL    HW1 2881   3.438   1.875   3.225  1.8129 -0.9900 -0.0176
  699SOL    HW2 2882   3.531   1.806   3.322  0.4516 -2.0402  0.5727
  700SOL     OW 2883   5.013   4.567   2.498 -0.2866 -0.5623 -0.7176
  700SOL    HW1 2884   4.947   4.636   2.504 -0.0843 -0.1046 -2.8806
  700SOL    HW2 2885   5.091   4.605   2.540 -0.5243  0.0734 -0.8322
  701SOL     OW 2886   5.096   3.691   3.088 -0.9144 -0.4702  0.3235
  701SOL    HW1 2887   5.028   3.667   3.025  0.3699 -0.8213 -0.9674
  701SOL    HW2 2888   5.155   3.616   3.089  0.4439  0.5791  0.0435
  702SOL     OW 2889   3.168   4.353   3.115 -0.5251  0.2597 -0.0696
  702SOL    HW1 2890   3.170   4.438   3.071  1.1298  0.0933 -0.3586
  702SOL    HW2 2891   3.219   4.295   3.059 -2.3822 -1.2142 -0.3598
  703SOL     OW 2892   2.988   4.255   2.697  0.1277  0.3411  0.3986
  703SOL    HW1 2893   2.945   4.274   2.781 -0.2775  0.8789  0.0772
  703SOL    HW2 2894   3.057   4.192   2.719 -0.2095  0.1998  1.0766
  704SOL     OW 2895   3.074   0.749   1.959  0.4456  0.3123  0.2527
  704SOL    HW1 2896   3.032   0.672   1.996  1.7347 -0.6200 -0.1813
  704SOL    HW2 2897   3.166   0.740   1.982  0.5710  1.9108  0.4981
  705SOL     OW 2898   3.156   1.929   2.185 -0.0535  0.1623 -0.4317
  705SOL    HW1 2899   3.123   1.839   2.181  1.3433 -0.3968  0.0405
  705SOL    HW2 2900   3.224   1.926   2.251  1.5944  1.0446 -2.0195
  706SOL     OW 2901   4.245   5.310   3.309  0.2041 -0.2952 -0.1014
  706SOL    HW1 2902   4.257   5.226   3.352 -0.3763  1.0354  2.9250
  706SOL    HW2 2903   4.330   5.330   3.269  0.4021 -2.1427 -0.6795
  707SOL     OW 2904   3.529   4.086   0.492  0.4714 -0.2525 -0.0052
  707SOL    HW1 2905   3.517   4.056   0.582 -2.7459  0.1204 -0.1914
  707SOL    HW2 2906   3.506   4.010   0.439  1.9417 -0.3378 -0.5622
  708SOL     OW 2907   5.675   0.835   2.281  0.0363  0.6843  0.3529
  708SOL    HW1 2908   5.683   0.821   2.376  1.5273 -2.3176 -0.0866
  708SOL    HW2 2909   5.597   0.785   2.257  0.3419  0.4476 -0.1479
  709SOL     OW 2910   5.068   5.652   4.289 -0.2846 -0.0354 -1.1146
  709SOL    HW1 2911   4.993   5.629   4.235 -0.4888  0.7704 -1.1893
  709SOL    HW2 2912   5.143   5.643   4.229  0.2184 -4.2467 -0.1915
  710SOL     OW 2913   4.391   5.291   1.012  0.0257 -0.8089  0.2746
  710SOL    HW1 2914   4.367   5.326   1.098 -1.5298 -2.7401  0.6975
  710SOL    HW2 2915   4.447   5.216   1.032  1.0618 -0.2709 -0.5032
  711SOL     OW 2916   4.373   5.023   3.426  0.1061 -0.1712  0.7755
  711SOL    HW1 2917   4.350   4.931   3.412  1.4537 -0.5696  1.0064
  711SOL    HW2 2918   4.458   5.033   3.383 -0.2954  1.1258  0.2464
  712SOL     OW 2919   3.683   2.806   1.787  0.1912  0.0709  0.7378
  712SOL    HW1 2920   3.699   2.714   1.806 -0.4971 -0.6836 -1.8767
  712SOL    HW2 2921   3.768   2.840   1.760  0.1415 -0.2417  0.1729
  713SOL     OW 2922   3.373   3.156   2.239 -0.1095  0.3753 -0.2571
  713SOL    HW1 2923   3.291   3.117   2.210  1.0787 -0.3352 -3.0014
  713SOL    HW2 2924   3.364   3.249   2.219  0.2413  0.0742 -1.9135
  714SOL     OW 2925   3.714   3.934   2.545  0.2176  0.2338 -0.0073
  714SOL    HW1 2926   3.788   3.924   2.605 -1.1578 -0.6366  1.6325
  714SOL    HW2 2927   3.751   3.916   2.458  2.0992  0.7332  0.6388
  715SOL     OW 2928   5.558   0.767   3.094 -0.2170  0.0623  0.4600
  715SOL    HW1 2929   5.631   0.783   3.154  0.4237 -1.3285  0.1127
  715SOL    HW2 2930   5.480   0.786   3.146  0.3663  1.2598  0.9461
  716SOL     OW 2931   4.103   3.927   1.699 -0.3567  0.6655  0.4371
  716SOL    HW1 2932   4.053   3.849   1.723  0.9041 -0.0681  0.7566
  716SOL    HW2 2933   4.097   3.984   1.776 -1.6978  1.1316  0.0171
  717SOL     OW 2934   4.085   4.204   0.887 -0.3633 -0.4664  0.0477
  717SOL    HW1 2935   4.054   4.292   0.869 -1.9184 -0.8751  0.5026
  717SOL    HW2 2936   4.012   4.147   0.860  1.9892 -1.9700 -3.9689
  718SOL     OW 2937   5.298   4.708   2.235  1.1942 -0.4663  0.0451
  718SOL    HW1 2938   5.358   4.750   2.173  1.5385  1.2871  1.4705
  718SOL    HW2 2939   5.219   4.692   2.184  1.2874  1.3753 -0.7680
  719SOL     OW 2940   5.235   0.219   2.320  0.4173  0.1357  0.2582
  719SOL    HW1 2941   5.299   0.209   2.249  0.7722  2.2243  0.2317
  719SOL    HW2 2942   5.285   0.258   2.391 -0.4250  0.0289  0.9164
  720SOL     OW 2943   4.534   4.892   4.382  0.1585 -0.2562 -0.5703
  720SOL    HW1 2944   4.596   4.829   4.345  1.4899  0.1543  0.8497
  720SOL    HW2 2945   4.465   4.838   4.419  1.0381 -0.8993  0.1984
  721SOL     OW 2946   4.974   2.353   2.091  0.2403  0.3278 -0.3847
  721SOL    HW1 2947   5.003   2.300   2.166 -0.6067 -0.2534 -0.4633
  721SOL    HW2 2948   4.915   2.296   2.042 -0.8445  1.3986 -0.3723
  722SOL     OW 2949   5.581   5.084   3.506  0.4343  0.0747  0.2832
  722SOL    HW1 2950   5.672   5.073   3.534  0.2191 -1.7702  0.3898
  722SOL    HW2 2951   5.581   5.165   3.456  2.2293 -0.0947 -0.0638
  723SOL     OW 2952   4.922   1.784   1.550 -0.1173  0.2891 -0.1946
  723SOL    HW1 2953   4.845   1.800   1.604 -0.8091 -2.6417 -0.1427
  723SOL    HW2 2954   4.888   1.742   1.471  1.2353  0.9561 -1.1764
  724SOL     OW 2955   4.388   1.714   1.656 -0.1642 -0.3710 -0.7266
  724SOL    HW1 2956   4.417   1.632   1.694  1.5542  0.4383 -0.2101
  724SOL    HW2 2957   4.393   1.777   1.728 -0.9407  0.3049 -1.2404
  725SOL     OW 2958   3.370   0.424   1.861  0.4131  0.1469 -0.5094
  725SOL    HW1 2959   3.452   0.474   1.865 -0.4302  1.5007  1.4640
  725SOL    HW2 2960   3.328   0.453   1.780  0.0376  2.5632  0.4947
  726SOL     OW 2961   3.224   1.669   2.110  0.0899 -0.4920 -0.0959
  726SOL    HW1 2962   3.303   1.700   2.155 -0.7834  0.5316  0.8260
  726SOL    HW2 2963   3.191   1.598   2.166 -1.5879  1.4814  1.6440
  727SOL     OW 2964   3.824   2.522   1.343 -0.2504 -0.2836  0.1111
  727SOL    HW1 2965   3.860   2.440   1.379  0.0704  0.1873  0.8959
  727SOL    HW2 2966   3.767   2.555   1.413 -1.7514 -0.7081 -0.8782
  728SOL     OW 2967   5.605   5.482   2.244 -0.1286  0.2875  0.0840
  728SOL    HW1 2968   5.542   5.411   2.251 -0.0376  0.1939 -0.0469
  728SOL    HW2 2969   5.563   5.545   2.185  0.1869 -0.0889 -0.5629
  729SOL     OW 2970   1.343   2.173   3.680 -0.6966 -0.0422 -0.2291
  729SOL    HW1 2971   1.384   2.147   3.763  0.5731  0.5039 -0.6645
  729SOL    HW2 2972   1.363   2.101   3.620 -0.5009  0.1542 -0.4019
  730SOL     OW 2973   4.183   0.478   0.304  0.0414 -0.4464  0.4277
  730SOL    HW1 2974   4.187   0.551   0.243  0.2430 -0.9301 -0.1428
  730SOL    HW2 2975   4.251   0.418   0.274  3.0015  1.0773  3.4461
  731SOL     OW 2976   3.209   4.063   2.673  0.4004  0.0677  0.1379
  731SOL    HW1 2977   3.139   4.032   2.730  1.5110 -3.7517 -0.2974
  731SOL    HW2 2978   3.280   4.000   2.685  2.6745  2.0459 -1.6684
  732SOL     OW 2979   3.852   5.484   3.643  0.8314 -0.4878  0.8060
  732SOL    HW1 2980   3.870   5.394   3.668  1.7892 -0.8497 -0.9641
  732SOL    HW2 2981   3.826   5.478   3.551  0.0599  0.9663  0.8994
  733SOL     OW 2982   5.549   5.119   4.083  0.1629 -0.1181 -0.9593
  733SOL    HW1 2983   5.597   5.037   4.087  0.2111 -0.1319 -1.8062
  733SOL    HW2 2984   5.573   5.165   4.164 -0.3626 -1.1987 -0.1613
  734SOL     OW 2985   4.348   5.441   0.787 -0.0021 -0.0221 -0.2454
  734SOL    HW1 2986   4.253   5.455   0.783  0.2869  2.3159 -0.4863
  734SOL    HW2 2987   4.360   5.375   0.855 -1.8167 -0.6493 -0.4775
  735SOL     OW 2988   3.966   0.828   2.110  0.1490 -0.2865 -0.0230
  735SOL    HW1 2989   3.930   0.896   2.166 -0.4212 -0.6224  0.0201
  735SOL    HW2 2990   4.060   0.848   2.106 -0.1349  0.9496 -0.6590
  736SOL     OW 2991   4.784   0.933   1.438 -0.2495  0.1326 -0.5755
  736SOL    HW1 2992   4.837   0.973   1.507 -1.2529 -1.9567  1.5538
  736SOL    HW2 2993   4.705   0.902   1.483 -0.2152 -2.8235 -2.2607
  737SOL     OW 2994   5.030   1.879   2.326  0.2618  0.6139  1.1765
  737SOL    HW1 2995   4.995   1.790   2.317  1.1574  0.4783 -4.4303
  737SOL    HW2 2996   5.125   1.866   2.331  0.3481  1.2971  1.4047
  738SOL     OW 2997   4.364   4.797   3.631 -0.0975  0.0185  0.3271
  738SOL    HW1 2998   4.400   4.880   3.665 -0.6174  0.6230 -0.5613
  738SOL    HW2 2999   4.437   4.757   3.584 -0.4578  1.1092 -1.2303
  739SOL     OW 3000   3.302   5.395   1.727 -0.9172 -0.3669 -0.4142
  739SOL    HW1 3001   3.348   5.313   1.745  1.0861  0.5556 -1.0486
  739SOL    HW2 3002   3.364   5.446   1.674 -1.6896  1.9462  0.7722
  740SOL     OW 3003   4.536   3.547   2.339 -0.1061  0.4840  0.7251
  740SOL    HW1 3004   4.625   3.577   2.316  0.9819 -0.4039  3.3619
  740SOL    HW2 3005   4.498   3.621   2.386 -1.7383  1.7122 -2.2257
  741SOL     OW 3006   2.827   4.286   1.605 -0.4304 -0.3055 -0.3553
  741SOL    HW1 3007   2.894   4.343   1.568  0.3634 -1.0444 -0.0835
  741SOL    HW2 3008   2.783   4.341   1.671 -0.6634  0.4410 -1.1132
  742SOL     OW 3009   4.743   3.891   3.001  0.4427  0.2724 -0.0735
  742SOL    HW1 3010   4.751   3.799   3.028  0.3172  0.7416  1.7313
  742SOL    HW2 3011   4.661   3.895   2.953 -0.0208 -0.4129  0.6285
  743SOL     OW 3012   3.747   0.710   1.657  0.3826  0.2640 -0.1571
  743SOL    HW1 3013   3.728   0.792   1.703 -0.8840  0.4301 -0.9204
  743SOL    HW2 3014   3.663   0.664   1.654  0.2560  0.5051 -2.7375
  744SOL     OW 3015   2.790   5.671   2.863 -0.8679 -0.0723  0.1013
  744SOL    HW1 3016   2.729   5.597   2.855 -0.2823 -0.7435  1.4592
  744SOL    HW2 3017   2.870   5.632   2.897  0.2200  0.8697 -1.2669
  745SOL     OW 3018   3.899   3.332   2.359  0.3971 -0.0969 -0.1356
  745SOL    HW1 3019   3.965   3.340   2.428  0.3669  0.4098 -0.1624
  745SOL    HW2 3020   3.901   3.240   2.334 -0.2515 -0.5067  1.2139
  746SOL     OW 3021   3.562   3.400   2.262 -0.6388  0.2467 -0.1115
  746SOL    HW1 3022   3.565   3.323   2.205  0.1318  0.1942 -0.0062
  746SOL    HW2 3023   3.650   3.407   2.297 -1.3137 -0.2342  1.7861
  747SOL     OW 3024   3.402   3.869   1.562  0.3345  0.4778 -0.0906
  747SOL    HW1 3025   3.410   3.885   1.468  1.2495  1.2151  0.0895
  747SOL    HW2 3026   3.435   3.950   1.602  2.3466 -0.7530  0.8788
  748SOL     OW 3027   4.536   1.622   1.433  0.0695  0.8191  0.0654
  748SOL    HW1 3028   4.464   1.626   1.496 -0.6989  2.0873 -0.8402
  748SOL    HW2 3029   4.502   1.565   1.363  0.2827  0.7237  0.0395
  749SOL     OW 3030   3.053   0.155   3.253 -1.1142 -0.1293 -0.3082
  749SOL    HW1 3031   3.084   0.068   3.230  0.0297  0.7250 -2.1708
  749SOL    HW2 3032   2.957   0.148   3.251 -1.0410 -1.0478 -1.6552
  750SOL     OW 3033   3.105   4.318   1.808 -0.5414 -0.3621  0.3535
  750SOL    HW1 3034   3.011   4.325   1.793 -0.5529  1.6738  1.0700
  750SOL    HW2 3035   3.134   4.247   1.751 -2.8331 -2.6061  1.7703
  751SOL     OW 3036   3.727   3.484   1.947  0.3054  0.1273  0.1656
  751SOL    HW1 3037   3.822   3.475   1.958  0.3178  0.6927  0.5703
  751SOL    HW2 3038   3.693   3.396   1.960  0.5780  0.2727  2.1766
  752SOL     OW 3039   3.063   5.141   1.866  0.1455 -0.0243 -0.2016
  752SOL    HW1 3040   3.039   5.214   1.810  0.2190  0.4617  0.3923
  752SOL    HW2 3041   2.980   5.095   1.883 -0.0009  0.2956 -0.0499
  753SOL     OW 3042   3.981   1.129   1.788  0.1344  0.1311 -0.7366
  753SOL    HW1 3043   4.060   1.171   1.823  2.6730 -2.9444 -2.1973
  753SOL    HW2 3044   3.912   1.194   1.799  3.1541  3.6781 -0.7954
  754SOL     OW 3045   4.601   5.041   3.291  0.5478 -0.1136 -0.5598
  754SOL    HW1 3046   4.648   5.058   3.209 -0.4352 -1.9115 -1.5627
  754SOL    HW2 3047   4.663   5.064   3.360  1.1133  2.2823 -1.7551
  755SOL     OW 3048   3.131   3.163   1.941 -0.5275  0.0057  0.0201
  755SOL    HW1 3049   3.157   3.078   1.906 -0.6665  0.3133 -0.8716
  755SOL    HW2 3050   3.200   3.223   1.912 -1.2194  0.4750 -0.7133
  756SOL     OW 3051   5.018   0.412   3.358  0.2481  1.2090  0.4973
  756SOL    HW1 3052   5.101   0.384   3.321  0.4756 -0.9099  2.3461
  756SOL    HW2 3053   5.034   0.415   3.452 -1.7872  0.4655  0.9221
  757SOL     OW 3054   3.183   5.712   2.537 -0.2927 -0.0185 -0.1398
  757SOL    HW1 3055   3.195   5.679   2.626  1.3052  0.6094 -0.0874
  757SOL    HW2 3056   3.223   5.798   2.537  1.5264 -0.7685 -1.9240
  758SOL     OW 3057   5.112   0.201   1.992 -0.0294  0.4816 -0.0889
  758SOL    HW1 3058   5.130   0.145   1.916  0.2539 -1.0589  1.0628
  758SOL    HW2 3059   5.182   0.182   2.053 -1.4192  0.0451  1.4305
  759SOL     OW 3060   4.049   4.973   0.661 -0.0758 -0.7834 -0.7117
  759SOL    HW1 3061   4.037   4.959   0.755  0.5425  0.5893 -0.3964
  759SOL    HW2 3062   4.063   5.068   0.653  1.0567 -1.0385 -2.0547
  760SOL     OW 3063   4.419   3.080   3.687 -0.0383 -0.0771  0.4551
  760SOL    HW1 3064   4.338   3.122   3.657  0.5018  1.5089  1.1116
  760SOL    HW2 3065   4.462   3.050   3.607  0.8575  3.0939 -0.3601
  761SOL     OW 3066   3.311   4.804   0.805 -0.1326 -0.1958  0.4636
  761SOL    HW1 3067   3.278   4.871   0.745 -1.1401 -0.7715  0.3622
  761SOL    HW2 3068   3.256   4.813   0.883 -1.4511 -1.9982 -0.1805
  762SOL     OW 3069   5.537   1.454   2.326  0.2051  0.0772 -0.0848
  762SOL    HW1 3070   5.613   1.463   2.384  0.0996 -2.4367  0.5567
  762SOL    HW2 3071   5.488   1.535   2.340  1.5646  0.7424  1.2733
  763SOL     OW 3072   4.082   0.764   2.670 -0.2844 -0.0335 -0.9617
  763SOL    HW1 3073   4.116   0.780   2.759 -0.8730  1.7150 -1.0077
  763SOL    HW2 3074   3.994   0.730   2.684  0.4537 -2.0627 -0.8850
  764SOL     OW 3075   4.326   0.312   3.635  0.2894  0.9204  0.9012
  764SOL    HW1 3076   4.362   0.400   3.630  1.1711  0.5216 -0.1609
  764SOL    HW2 3077   4.367   0.265   3.562 -1.5206  0.1158  0.3474
  765SOL     OW 3078   4.456   0.525   1.671  0.0984 -1.0650 -0.3435
  765SOL    HW1 3079   4.442   0.461   1.741  0.7238 -0.5045  0.3047
  765SOL    HW2 3080   4.385   0.588   1.682 -0.5823 -1.6884 -1.0504
  766SOL     OW 3081   5.528   4.074   3.324 -0.5567  0.0396  0.4080
  766SOL    HW1 3082   5.442   4.107   3.298 -0.4078  0.0246 -0.1229
  766SOL    HW2 3083   5.556   4.134   3.394 -0.7032  0.4632  0.1102
  767SOL     OW 3084   2.612   0.245   3.156 -0.2320 -0.2397  0.4913
  767SOL    HW1 3085   2.620   0.150   3.157 -1.1496 -0.3397  1.6109
  767SOL    HW2 3086   2.583   0.267   3.245 -2.8733  0.7815 -0.5139
  768SOL     OW 3087   5.115   5.657   3.379 -0.1276 -0.0671 -0.0807
  768SOL    HW1 3088   5.072   5.725   3.429  0.2825  0.6205 -0.6383
  768SOL    HW2 3089   5.114   5.580   3.436  0.5189  0.7426  1.0742
  769SOL     OW 3090   4.175   0.830   0.487  0.3202 -0.4306 -0.5684
  769SOL    HW1 3091   4.186   0.925   0.487 -1.8101 -0.1289 -1.0246
  769SOL    HW2 3092   4.264   0.796   0.483  1.3800  1.4504  2.9012
  770SOL     OW 3093   2.745   0.325   1.569 -0.4128 -0.8072 -0.2452
  770SOL    HW1 3094   2.691   0.379   1.512 -1.0344  0.5643  1.5190
  770SOL    HW2 3095   2.778   0.256   1.513 -2.7073 -0.7889 -1.7674
  771SOL     OW 3096   4.601   3.304   1.372  0.7217 -0.3566 -0.2903
  771SOL    HW1 3097   4.616   3.325   1.464 -1.8917 -1.7576  0.5683
  771SOL    HW2 3098   4.612   3.209   1.368  0.9965 -0.2850 -1.4938
  772SOL     OW 3099   2.861   3.777   1.392 -0.3987  0.2128  0.5271
  772SOL    HW1 3100   2.875   3.685   1.415 -0.1120  0.2223  0.3902
  772SOL    HW2 3101   2.776   3.778   1.347  1.2259 -0.6136 -2.8977
  773SOL     OW 3102   5.158   5.580   1.624  0.8014  0.5692  0.4649
  773SOL    HW1 3103   5.149   5.599   1.718 -4.9008  2.7397 -0.1072
  773SOL    HW2 3104   5.136   5.487   1.616  2.4661  0.0689  1.2656
  774SOL     OW 3105   3.856   3.028   2.300  0.8140 -0.3151  0.2497
  774SOL    HW1 3106   3.762   3.010   2.299  0.7372 -0.6527 -3.9719
  774SOL    HW2 3107   3.896   2.944   2.320  0.2178 -0.7787 -0.4479
  775SOL     OW 3108   4.102   5.240   0.927 -0.2365 -0.4137 -0.4334
  775SOL    HW1 3109   4.169   5.174   0.909  0.1729 -0.0020 -0.4288
  775SOL    HW2 3110   4.140   5.296   0.994 -0.8451 -0.5584  0.0428
  776SOL     OW 3111   5.401   0.490   2.275  0.6302 -0.0036 -0.3051
  776SOL    HW1 3112   5.314   0.499   2.237  0.3340  3.1968  0.8292
  776SOL    HW2 3113   5.459   0.536   2.215  1.1271  0.0778  0.2195
  777SOL     OW 3114   3.926   2.909   1.688 -0.4993  0.5740  0.1173
  777SOL    HW1 3115   3.995   2.875   1.746 -0.4625  0.9717  0.3064
  777SOL    HW2 3116   3.932   3.004   1.697 -0.0028  0.6733 -1.1137
  778SOL     OW 3117   4.685   4.626   1.998 -0.2021  0.1904  0.9348
  778SOL    HW1 3118   4.646   4.546   2.033 -1.6562 -0.1704 -1.3259
  778SOL    HW2 3119   4.767   4.597   1.959 -0.0413  0.0643  1.3606
  779SOL     OW 3120   5.122   0.621   2.447 -0.5404  0.2444 -0.3165
  779SOL    HW1 3121   5.158   0.550   2.394  0.4527  0.1724  0.4407
  779SOL    HW2 3122   5.139   0.700   2.396 -0.4335  0.0769 -0.5419
  780SOL     OW 3123   5.105   1.446   1.951  0.9690 -0.0967 -0.1714
  780SOL    HW1 3124   5.010   1.454   1.964  1.0604  0.4384  0.1807
  780SOL    HW2 3125   5.115   1.363   1.904  0.2769  0.1867 -0.8397
  781SOL     OW 3126   3.483   5.256   3.379  0.7357 -0.4176  0.3845
  781SOL    HW1 3127   3.510   5.212   3.459  0.4068  0.4117  0.9592
  781SOL    HW2 3128   3.515   5.199   3.308  1.3250 -0.9774  1.0922
  782SOL     OW 3129   4.508   0.348   1.479 -0.4581 -0.2429  0.2152
  782SOL    HW1 3130   4.493   0.350   1.573  0.2476  0.6652  0.3211
  782SOL    HW2 3131   4.599   0.318   1.470 -1.6510 -4.3570 -0.3518
  783SOL     OW 3132   4.998   1.304   1.570 -0.3511  0.1776  0.0815
  783SOL    HW1 3133   4.962   1.238   1.511  0.1296  1.0438 -1.2216
  783SOL    HW2 3134   4.943   1.382   1.556 -0.4030  0.3229  0.9894
  784SOL     OW 3135   5.332   4.269   3.350 -0.1164 -0.1485 -0.2834
  784SOL    HW1 3136   5.243   4.264   3.384 -0.5241 -1.5339 -1.4549
  784SOL    HW2 3137   5.330   4.342   3.288 -0.2196  0.2919  0.2276
  785SOL     OW 3138   4.982   0.414   2.621  0.1576  0.4340 -0.4325
  785SOL    HW1 3139   4.948   0.395   2.534 -0.6136 -0.7997  0.1108
  785SOL    HW2 3140   5.017   0.503   2.615  1.8979 -0.3196 -2.5286
  786SOL     OW 3141   4.493   0.403   0.643 -0.3226  0.5923  0.2127
  786SOL    HW1 3142   4.470   0.311   0.633 -0.3415  0.7140 -0.9466
  786SOL    HW2 3143   4.428   0.438   0.705  0.3448 -0.4013  1.5292
  787SOL     OW 3144   5.150   0.617   3.136 -0.4952 -0.2098  0.3399
  787SOL    HW1 3145   5.152   0.663   3.220  1.1508 -0.3664  0.4092
  787SOL    HW2 3146   5.241   0.594   3.118 -1.0021 -1.5459 -0.7447
  788SOL     OW 3147   4.061   4.042   1.967 -0.2817  0.1354 -0.4444
  788SOL    HW1 3148   4.088   4.075   2.053  1.5150 -0.6855 -0.6394
  788SOL    HW2 3149   4.010   4.113   1.929  0.4786  1.2609  0.5592
  789SOL     OW 3150   4.336   0.434   3.302  0.3175  0.1351 -0.3903
  789SOL    HW1 3151   4.415   0.482   3.277  0.4532 -0.1629 -0.5263
  789SOL    HW2 3152   4.366   0.369   3.365  0.1652  0.0893 -0.3647
  790SOL     OW 3153   3.737   4.440   1.419  0.3383  0.2263 -0.6611
  790SOL    HW1 3154   3.708   4.525   1.452 -1.5963 -1.0339  1.1524
  790SOL    HW2 3155   3.707   4.437   1.329  0.2146  1.3436 -0.6758
  791SOL     OW 3156   4.339   4.392   1.424  0.9821  0.7359  1.3681
  791SOL    HW1 3157   4.295   4.443   1.492 -0.9719  0.1410  0.6228
  791SOL    HW2 3158   4.425   4.371   1.461  0.5407  1.6844  3.0283
  792SOL     OW 3159   5.022   0.935   3.317 -0.4624 -0.3661 -0.4638
  792SOL    HW1 3160   5.038   0.893   3.233 -1.6608 -0.4115 -0.6908
  792SOL    HW2 3161   4.990   1.022   3.295 -3.0213 -1.1523 -0.1735
  793SOL     OW 3162   3.313   5.322   2.029 -0.3048 -0.4165  0.0131
  793SOL    HW1 3163   3.243   5.384   2.006  0.3507  0.3496  0.0193
  793SOL    HW2 3164   3.275   5.236   2.015 -0.7585  0.0033 -1.4678
  794SOL     OW 3165   5.412   0.886   3.277  0.0536  0.4055 -0.3981
  794SOL    HW1 3166   5.430   0.961   3.333 -1.0454 -0.3659  1.0483
  794SOL    HW2 3167   5.351   0.832   3.327  2.3047 -2.4937 -0.4989
  795SOL     OW 3168   4.330   1.089   3.786  0.4320 -0.0108 -0.9408
  795SOL    HW1 3169   4.333   1.172   3.834  3.0217 -0.7988  0.4561
  795SOL    HW2 3170   4.243   1.053   3.805  0.1548  1.2768  0.3947
  796SOL     OW 3171   4.794   4.885   3.795 -0.6837 -0.3011 -0.1746
  796SOL    HW1 3172   4.713   4.932   3.776 -0.8826 -0.7200 -0.3793
  796SOL    HW2 3173   4.852   4.952   3.832 -0.6153  0.3391 -1.3799
  797SOL     OW 3174   4.685   5.167   0.749 -1.0009 -0.3479  0.2711
  797SOL    HW1 3175   4.631   5.199   0.677 -1.9040  0.6388  1.3556
  797SOL    HW2 3176   4.751   5.112   0.707 -0.3959  1.6008 -1.5394
  798SOL     OW 3177   3.868   1.049   2.288  0.1372  0.1039 -0.9042
  798SOL    HW1 3178   3.954   1.089   2.273 -0.0608  0.3085 -1.5124
  798SOL    HW2 3179   3.827   1.106   2.353  1.6095 -1.6680  1.7763
  799SOL     OW 3180   5.535   0.645   2.111  0.5026 -0.4299  0.5981
  799SOL    HW1 3181   5.548   0.737   2.088  2.2603 -0.2510  2.1003
  799SOL    HW2 3182   5.526   0.601   2.027 -0.0067  1.0440 -0.1645
  800SOL     OW 3183   4.295   4.323   3.832 -0.6071 -0.1192 -0.0039
  800SOL    HW1 3184   4.297   4.337   3.927  0.8574 -0.3691  0.0212
  800SOL    HW2 3185   4.248   4.400   3.798 -0.3841  0.4138  0.8529
  801SOL     OW 3186   4.721   1.385   4.069 -0.4653 -0.1078  0.3323
  801SOL    HW1 3187   4.724   1.301   4.024  3.3013  1.6670 -3.4398
  801SOL    HW2 3188   4.648   1.432   4.028  0.7678  0.2441 -1.5586
  802SOL     OW 3189   4.488   4.220   1.649 -0.3585 -0.1871  0.0225
  802SOL    HW1 3190   4.578   4.229   1.681 -0.7548  0.6849  0.9410
  802SOL    HW2 3191   4.473   4.126   1.647  0.5148 -0.3384  0.0312
  803SOL     OW 3192   3.251   0.746   2.189 -0.4303 -0.8443  0.3205
  803SOL    HW1 3193   3.273   0.698   2.268  1.9311  3.0368  2.3464
  803SOL    HW2 3194   3.170   0.792   2.210  1.4556  2.1267  1.6753
  804SOL     OW 3195   5.273   4.796   2.484 -0.6678  0.7700 -0.3066
  804SOL    HW1 3196   5.322   4.723   2.522 -2.9974 -0.0152  1.5041
  804SOL    HW2 3197   5.268   4.775   2.390  2.2689  0.8904 -0.5655
  805SOL     OW 3198   4.771   4.263   3.378  0.5593 -0.3987  0.0876
  805SOL    HW1 3199   4.849   4.303   3.416 -0.6942  0.7806  1.5420
  805SOL    HW2 3200   4.718   4.337   3.349 -1.8228 -0.8427  2.8752
  806SOL     OW 3201   4.465   1.483   1.752  0.0487 -0.2755 -0.3822
  806SOL    HW1 3202   4.478   1.441   1.837 -2.0522 -1.8949 -0.7671
  806SOL    HW2 3203   4.524   1.437   1.693  0.6066  0.0072 -0.0484
  807SOL     OW 3204   4.629   1.111   1.784  0.2793  0.5341  0.2016
  807SOL    HW1 3205   4.623   1.017   1.770 -0.3479  0.6412 -0.2521
  807SOL    HW2 3206   4.542   1.137   1.813 -0.2712  1.3541 -1.9826
  808SOL     OW 3207   4.413   3.373   1.756 -0.0844  0.2317 -0.4815
  808SOL    HW1 3208   4.377   3.452   1.716 -1.3521 -0.0396  0.0627
  808SOL    HW2 3209   4.347   3.306   1.741  1.1709 -0.8715 -1.3346
  809SOL     OW 3210   4.439   1.923   3.322 -0.4680  0.0851 -0.3905
  809SOL    HW1 3211   4.420   1.980   3.247  1.1874  0.3815 -0.6175
  809SOL    HW2 3212   4.494   1.977   3.379 -0.4706 -0.6494  0.3186
  810SOL     OW 3213   4.375   5.573   3.931 -0.1954  0.3648  0.9010
  810SOL    HW1 3214   4.372   5.605   3.841  3.5950  1.2734  0.9071
  810SOL    HW2 3215   4.346   5.647   3.984  1.6321  1.4259  0.5343
  811SOL     OW 3216   3.848   3.048   1.148  0.5593  0.0928 -0.6788
  811SOL    HW1 3217   3.844   3.040   1.243  2.4177 -0.9875 -0.6517
  811SOL    HW2 3218   3.796   3.126   1.129 -0.5306 -0.1294  1.1305
  812SOL     OW 3219   2.953   0.508   2.815 -0.3796  0.3892 -0.4795
  812SOL    HW1 3220   2.927   0.416   2.817  2.0682 -0.3669  1.0469
  812SOL    HW2 3221   3.005   0.517   2.736  2.1155 -0.4669  0.9678
  813SOL     OW 3222   5.218   4.854   1.740  0.1085 -0.2413 -0.0772
  813SOL    HW1 3223   5.268   4.816   1.668 -1.0338  0.5397 -1.3374
  813SOL    HW2 3224   5.127   4.854   1.708 -1.0327 -2.9668  2.6617
  814SOL     OW 3225   5.043   0.109   5.392 -0.0717  0.1404 -0.6391
  814SOL    HW1 3226   5.125   0.153   5.371  1.3632  0.6595  4.6628
  814SOL    HW2 3227   5.053   0.020   5.357  1.8821  0.7352 -1.7289
  815SOL     OW 3228   4.336   5.048   3.064  0.3956 -0.3096  0.7719
  815SOL    HW1 3229   4.345   5.143   3.055 -2.1158 -0.1078 -0.6952
  815SOL    HW2 3230   4.383   5.012   2.989  0.0048 -0.1091  0.4272
  816SOL     OW 3231   2.875   4.114   1.830  0.4770  0.0770 -0.6125
  816SOL    HW1 3232   2.872   4.018   1.829 -2.1146  0.0784  0.3117
  816SOL    HW2 3233   2.867   4.139   1.738 -1.1024 -0.6313 -0.7070
  817SOL     OW 3234   3.964   3.686   1.329 -0.0701 -0.1306 -0.7705
  817SOL    HW1 3235   3.869   3.689   1.339 -0.3240  4.0173 -2.5370
  817SOL    HW2 3236   3.992   3.621   1.393 -3.9857 -0.9292  0.4350
  818SOL     OW 3237   4.266   0.550   0.734  0.1320  0.3483 -0.6737
  818SOL    HW1 3238   4.172   0.556   0.717 -0.0848 -0.0864  0.3061
  818SOL    HW2 3239   4.273   0.516   0.823  1.2210  1.5550 -0.2589
  819SOL     OW 3240   4.412   0.449   1.242  0.4242 -0.3567  0.3624
  819SOL    HW1 3241   4.419   0.430   1.336  2.2978  1.1055  0.5650
  819SOL    HW2 3242   4.502   0.456   1.212 -0.1065  2.1457 -0.9075
  820SOL     OW 3243   3.175   4.759   1.312  0.1139 -0.5518  0.4229
  820SOL    HW1 3244   3.157   4.665   1.321 -0.1839 -0.3907  1.6469
  820SOL    HW2 3245   3.205   4.786   1.399  3.3063 -0.1448 -0.6659
  821SOL     OW 3246   4.419   2.269   2.324  0.4582 -0.1782  0.2519
  821SOL    HW1 3247   4.438   2.344   2.269  1.1794  0.2744  1.0915
  821SOL    HW2 3248   4.328   2.282   2.352 -0.2789 -0.9704 -1.6510
  822SOL     OW 3249   4.733   1.245   2.812  0.3482  0.3602 -0.1408
  822SOL    HW1 3250   4.829   1.242   2.821  0.3067 -1.9284 -0.0176
  822SOL    HW2 3251   4.719   1.303   2.737  1.6771  2.5024  1.1361
  823SOL     OW 3252   4.058   4.869   1.257  0.7396  0.9948 -0.0410
  823SOL    HW1 3253   4.136   4.837   1.213  0.7733  0.0262  0.6900
  823SOL    HW2 3254   4.088   4.897   1.344  0.2162  0.1961  0.4089
  824SOL     OW 3255   3.177   4.119   1.632 -0.7841 -0.5600 -1.1223
  824SOL    HW1 3256   3.113   4.076   1.576 -2.4082  1.0207 -0.5873
  824SOL    HW2 3257   3.185   4.061   1.708 -2.1647 -0.4568 -0.8709
  825SOL     OW 3258   5.579   3.793   3.339  0.2438 -0.2620 -0.3366
  825SOL    HW1 3259   5.595   3.885   3.360 -0.9069  0.1848 -1.3351
  825SOL    HW2 3260   5.543   3.794   3.251 -2.8310 -1.3313  0.7657
  826SOL     OW 3261   4.961   5.548   1.133 -0.0385 -0.2317  0.0474
  826SOL    HW1 3262   5.041   5.536   1.185 -0.7803  1.7568  1.8043
  826SOL    HW2 3263   4.988   5.604   1.060  0.0532  1.1818  1.1252
  827SOL     OW 3264   3.880   5.221   1.093  0.9733  0.0009  0.4392
  827SOL    HW1 3265   3.916   5.139   1.062 -2.4362 -0.6677 -2.4478
  827SOL    HW2 3266   3.910   5.286   1.029  0.1490  0.1098  0.1460
  828SOL     OW 3267   2.856   5.223   3.180  0.1210 -0.0836  0.6250
  828SOL    HW1 3268   2.917   5.177   3.237  1.2405  0.8004  0.1694
  828SOL    HW2 3269   2.882   5.198   3.092  2.6644  3.5008  0.1563
  829SOL     OW 3270   4.516   0.649   0.901 -0.1802 -0.2026  0.1902
  829SOL    HW1 3271   4.440   0.640   0.843 -0.3954 -0.5500  0.5115
  829SOL    HW2 3272   4.584   0.596   0.861 -0.8509 -1.8391  1.0920
  830SOL     OW 3273   3.337   4.416   1.129 -0.1031  0.0549 -0.0763
  830SOL    HW1 3274   3.272   4.408   1.059 -0.3634 -2.7960  0.3863
  830SOL    HW2 3275   3.379   4.501   1.113 -1.9809  0.6941 -2.0674
  831SOL     OW 3276   5.009   4.278   2.435  0.4078 -0.4541  0.7358
  831SOL    HW1 3277   5.090   4.300   2.481  2.0839  1.7835 -2.7747
  831SOL    HW2 3278   4.957   4.359   2.438 -0.4819 -1.0127  0.7110
  832SOL     OW 3279   1.899   1.860   1.233 -0.0658 -0.0194  0.6024
  832SOL    HW1 3280   1.920   1.952   1.250 -0.1515 -0.0426  0.8357
  832SOL    HW2 3281   1.853   1.861   1.149 -1.0244  0.2794  1.1204
  833SOL     OW 3282   3.911   4.258   1.469 -0.6322 -0.5268  0.5718
  833SOL    HW1 3283   3.847   4.327   1.449 -0.4160 -0.2405  0.8589
  833SOL    HW2 3284   3.973   4.299   1.529  0.1917 -0.6129 -0.2042
  834SOL     OW 3285   4.042   1.243   3.321  0.2431 -0.3019  0.1639
  834SOL    HW1 3286   4.126   1.253   3.365  0.2727  1.4872 -0.2201
  834SOL    HW2 3287   4.060   1.263   3.229 -0.5200 -0.2669  0.0121
  835NA      NA 3288   4.924   3.975   2.084  0.0576 -0.5062 -0.0936
  836NA      NA 3289   4.503   5.236   1.756 -0.2679  0.3518  0.4648
  837NA      NA 3290   4.614   5.558   1.987  0.6548  0.0141 -0.2356
  838NA      NA 3291   3.741   5.520   3.040 -0.2045 -0.3846 -0.0726
  839NA      NA 3292   3.868   4.987   1.632 -0.8050  0.0469  0.1592
  840NA      NA 3293   3.883   0.260   2.851 -0.5528 -0.4462  0.4488
  841NA      NA 3294   5.039   5.698   2.776 -0.2642 -0.3601  0.6935
  842NA      NA 3295   4.687   5.716   2.526 -0.0608  0.2838 -0.4782
  843NA      NA 3296   3.725   4.579   2.865 -0.4877  0.4085  0.1867
  844NA      NA 3297   5.016   5.609   3.157 -0.2605 -0.2964 -0.5967
  845NA      NA 3298   4.090   4.445   2.062 -0.3294 -0.1553  0.2417
  846NA      NA 3299   4.443   4.836   2.527 -0.0451  0.0378 -0.4436
  847NA      NA 3300   3.706   5.290   2.512 -0.1537 -0.2478  0.4712
  848NA      NA 3301   4.179   0.511   2.713 -0.0692  0.1212  0.6981
  849NA      NA 3302   3.636   0.576   2.819  0.1295 -0.3219  0.5459
  850NA      NA 3303   3.237   4.527   1.819  0.5106 -0.2606 -0.0446
  851NA      NA 3304   3.456   5.081   2.391  0.2973  0.1696  0.0597
  852NA      NA 3305   4.972   5.187   2.956 -0.3542 -0.3636  0.8213
  853NA      NA 3306   4.984   0.619   1.315 -0.2248 -0.0177  0.2042
  854NA      NA 3307   3.461   5.592   2.427  0.0329  0.2810 -0.4896
  855NA      NA 3308   4.941   4.531   2.991  0.1113  0.0952 -0.2421
  856NA      NA 3309   3.826   4.557   2.368  0.1936 -0.1524  0.0249
  857NA      NA 3310   3.495   4.590   2.094 -0.3779  0.2427  0.0214
  858NA      NA 3311   4.451   0.345   2.434  0.0978  0.5798 -0.5975
  859NA      NA 3312   4.385   4.688   2.894 -0.2176  0.0445  0.2484
  860NA      NA 3313   3.875   4.779   1.945 -0.1274  0.0844  0.4283
  861NA      NA 3314   5.052   4.901   3.197 -0.2881 -0.2867  1.1398
  862NA      NA 3315   4.442   0.130   2.810 -0.2361 -0.2926  0.0247
  863NA      NA 3316   4.758   4.873   2.804 -0.7146  0.5082 -0.5676
  864NA      NA 3317   3.456   5.511   3.335 -0.2214 -0.0675 -0.1492
  865NA      NA 3318   3.781   4.403   1.851 -0.2480 -0.1822  0.0309
  866NA      NA 3319   4.819   5.221   2.048  0.5421  0.1579 -0.1350
  867NA      NA 3320   4.419   4.672   1.967 -0.3604  0.0229  0.0147
  868NA      NA 3321   4.682   4.506   2.643 -1.1093 -0.0496  0.4274
  869NA      NA 3322   4.683   4.751   3.164  0.4716 -0.2800  0.0417
  870NA      NA 3323   3.977   4.113   1.277  0.2209  0.3140 -0.4688
  871NA      NA 3324   4.700   4.721   2.239 -0.2313  0.7321  0.0485
  872NA      NA 3325   4.321   4.322   1.787  0.4034  0.4367 -0.1074
  873NA      NA 3326   3.967   4.937   2.708 -0.3191  0.4439 -0.0324
  874NA      NA 3327   3.524   0.214   2.578 -0.5986 -0.3550 -0.3184
  875NA      NA 3328   4.281   5.171   2.449  0.1860 -0.1523 -0.6720
  876NA      NA 3329   4.105   4.580   2.620 -0.2791  0.0144  0.1978
  877NA      NA 3330   4.924   5.584   2.233 -0.1424  0.5218  0.4108
  878NA      NA 3331   4.127   0.118   2.560  0.3028  0.1955 -0.1279
  879NA      NA 3332   4.503   0.739   1.170 -0.6149 -0.1973  0.4721
  880NA      NA 3333   4.364   5.717   2.286  0.2101  0.6274  0.1659
  881NA      NA 3334   4.753   0.326   2.702  0.7181 -0.0227  0.2989
  882NA      NA 3335   4.675   0.169   2.171 -0.2125  0.6814  0.2813
  883NA      NA 3336   4.781   4.895   1.860  0.0083 -0.6296 -0.5840
  884NA      NA 3337   4.200   5.013   1.834  0.3991  0.2555 -0.5467
  885NA      NA 3338   4.016   5.675   2.027  0.3125 -0.0557  0.0071
  886NA      NA 3339   3.750   0.063   2.308 -0.1375  0.4237 -0.4445
  887NA      NA 3340   4.278   5.566   1.757  0.0441 -0.0466 -0.3542
  888NA      NA 3341   4.059   5.471   3.310 -0.3888  0.1803 -0.6400
  889NA      NA 3342   4.160   4.886   3.128 -0.4543 -0.2258  0.3159
  890NA      NA 3343   4.117   4.632   1.654 -0.0500 -0.2093 -0.0414
  891NA      NA 3344   3.749   4.107   2.936 -0.1795 -0.3841  0.2052
  892NA      NA 3345   4.236   0.385   3.090  0.2651  0.1503  0.1152
  893NA      NA 3346   4.417   4.865   1.582 -0.4246 -0.2943  0.1635
  894NA      NA 3347   3.846   0.425   2.491  0.1794 -0.4820  0.2650
  895NA      NA 3348   4.292   5.365   2.102 -0.2022  0.3188 -0.2558
  896NA      NA 3349   4.019   5.495   2.404 -0.3595  0.5599  0.8740
  897NA      NA 3350   3.962   5.134   2.214 -0.0975 -0.0670  0.5641
  898NA      NA 3351   4.836   5.426   1.675 -0.0886  0.1288  0.2794
  899NA      NA 3352   4.697   5.526   2.923 -0.6010  0.3535 -0.1439
  900NA      NA 3353   3.779   0.259   1.983 -0.5605 -0.7706 -0.4583
  901NA      NA 3354   3.454   5.436   2.793 -0.0452 -0.0297  0.7724
  902NA      NA 3355   4.594   0.024   1.622  0.1895 -0.0649  0.0170
  903NA      NA 3356   4.407   4.468   2.319 -0.5969 -0.4278  0.3002
  904NA      NA 3357   4.355   0.155   1.932 -0.7354  0.4001 -0.3471
  905NA      NA 3358   4.116   5.668   2.948  1.0752 -0.7416  0.3622
  906NA      NA 3359   3.941   0.160   3.278  0.1705  0.2738 -0.5023
  907NA      NA 3360   4.761   0.158   3.065  0.7506  0.2560 -0.5344
  908NA      NA 3361   4.360   5.532   2.648  0.6581 -0.2491  0.4289
  909NA      NA 3362   3.940   0.663   3.028  0.1533 -0.3735  0.2398
  910NA      NA 3363   3.764   0.484   3.288 -0.4219  0.1480 -0.0049
  911NA      NA 3364   4.994   3.598   2.169  0.2962 -0.1194 -0.3608
  912NA      NA 3365   4.354   1.520   3.039  0.0721  0.3257  0.2210
  913NA      NA 3366   3.759   5.702   2.696 -0.2634  0.7580 -0.1678
  914NA      NA 3367   3.585   4.778   2.577 -0.5878 -0.2212 -0.1152
  915NA      NA 3368   4.102   0.290   2.193 -0.0387  0.2442 -0.0293
  916NA      NA 3369   5.062   4.601   3.529 -0.0251 -0.3676 -0.8740
  917NA      NA 3370   4.800   5.032   2.429 -0.1291 -0.4687 -0.0738
  918NA      NA 3371   4.875   5.352   2.600 -0.0275  0.2093 -0.0658
  919NA      NA 3372   4.164   4.808   2.240 -0.4293 -0.2329 -0.3910
  920NA      NA 3373   3.990   5.314   1.848  0.3570 -0.3649 -0.8623
  921NA      NA 3374   5.124   4.925   2.726  0.5046  0.2371  0.4011
  922NA      NA 3375   3.627   5.092   1.938 -0.1982  0.5638  0.1300
  923NA      NA 3376   4.433   5.704   3.165 -0.3062 -0.0636  0.4638
  924NA      NA 3377   4.489   5.022   2.140 -0.1561 -0.0331 -0.7445
  925NA      NA 3378   4.378   4.266   2.695  0.5268  0.1387  0.0451
  926NA      NA 3379   4.612   5.368   2.354  0.2560 -0.1316 -1.2617
  927NA      NA 3380   3.729   5.440   2.139 -0.0806  0.4726 -0.3252
  928NA      NA 3381   4.022   5.346   2.768 -0.3589  0.3749 -0.0588
  929NA      NA 3382   3.558   4.744   1.724  0.2071  0.5806 -0.0567
  930NA      NA 3383   4.097   0.249   1.651  0.0632  0.2239 -0.1005
  931NA      NA 3384   3.468   5.742   2.059 -0.8982  0.9758 -0.2977
  932NA      NA 3385   4.821   4.080   3.127 -0.5124  0.1216  0.6938
  933CL      CL 3386   3.841   4.693   1.699 -0.2307 -0.4876  0.4205
  934CL      CL 3387   4.630   5.453   2.630  0.2588  0.6909  0.1145
  935CL      CL 3388   3.504   4.484   1.815  0.2113 -0.0890  0.0372
  936CL      CL 3389   3.431   5.479   3.059  0.0183  0.6077 -0.1360
  937CL      CL 3390   4.081   0.000   2.287  0.1769  0.1358 -0.4170
  938CL      CL 3391   4.323   0.080   1.652 -0.1468 -0.1232 -0.1219
  939CL      CL 3392   5.023   4.283   2.997 -0.3284  0.0364  0.3378
  940CL      CL 3393   4.927   4.660   3.270  0.6329  0.4858  0.3445
  941CL      CL 3394   5.059   4.702   2.822 -0.2535  0.4344 -0.3445
  942CL      CL 3395   4.216   0.663   2.955 -0.6364  0.0789  0.3135
  943CL      CL 3396   3.757   5.484   3.331  0.2268  0.1555 -0.1681
  944CL      CL 3397   4.706   0.583   1.239  0.0467  0.3960 -0.2718
  945CL      CL 3398   3.486   0.105   2.338 -0.0491 -0.3464 -0.0248
  946CL      CL 3399   4.396   4.549   2.640 -0.1685 -0.0892  0.5572
  947CL      CL 3400   3.959   0.381   3.114 -0.1554  0.0795 -0.3296
  948CL      CL 3401   3.678   5.195   2.197 -0.1407 -0.3932  0.0838
  949CL      CL 3402   4.354   4.392   2.059 -0.1804 -0.1966  0.4461
  950CL      CL 3403   4.016   5.237   2.483 -0.0433  0.1144  0.2035
  951CL      CL 3404   4.866   5.292   2.332  0.5861 -0.6098  0.3367
  952CL      CL 3405   3.597   5.063   1.671  0.2644  0.1227 -0.0717
  953CL      CL 3406   3.521   4.754   2.840  0.3038  0.4358  0.0038
  954CL      CL 3407   3.906   0.516   2.769  0.0310 -0.5874 -0.4892
  955CL      CL 3408   4.516   5.166   1.453 -0.0127 -0.1502 -0.1714
  956CL      CL 3409   4.831   4.972   3.041 -0.1898 -0.2419  0.1935
  957CL      CL 3410   3.397   5.336   2.547  0.1823 -0.0381 -0.3879
  958CL      CL 3411   4.927   4.747   1.677 -0.0301  0.3551 -0.4090
  959CL      CL 3412   3.722   5.377   2.788  0.3562 -0.8641 -0.0693
  960CL      CL 3413   4.672   4.583   2.915  0.3854 -0.6425  0.1141
  961CL      CL 3414   4.406   4.693   3.187 -0.3698  0.6858  0.2023
  962CL      CL 3415   3.678   5.024   2.548 -0.0559  0.1977  0.2634
  963CL      CL 3416   4.468   0.395   2.712 -0.3146 -0.3814  0.1381
  964CL      CL 3417   4.220   5.080   2.163  0.3143  0.3477 -0.1371
  965CL      CL 3418   4.739   5.340   3.661  0.1893  0.0748  0.0229
  966CL      CL 3419   4.653   5.653   2.260 -0.0561 -0.2440 -0.8880
  967CL      CL 3420   4.539   5.513   1.726 -0.1660  0.2514  0.2321
  968CL      CL 3421   3.692   0.670   3.099 -0.2779  0.3323 -0.4333
  969CL      CL 3422   4.989   5.447   2.924  0.1590 -0.0438 -0.1595
  970CL      CL 3423   3.830   4.659   2.620  0.1765  0.4274  0.0884
  971CL      CL 3424   4.995   5.634   2.507  0.0694 -0.0252  0.3679
  972CL      CL 3425   4.407   0.235   2.188  0.1263 -0.0632  0.1932
  973CL      CL 3426   4.790   3.753   2.219  0.3222 -0.2699  0.1554
  974CL      CL 3427   4.425   0.050   2.543  0.1720 -0.4550 -0.4830
  975CL      CL 3428   4.680   4.468   2.299  0.5682 -0.3336  0.0658
  976CL      CL 3429   3.825   0.168   2.576 -0.0843  0.1858 -0.2572
  977CL      CL 3430   3.260   4.766   1.650 -0.3219 -0.0993 -0.1426
  978CL      CL 3431   4.148   4.706   1.987 -0.2183  0.1373  0.5742
  979CL      CL 3432   4.025   5.424   3.046  0.5132 -0.2174 -0.1511
  980CL      CL 3433   4.175   4.873   2.498  0.2731 -0.0318 -0.2189
  981CL      CL 3434   4.154   0.169   2.831  0.4439  0.4149 -0.1494
  982CL      CL 3435   3.996   5.392   2.112 -0.1457  0.0142  0.3095
  983CL      CL 3436   4.138   5.744   3.228 -0.1647  0.3789 -0.0782
  984CL      CL 3437   5.058   4.331   3.509 -0.0027  0.2747 -0.7200
  985CL      CL 3438   5.215   5.054   2.954 -0.0613 -0.0647 -0.0030
  986CL      CL 3439   4.013   5.571   1.755  0.5912 -0.3557 -0.1695
  987CL      CL 3440   3.786   0.021   2.961 -0.2248 -0.7054  0.1320
  988CL      CL 3441   4.117   4.490   2.346  0.2347 -0.0799  0.1528
  989CL      CL 3442   4.776   4.769   2.524 -0.2996 -0.1554 -0.2656
  990CL      CL 3443   3.928   5.055   1.892  0.2976  0.6513  0.0753
  991CL      CL 3444   4.439   4.748   2.266  0.3299  0.0321  0.1783
  992CL      CL 3445   4.257   5.279   1.809  0.1383 -0.1556  0.2225
  993CL      CL 3446   4.483   4.932   2.779  0.0364  0.0637 -0.5102
  994CL      CL 3447   3.732   5.564   2.416  0.1384 -0.3138  0.1286
  995CL      CL 3448   3.502   5.682   2.690 -0.1727 -0.8954  0.6150
  996CL      CL 3449   4.147   0.391   2.464 -0.2415  0.2017 -0.1144
  997CL      CL 3450   5.052   0.096   3.027 -0.2068 -0.0027  0.1518
  998CL      CL 3451   4.751   0.268   2.404  0.0473 -0.1852 -0.2433
  999CL      CL 3452   4.127   4.780   2.887  0.0181  0.1982  0.2625
 1000CL      CL 3453   4.488   0.217   3.075  0.3454  0.1768  0.2095
 1001CL      CL 3454   4.373   5.614   2.913  0.4327  0.3240  0.1049
 1002CL      CL 3455   3.754   4.376   3.011  0.3273  0.3822 -0.1664
 1003CL      CL 3456   3.547   4.612   2.355 -0.1878 -0.5405 -0.7799
 1004CL      CL 3457   3.818   0.333   2.243  0.5113 -0.1527  0.0743
 1005CL      CL 3458   3.822   4.537   2.075 -0.5316 -0.0781 -0.0835
 1006CL      CL 3459   5.031   3.751   1.953  0.0246  0.4831  0.0932
 1007CL      CL 3460   4.908   5.484   1.953 -0.3820 -0.3904  0.3129
 1008CL      CL 3461   5.080   0.613   1.558 -0.2574  0.0536  0.5023
 1009CL      CL 3462   4.907   5.100   2.692 -1.1001  0.1268  0.4214
 1010CL      CL 3463   4.115   1.398   3.028 -0.3718  0.2589  0.0812
 1011CL      CL 3464   3.576   0.487   2.576 -0.1384 -0.2934  0.1815
 1012CL      CL 3465   4.561   5.293   2.056  0.0192  0.2568  0.5918
 1013CL      CL 3466   4.792   4.941   2.113  0.1310  0.1276 -0.0429
 1014CL      CL 3467   4.323   5.631   2.022  0.3771 -0.1785 -0.6865
 1015CL      CL 3468   4.034   0.220   1.924  0.0837  0.4592 -0.2411
 1016CL      CL 3469   4.533   5.083   2.411 -0.0113  0.0906  0.5262
 1017CL      CL 3470   3.608   4.832   1.994  0.2251 -0.0470 -0.3886
 1018CL      CL 3471   4.717   5.652   3.189 -0.1892  0.0423 -0.0517
 1019CL      CL 3472   4.460   4.943   1.867  0.5723 -0.3937  0.2595
 1020CL      CL 3473   4.059   4.363   1.789 -0.1808  0.3168 -0.5922
 1021CL      CL 3474   4.635   0.100   1.889 -0.1341  0.3373 -0.2809
 1022CL      CL 3475   4.376   4.596   1.700 -0.4048  0.2253  0.6161
 1023CL      CL 3476   4.791   5.158   1.771 -0.1663 -0.2943 -0.1382
 1024CL      CL 3477   3.970   3.988   2.787  0.3245  0.5491  0.1080
 1025CL      CL 3478   4.338   5.430   2.378  0.5719 -0.2399 -0.3921
 1026CL      CL 3479   3.225   4.539   2.089 -0.2699 -0.3038  0.3748
 1027CL      CL 3480   3.748   5.727   2.056 -0.1056  0.0656  0.2500
 1028CL      CL 3481   4.730   0.048   2.809  0.1485 -0.0719 -0.1554
 1029CL      CL 3482   4.125   4.903   1.596  0.1921  0.0582 -0.0752
 1030CL      CL 3483   4.081   5.580   2.657 -0.1815  0.5262  0.6802
   5.74466   5.74466   5.74466
