Generic title in water
 3475
    1PET     C9    1   2.132   1.956   2.296
    1PET     H6    2   2.110   1.858   2.252
    1PET     H7    3   2.115   2.032   2.218
    1PET     O2    4   2.057   1.979   2.415
    1PET     C8    5   2.068   1.888   2.516
    1PET     O1    6   2.161   1.815   2.530
    1PET     C4    7   1.959   1.917   2.623
    1PET     C5    8   1.895   2.039   2.634
    1PET     C6    9   1.807   2.072   2.742
    1PET     H4   10   1.759   2.169   2.737
    1PET     H3   11   1.919   2.115   2.560
    1PET     C3   12   1.930   1.815   2.718
    1PET     H2   13   1.977   1.717   2.719
    1PET     C2   14   1.826   1.832   2.812
    1PET     H1   15   1.804   1.751   2.880
    1PET     C1   16   1.761   1.958   2.820
    1PET     C7   17   1.674   1.986   2.941
    1PET     O3   18   1.666   1.904   3.030
    1PET     O4   19   1.601   2.097   2.922
    1PET    C10   20   1.521   2.142   3.032
    1PET     H8   21   1.535   2.065   3.109
    1PET     H9   22   1.412   2.141   3.022
    1PET    C11   23   1.575   2.283   3.069
    1PET    H10   24   1.673   2.263   3.112
    1PET    H11   25   1.523   2.330   3.153
    1PET    C12   26   1.564   2.387   2.959
    1PET    H13   27   1.471   2.373   2.902
    1PET    H14   28   1.644   2.358   2.889
    2PEO     C1   29   1.571   2.537   2.991
    2PEO     H3   30   1.496   2.554   3.069
    2PEO     H4   31   1.533   2.606   2.915
    2PEO      O   32   1.711   2.575   3.037
    2PEO     C2   33   1.791   2.626   2.931
    2PEO     H5   34   1.756   2.728   2.909
    2PEO     H6   35   1.782   2.572   2.835
    2PEO     C3   36   1.938   2.627   2.972
    2PEO     H7   37   1.991   2.564   2.898
    2PEO     H8   38   1.953   2.586   3.073
    2PEO     O1   39   1.999   2.755   2.986
    2PEO     C4   40   1.965   2.822   3.107
    2PEO     H9   41   1.880   2.773   3.156
    2PEO    H10   42   1.946   2.928   3.085
    2PEO     C5   43   2.069   2.798   3.216
    2PEO    H11   44   2.081   2.689   3.224
    2PEO    H12   45   2.044   2.847   3.310
    2PEO     O2   46   2.199   2.850   3.183
    2PEO     C6   47   2.210   3.000   3.171
    2PEO    H13   48   2.148   3.054   3.098
    2PEO    H14   49   2.314   3.021   3.144
    2PEO     C7   50   2.183   3.060   3.307
    2PEO    H15   51   2.078   3.047   3.338
    2PEO    H16   52   2.193   3.169   3.299
    2PEO     O3   53   2.289   3.006   3.403
    2PEO     C8   54   2.281   3.056   3.544
    2PEO    H17   55   2.298   3.163   3.564
    2PEO    H18   56   2.360   3.012   3.605
    2PEO     C9   57   2.156   3.000   3.611
    2PEO    H19   58   2.171   2.988   3.719
    2PEO    H20   59   2.124   2.907   3.561
    2PEO     O4   60   2.056   3.094   3.590
    2PEO    C10   61   1.930   3.065   3.650
    2PEO    H21   62   1.866   3.154   3.653
    2PEO    H22   63   1.947   3.022   3.749
    3PET     C9   64   1.853   2.947   3.582
    3PET     H6   65   1.769   2.900   3.635
    3PET     H7   66   1.921   2.861   3.581
    3PET     O2   67   1.811   2.996   3.455
    3PET     C8   68   1.771   2.918   3.352
    3PET     O1   69   1.772   2.789   3.358
    3PET     C4   70   1.717   3.000   3.231
    3PET     C5   71   1.759   3.136   3.211
    3PET     C6   72   1.725   3.199   3.091
    3PET     H4   73   1.747   3.305   3.092
    3PET     H3   74   1.810   3.189   3.290
    3PET     C3   75   1.642   2.936   3.132
    3PET     H2   76   1.613   2.832   3.143
    3PET     C2   77   1.611   3.003   3.017
    3PET     H1   78   1.563   2.946   2.938
    3PET     C1   79   1.648   3.131   2.989
    3PET     C7   80   1.606   3.208   2.869
    3PET     O3   81   1.537   3.158   2.786
    3PET     O4   82   1.665   3.330   2.867
    3PET    C10   83   1.642   3.424   2.762
    3PET     H8   84   1.535   3.446   2.749
    3PET     H9   85   1.691   3.400   2.667
    3PET    C11   86   1.701   3.550   2.808
    3PET    H10   87   1.694   3.563   2.917
    3PET    H11   88   1.650   3.629   2.752
    3PET    C12   89   1.859   3.570   2.785
    3PET    H13   90   1.891   3.667   2.825
    3PET    H14   91   1.873   3.576   2.676
    4PET     C9   92   1.943   3.457   2.834
    4PET     H6   93   1.927   3.432   2.940
    4PET     H7   94   2.049   3.484   2.825
    4PET     O2   95   1.931   3.333   2.748
    4PET     C8   96   1.937   3.210   2.799
    4PET     O1   97   1.952   3.187   2.917
    4PET     C4   98   1.946   3.097   2.698
    4PET     C5   99   1.891   3.108   2.566
    4PET     C6  100   1.887   2.994   2.481
    4PET     H4  101   1.848   3.017   2.382
    4PET     H3  102   1.855   3.206   2.536
    4PET     C3  103   2.012   2.969   2.732
    4PET     H2  104   2.047   2.934   2.829
    4PET     C2  105   2.005   2.864   2.644
    4PET     H1  106   2.047   2.770   2.680
    4PET     C1  107   1.944   2.870   2.517
    4PET     C7  108   1.946   2.746   2.429
    4PET     O3  109   1.886   2.734   2.320
    4PET     O4  110   2.037   2.650   2.471
    4PET    C10  111   2.055   2.533   2.392
    4PET     H8  112   1.959   2.482   2.380
    4PET     H9  113   2.112   2.452   2.441
    4PET    C11  114   2.131   2.551   2.256
    4PET    H10  115   2.221   2.612   2.270
    4PET    H11  116   2.055   2.605   2.199
    4PET    C12  117   2.176   2.419   2.188
    4PET    H13  118   2.087   2.355   2.191
    4PET    H14  119   2.257   2.378   2.250
    5PET     C9  120   2.232   2.444   2.045
    5PET     H6  121   2.163   2.511   1.992
    5PET     H7  122   2.242   2.348   1.994
    5PET     O2  123   2.359   2.510   2.058
    5PET     C8  124   2.472   2.450   2.092
    5PET     O1  125   2.479   2.332   2.093
    5PET     C4  126   2.591   2.540   2.125
    5PET     C5  127   2.721   2.489   2.150
    5PET     C6  128   2.829   2.571   2.196
    5PET     H4  129   2.923   2.518   2.207
    5PET     H3  130   2.750   2.384   2.140
    5PET     C3  131   2.572   2.680   2.122
    5PET     H2  132   2.484   2.741   2.101
    5PET     C2  133   2.689   2.763   2.162
    5PET     H1  134   2.688   2.871   2.148
    5PET     C1  135   2.816   2.711   2.197
    5PET     C7  136   2.926   2.792   2.240
    5PET     O3  137   3.031   2.745   2.277
    5PET     O4  138   2.894   2.930   2.243
    5PET    C10  139   2.992   3.023   2.281
    5PET     H8  140   3.092   3.000   2.241
    5PET     H9  141   2.997   3.033   2.390
    5PET    C11  142   2.948   3.159   2.223
    5PET    H10  143   3.027   3.229   2.256
    5PET    H11  144   2.863   3.198   2.281
    5PET    C12  145   2.925   3.162   2.075
    5PET    H13  146   2.870   3.072   2.047
    5PET    H14  147   3.027   3.168   2.036
    6PEO     C1  148   2.846   3.285   2.023
    6PEO     H3  149   2.747   3.276   2.068
    6PEO     H4  150   2.835   3.281   1.914
    6PEO      O  151   2.925   3.404   2.070
    6PEO     C2  152   2.877   3.539   2.030
    6PEO     H5  153   2.861   3.554   1.922
    6PEO     H6  154   2.949   3.621   2.043
    6PEO     C3  155   2.747   3.579   2.106
    6PEO     H7  156   2.719   3.683   2.089
    6PEO     H8  157   2.768   3.572   2.213
    6PEO     O1  158   2.638   3.500   2.078
    6PEO     C4  159   2.524   3.540   2.166
    6PEO     H9  160   2.477   3.635   2.138
    6PEO    H10  161   2.563   3.561   2.266
    6PEO     C5  162   2.416   3.424   2.177
    6PEO    H11  163   2.357   3.410   2.085
    6PEO    H12  164   2.356   3.461   2.260
    6PEO     O2  165   2.480   3.294   2.196
    6PEO     C6  166   2.538   3.275   2.329
    6PEO    H13  167   2.471   3.318   2.405
    6PEO    H14  168   2.629   3.337   2.320
    6PEO     C7  169   2.591   3.133   2.355
    6PEO    H15  170   2.693   3.146   2.393
    6PEO    H16  171   2.601   3.064   2.270
    6PEO     O3  172   2.515   3.071   2.464
    6PEO     C8  173   2.374   3.031   2.435
    6PEO    H17  174   2.333   3.119   2.385
    6PEO    H18  175   2.323   3.004   2.529
    6PEO     C9  176   2.368   2.918   2.331
    6PEO    H19  177   2.282   2.853   2.352
    6PEO    H20  178   2.461   2.862   2.350
    6PEO     O4  179   2.369   2.977   2.198
    6PEO    C10  180   2.249   3.054   2.153
    6PEO    H21  181   2.263   3.162   2.140
    6PEO    H22  182   2.175   3.042   2.232
    7PET     C9  183   2.202   2.994   2.014
    7PET     H6  184   2.104   3.041   1.999
    7PET     H7  185   2.198   2.886   2.033
    7PET     O2  186   2.304   3.025   1.917
    7PET     C8  187   2.300   3.134   1.845
    7PET     O1  188   2.206   3.215   1.831
    7PET     C4  189   2.442   3.153   1.788
    7PET     C5  190   2.557   3.105   1.858
    7PET     C6  191   2.675   3.102   1.791
    7PET     H4  192   2.760   3.058   1.841
    7PET     H3  193   2.554   3.076   1.962
    7PET     C3  194   2.451   3.192   1.654
    7PET     H2  195   2.362   3.202   1.593
    7PET     C2  196   2.569   3.179   1.585
    7PET     H1  197   2.585   3.184   1.477
    7PET     C1  198   2.688   3.139   1.655
    7PET     C7  199   2.813   3.116   1.582
    7PET     O3  200   2.825   3.086   1.463
    7PET     O4  201   2.922   3.128   1.666
    7PET    C10  202   3.049   3.054   1.640
    7PET     H8  203   3.136   3.089   1.697
    7PET     H9  204   3.084   3.066   1.536
    7PET    C11  205   3.030   2.900   1.662
    7PET    H10  206   3.111   2.844   1.614
    7PET    H11  207   2.939   2.874   1.608
    7PET    C12  208   3.032   2.867   1.810
    7PET    H13  209   2.966   2.924   1.876
    7PET    H14  210   3.135   2.877   1.846
    8PET     C9  211   2.986   2.727   1.830
    8PET     H6  212   3.009   2.703   1.935
    8PET     H7  213   3.038   2.647   1.776
    8PET     O2  214   2.851   2.720   1.814
    8PET     C8  215   2.784   2.599   1.818
    8PET     O1  216   2.830   2.493   1.863
    8PET     C4  217   2.638   2.607   1.785
    8PET     C5  218   2.559   2.487   1.787
    8PET     C6  219   2.417   2.492   1.765
    8PET     H4  220   2.352   2.408   1.742
    8PET     H3  221   2.599   2.386   1.785
    8PET     C3  222   2.572   2.724   1.769
    8PET     H2  223   2.639   2.810   1.767
    8PET     C2  224   2.432   2.743   1.755
    8PET     H1  225   2.394   2.842   1.731
    8PET     C1  226   2.354   2.626   1.761
    8PET     C7  227   2.207   2.634   1.734
    8PET     O3  228   2.129   2.542   1.729
    8PET     O4  229   2.168   2.758   1.716
    8PET    C10  230   2.030   2.768   1.707
    8PET     H8  231   1.982   2.761   1.806
    8PET     H9  232   1.971   2.709   1.636
    8PET    C11  233   2.013   2.916   1.667
    8PET    H10  234   2.029   2.974   1.759
    8PET    H11  235   1.913   2.934   1.625
    8PET    C12  236   2.084   2.990   1.557
    8PET    H13  237   2.186   3.014   1.590
    8PET    H14  238   2.059   3.097   1.557
    9PET     C9  239   2.095   2.926   1.415
    9PET     H6  240   2.109   3.011   1.346
    9PET     H7  241   2.015   2.867   1.369
    9PET     O2  242   2.209   2.840   1.419
    9PET     C8  243   2.338   2.890   1.399
    9PET     O1  244   2.364   3.009   1.400
    9PET     C4  245   2.449   2.793   1.415
    9PET     C5  246   2.424   2.654   1.408
    9PET     C6  247   2.525   2.554   1.441
    9PET     H4  248   2.496   2.451   1.423
    9PET     H3  249   2.327   2.613   1.380
    9PET     C3  250   2.583   2.829   1.451
    9PET     H2  251   2.608   2.934   1.463
    9PET     C2  252   2.685   2.733   1.473
    9PET     H1  253   2.787   2.764   1.498
    9PET     C1  254   2.655   2.594   1.469
    9PET     C7  255   2.768   2.502   1.505
    9PET     O3  256   2.882   2.539   1.537
    9PET     O4  257   2.726   2.369   1.513
    9PET    C10  258   2.830   2.273   1.560
    9PET     H8  259   2.782   2.205   1.631
    9PET     H9  260   2.914   2.322   1.609
    9PET    C11  261   2.871   2.199   1.434
    9PET    H10  262   2.902   2.274   1.361
    9PET    H11  263   2.785   2.141   1.398
    9PET    C12  264   2.987   2.109   1.446
    9PET    H13  265   3.061   2.136   1.522
    9PET    H14  266   3.035   2.104   1.348
   10PET     C9  267   2.946   1.960   1.465
   10PET     H6  268   3.031   1.901   1.499
   10PET     H7  269   2.914   1.913   1.371
   10PET     O2  270   2.856   1.944   1.580
   10PET     C8  271   2.721   1.924   1.548
   10PET     O1  272   2.670   1.924   1.438
   10PET     C4  273   2.651   1.923   1.680
   10PET     C5  274   2.708   1.862   1.795
   10PET     C6  275   2.632   1.859   1.918
   10PET     H4  276   2.676   1.803   2.001
   10PET     H3  277   2.792   1.795   1.777
   10PET     C3  278   2.532   1.986   1.697
   10PET     H2  279   2.487   2.037   1.613
   10PET     C2  280   2.450   1.974   1.815
   10PET     H1  281   2.351   2.018   1.825
   10PET     C1  282   2.508   1.921   1.931
   10PET     C7  283   2.436   1.919   2.053
   10PET     O3  284   2.312   1.926   2.068
   10PET     O4  285   2.522   1.924   2.156
   10PET    C10  286   2.479   1.930   2.292
   10PET     H8  287   2.430   1.834   2.314
   10PET     H9  288   2.396   2.002   2.297
   10PET    C11  289   2.595   1.938   2.387
   10PET    H10  290   2.665   1.854   2.379
   10PET    H11  291   2.564   1.936   2.492
   10PET    C12  292   2.681   2.057   2.356
   10PET    H13  293   2.620   2.147   2.370
   10PET    H14  294   2.713   2.067   2.251
   11PET     C9  295   2.799   2.059   2.454
   11PET     H6  296   2.854   1.965   2.466
   11PET     H7  297   2.762   2.109   2.544
   11PET     O2  298   2.906   2.139   2.390
   11PET     C8  299   2.959   2.084   2.275
   11PET     O1  300   2.949   1.963   2.256
   11PET     C4  301   3.022   2.190   2.185
   11PET     C5  302   3.105   2.297   2.235
   11PET     C6  303   3.159   2.390   2.141
   11PET     H4  304   3.191   2.485   2.184
   11PET     H3  305   3.118   2.308   2.342
   11PET     C3  306   2.998   2.189   2.046
   11PET     H2  307   2.923   2.119   2.010
   11PET     C2  308   3.045   2.282   1.956
   11PET     H1  309   3.010   2.284   1.853
   11PET     C1  310   3.137   2.374   2.001
   11PET     C7  311   3.209   2.465   1.908
   11PET     O3  312   3.280   2.554   1.946
   11PET     O4  313   3.209   2.427   1.781
   11PET    C10  314   3.296   2.481   1.680
   11PET     H8  315   3.281   2.590   1.671
   11PET     H9  316   3.280   2.438   1.580
   11PET    C11  317   3.444   2.473   1.713
   11PET    H10  318   3.479   2.378   1.671
   11PET    H11  319   3.464   2.457   1.820
   11PET    C12  320   3.532   2.575   1.648
   11PET    H13  321   3.529   2.542   1.543
   11PET    H14  322   3.638   2.561   1.674
   12PET     C9  323   3.498   2.726   1.645
   12PET     H6  324   3.403   2.753   1.597
   12PET     H7  325   3.574   2.792   1.604
   12PET     O2  326   3.482   2.768   1.782
   12PET     C8  327   3.449   2.897   1.807
   12PET     O1  328   3.433   2.977   1.719
   12PET     C4  329   3.433   2.934   1.950
   12PET     C5  330   3.422   2.835   2.046
   12PET     C6  331   3.401   2.873   2.187
   12PET     H4  332   3.373   2.800   2.262
   12PET     H3  333   3.417   2.727   2.033
   12PET     C3  334   3.406   3.070   1.993
   12PET     H2  335   3.412   3.147   1.917
   12PET     C2  336   3.390   3.104   2.127
   12PET     H1  337   3.389   3.210   2.150
   12PET     C1  338   3.393   3.008   2.227
   12PET     C7  339   3.382   3.039   2.375
   12PET     O3  340   3.310   3.135   2.409
   12PET     O4  341   3.418   2.945   2.455
   12PET    C10  342   3.374   2.946   2.594
   12PET     H8  343   3.380   2.843   2.629
   12PET     H9  344   3.269   2.972   2.611
   12PET    C11  345   3.477   3.029   2.679
   12PET    H10  346   3.448   3.018   2.784
   12PET    H11  347   3.467   3.136   2.660
   12PET    C12  348   3.629   2.984   2.683
   12PET    H13  349   3.616   2.878   2.708
   12PET    H14  350   3.676   3.034   2.769
   13PET     C9  351   3.725   3.018   2.568
   13PET     H6  352   3.701   2.971   2.472
   13PET     H7  353   3.827   2.996   2.600
   13PET     O2  354   3.710   3.165   2.547
   13PET     C8  355   3.797   3.250   2.611
   13PET     O1  356   3.897   3.215   2.675
   13PET     C4  357   3.777   3.386   2.558
   13PET     C5  358   3.826   3.496   2.628
   13PET     C6  359   3.798   3.628   2.594
   13PET     H4  360   3.840   3.709   2.652
   13PET     H3  361   3.871   3.463   2.721
   13PET     C3  362   3.703   3.414   2.432
   13PET     H2  363   3.651   3.331   2.386
   13PET     C2  364   3.694   3.547   2.394
   13PET     H1  365   3.650   3.576   2.299
   13PET     C1  366   3.739   3.659   2.470
   13PET     C7  367   3.712   3.802   2.423
   13PET     O3  368   3.719   3.896   2.502
   13PET     O4  369   3.686   3.815   2.287
   13PET    C10  370   3.694   3.941   2.222
   13PET     H8  371   3.797   3.977   2.206
   13PET     H9  372   3.645   4.023   2.275
   13PET    C11  373   3.634   3.933   2.076
   13PET    H10  374   3.597   3.833   2.055
   13PET    H11  375   3.726   3.935   2.016
   13PET    C12  376   3.532   4.042   2.038
   13PET    H13  377   3.469   4.001   1.959
   13PET    H14  378   3.581   4.133   2.002
   14PET     C9  379   3.420   4.088   2.131
   14PET     H6  380   3.337   4.092   2.059
   14PET     H7  381   3.429   4.192   2.164
   14PET     O2  382   3.394   4.006   2.241
   14PET     C8  383   3.373   3.867   2.226
   14PET     O1  384   3.347   3.804   2.127
   14PET     C4  385   3.378   3.787   2.360
   14PET     C5  386   3.423   3.845   2.479
   14PET     C6  387   3.452   3.767   2.586
   14PET     H4  388   3.485   3.823   2.672
   14PET     H3  389   3.423   3.954   2.474
   14PET     C3  390   3.352   3.646   2.361
   14PET     H2  391   3.315   3.595   2.272
   14PET     C2  392   3.383   3.562   2.469
   14PET     H1  393   3.376   3.456   2.450
   14PET     C1  394   3.439   3.624   2.582
   14PET     C7  395   3.473   3.549   2.715
   14PET     O3  396   3.477   3.426   2.713
   14PET     O4  397   3.524   3.636   2.817
   14PET    C10  398   3.579   3.566   2.930
   14PET     H8  399   3.652   3.494   2.891
   14PET     H9  400   3.500   3.506   2.976
   14PET    C11  401   3.642   3.668   3.033
   14PET    H10  402   3.560   3.721   3.084
   14PET    H11  403   3.715   3.730   2.980
   14PET    C12  404   3.721   3.596   3.150
   14PET    H13  405   3.639   3.533   3.188
   14PET    H14  406   3.749   3.674   3.222
   15PET     C9  407   3.845   3.513   3.113
   15PET     H6  408   3.917   3.526   3.195
   15PET     H7  409   3.903   3.546   3.027
   15PET     O2  410   3.796   3.374   3.105
   15PET     C8  411   3.887   3.266   3.126
   15PET     O1  412   4.004   3.289   3.158
   15PET     C4  413   3.841   3.125   3.092
   15PET     C5  414   3.703   3.094   3.095
   15PET     C6  415   3.658   2.961   3.060
   15PET     H4  416   3.553   2.932   3.064
   15PET     H3  417   3.628   3.172   3.107
   15PET     C3  418   3.932   3.028   3.076
   15PET     H2  419   4.036   3.051   3.092
   15PET     C2  420   3.889   2.892   3.051
   15PET     H1  421   3.973   2.827   3.030
   15PET     C1  422   3.751   2.858   3.036
   15PET     C7  423   3.708   2.719   2.995
   15PET     O3  424   3.598   2.670   3.020
   15PET     O4  425   3.794   2.660   2.911
   15PET    C10  426   3.761   2.523   2.869
   15PET     H8  427   3.725   2.446   2.938
   15PET     H9  428   3.857   2.482   2.836
   15PET    C11  429   3.666   2.531   2.744
   15PET    H10  430   3.666   2.634   2.707
   15PET    H11  431   3.564   2.512   2.779
   15PET    C12  432   3.712   2.440   2.635
   15PET    H13  433   3.730   2.341   2.678
   15PET    H14  434   3.809   2.472   2.595
   16PET     C9  435   3.615   2.448   2.514
   16PET     H6  436   3.654   2.387   2.432
   16PET     H7  437   3.620   2.551   2.476
   16PET     O2  438   3.479   2.424   2.559
   16PET     C8  439   3.383   2.494   2.492
   16PET     O1  440   3.401   2.573   2.398
   16PET     C4  441   3.240   2.464   2.547
   16PET     C5  442   3.135   2.549   2.512
   16PET     C6  443   3.004   2.521   2.553
   16PET     H4  444   2.927   2.598   2.553
   16PET     H3  445   3.151   2.653   2.484
   16PET     C3  446   3.221   2.336   2.608
   16PET     H2  447   3.298   2.265   2.639
   16PET     C2  448   3.086   2.301   2.633
   16PET     H1  449   3.080   2.209   2.690
   16PET     C1  450   2.975   2.392   2.619
   16PET     C7  451   2.844   2.363   2.675
   16PET     O3  452   2.816   2.263   2.742
   16PET     O4  453   2.747   2.441   2.627
   16PET    C10  454   2.609   2.420   2.652
   16PET     H8  455   2.594   2.427   2.760
   16PET     H9  456   2.582   2.324   2.604
   16PET    C11  457   2.530   2.525   2.563
   16PET    H10  458   2.577   2.534   2.465
   16PET    H11  459   2.535   2.620   2.619
   16PET    C12  460   2.379   2.503   2.546
   16PET    H13  461   2.374   2.419   2.476
   16PET    H14  462   2.334   2.583   2.487
   17PET     C9  463   2.304   2.475   2.678
   17PET     H6  464   2.197   2.487   2.662
   17PET     H7  465   2.322   2.550   2.756
   17PET     O2  466   2.329   2.331   2.701
   17PET     C8  467   2.245   2.265   2.793
   17PET     O1  468   2.166   2.323   2.860
   17PET     C4  469   2.276   2.116   2.820
   17PET     C5  470   2.375   2.047   2.750
   17PET     C6  471   2.395   1.912   2.775
   17PET     H4  472   2.465   1.854   2.717
   17PET     H3  473   2.429   2.089   2.666
   17PET     C3  474   2.196   2.047   2.917
   17PET     H2  475   2.104   2.096   2.947
   17PET     C2  476   2.213   1.905   2.932
   17PET     H1  477   2.147   1.846   2.995
   17PET     C1  478   2.314   1.839   2.867
   17PET     C7  479   2.328   1.689   2.888
   17PET     O3  480   2.238   1.619   2.934
   17PET     O4  481   2.448   1.632   2.836
   17PET    C10  482   2.474   1.493   2.841
   17PET     H8  483   2.562   1.470   2.779
   17PET     H9  484   2.378   1.442   2.828
   17PET    C11  485   2.516   1.461   2.978
   17PET    H10  486   2.443   1.495   3.052
   17PET    H11  487   2.612   1.506   3.006
   17PET    C12  488   2.535   1.306   3.010
   17PET    H13  489   2.542   1.288   3.118
   17PET    H14  490   2.623   1.266   2.959
   18PET     C9  491   2.429   1.212   2.960
   18PET     H6  492   2.448   1.108   2.988
   18PET     H7  493   2.422   1.222   2.851
   18PET     O2  494   2.313   1.269   3.014
   18PET     C8  495   2.187   1.207   2.994
   18PET     O1  496   2.175   1.100   2.940
   18PET     C4  497   2.078   1.284   3.055
   18PET     C5  498   2.093   1.394   3.141
   18PET     C6  499   1.980   1.474   3.176
   18PET     H4  500   1.995   1.564   3.235
   18PET     H3  501   2.192   1.422   3.177
   18PET     C3  502   1.945   1.259   3.007
   18PET     H2  503   1.940   1.186   2.927
   18PET     C2  504   1.834   1.338   3.043
   18PET     H1  505   1.740   1.322   2.991
   18PET     C1  506   1.847   1.448   3.127
   18PET     C7  507   1.720   1.532   3.160
   18PET     O3  508   1.612   1.524   3.109
   18PET     O4  509   1.755   1.632   3.246
   18PET    C10  510   1.654   1.718   3.284
   18PET     H8  511   1.561   1.661   3.299
   18PET     H9  512   1.633   1.795   3.209
   18PET    C11  513   1.705   1.805   3.413
   18PET    H10  514   1.622   1.867   3.448
   18PET    H11  515   1.778   1.859   3.351
   18PET    C12  516   1.769   1.722   3.527
   18PET    H13  517   1.859   1.666   3.499
   18PET    H14  518   1.689   1.659   3.569
   19PET     C9  519   1.802   1.822   3.637
   19PET     H6  520   1.775   1.780   3.735
   19PET     H7  521   1.734   1.908   3.626
   19PET     O2  522   1.934   1.853   3.630
   19PET     C8  523   1.979   1.983   3.648
   19PET     O1  524   1.904   2.075   3.681
   19PET     C4  525   2.122   1.996   3.612
   19PET     C5  526   2.188   1.906   3.521
   19PET     C6  527   2.317   1.941   3.476
   19PET     H4  528   2.370   1.887   3.398
   19PET     H3  529   2.132   1.832   3.465
   19PET     C3  530   2.193   2.099   3.667
   19PET     H2  531   2.153   2.162   3.745
   19PET     C2  532   2.336   2.110   3.636
   19PET     H1  533   2.390   2.195   3.676
   19PET     C1  534   2.394   2.026   3.545
   19PET     C7  535   2.544   2.058   3.509
   19PET     O3  536   2.625   2.113   3.590
   19PET     O4  537   2.577   2.042   3.376
   19PET    C10  538   2.711   2.051   3.325
   19PET     H8  539   2.774   1.970   3.363
   19PET     H9  540   2.754   2.145   3.361
   19PET    C11  541   2.708   2.047   3.164
   19PET    H10  542   2.806   2.024   3.122
   19PET    H11  543   2.678   2.152   3.148
   19PET    C12  544   2.603   1.963   3.095
   19PET    H13  545   2.573   2.011   3.001
   19PET    H14  546   2.512   1.967   3.156
   20PET     C9  547   2.643   1.808   3.076
   20PET     H6  548   2.570   1.742   3.027
   20PET     H7  549   2.633   1.762   3.175
   20PET     O2  550   2.782   1.808   3.027
   20PET     C8  551   2.802   1.801   2.891
   20PET     O1  552   2.713   1.773   2.809
   20PET     C4  553   2.941   1.822   2.849
   20PET     C5  554   3.038   1.857   2.947
   20PET     C6  555   3.173   1.863   2.913
   20PET     H4  556   3.255   1.862   2.983
   20PET     H3  557   3.027   1.852   3.055
   20PET     C3  558   2.976   1.828   2.715
   20PET     H2  559   2.905   1.801   2.638
   20PET     C2  560   3.113   1.855   2.677
   20PET     H1  561   3.127   1.851   2.569
   20PET     C1  562   3.210   1.869   2.778
   20PET     C7  563   3.356   1.881   2.730
   20PET     O3  564   3.385   1.895   2.615
   20PET     O4  565   3.449   1.865   2.829
   20PET    C10  566   3.582   1.891   2.784
   20PET     H8  567   3.594   1.849   2.684
   20PET     H9  568   3.662   1.849   2.847
   20PET    C11  569   3.596   2.044   2.798
   20PET    H10  570   3.512   2.084   2.739
   20PET    H11  571   3.684   2.086   2.748
   20PET    C12  572   3.604   2.102   2.934
   20PET    H13  573   3.677   2.183   2.935
   20PET    H14  574   3.655   2.029   2.999
   21PET     C9  575   3.475   2.128   3.007
   21PET     H6  576   3.500   2.136   3.114
   21PET     H7  577   3.403   2.046   2.998
   21PET     O2  578   3.411   2.255   2.961
   21PET     C8  579   3.276   2.257   2.971
   21PET     O1  580   3.208   2.157   2.985
   21PET     C4  581   3.219   2.398   2.950
   21PET     C5  582   3.081   2.425   2.956
   21PET     C6  583   3.033   2.547   2.941
   21PET     H4  584   2.926   2.568   2.944
   21PET     H3  585   3.015   2.342   2.978
   21PET     C3  586   3.309   2.505   2.935
   21PET     H2  587   3.416   2.492   2.948
   21PET     C2  588   3.263   2.631   2.915
   21PET     H1  589   3.333   2.713   2.903
   21PET     C1  590   3.123   2.651   2.915
   21PET     C7  591   3.075   2.792   2.887
   21PET     O3  592   3.153   2.892   2.900
   21PET     O4  593   2.958   2.794   2.813
   21PET    C10  594   2.903   2.920   2.781
   21PET     H8  595   2.972   2.988   2.729
   21PET     H9  596   2.881   2.974   2.874
   21PET    C11  597   2.772   2.906   2.701
   21PET    H10  598   2.798   2.884   2.597
   21PET    H11  599   2.724   3.005   2.698
   21PET    C12  600   2.676   2.811   2.762
   21PET    H13  601   2.726   2.713   2.751
   21PET    H14  602   2.589   2.800   2.696
   22PET     C9  603   2.645   2.849   2.913
   22PET     H6  604   2.609   2.953   2.922
   22PET     H7  605   2.741   2.840   2.964
   22PET     O2  606   2.548   2.763   2.975
   22PET     C8  607   2.594   2.632   2.993
   22PET     O1  608   2.711   2.605   2.984
   22PET     C4  609   2.490   2.531   3.044
   22PET     C5  610   2.360   2.566   3.061
   22PET     C6  611   2.256   2.482   3.106
   22PET     H4  612   2.151   2.508   3.119
   22PET     H3  613   2.327   2.669   3.050
   22PET     C3  614   2.523   2.397   3.069
   22PET     H2  615   2.626   2.361   3.062
   22PET     C2  616   2.428   2.309   3.114
   22PET     H1  617   2.462   2.207   3.127
   22PET     C1  618   2.292   2.347   3.136
   22PET     C7  619   2.203   2.249   3.197
   22PET     O3  620   2.240   2.139   3.228
   22PET     O4  621   2.080   2.295   3.236
   22PET    C10  622   1.993   2.207   3.316
   22PET     H8  623   2.030   2.178   3.415
   22PET     H9  624   1.967   2.118   3.258
   22PET    C11  625   1.867   2.298   3.331
   22PET    H10  626   1.791   2.232   3.374
   22PET    H11  627   1.828   2.334   3.235
   22PET    C12  628   1.883   2.424   3.415
   22PET    H13  629   1.790   2.482   3.420
   22PET    H14  630   1.952   2.488   3.359
   23PET     C9  631   1.935   2.414   3.557
   23PET     H6  632   1.880   2.336   3.611
   23PET     H7  633   1.900   2.509   3.597
   23PET     O2  634   2.082   2.407   3.543
   23PET     C8  635   2.150   2.521   3.519
   23PET     O1  636   2.097   2.627   3.529
   23PET     C4  637   2.291   2.513   3.479
   23PET     C5  638   2.387   2.619   3.493
   23PET     C6  639   2.517   2.613   3.451
   23PET     H4  640   2.575   2.703   3.435
   23PET     H3  641   2.358   2.719   3.525
   23PET     C3  642   2.348   2.393   3.439
   23PET     H2  643   2.281   2.308   3.432
   23PET     C2  644   2.480   2.381   3.405
   23PET     H1  645   2.523   2.287   3.373
   23PET     C1  646   2.574   2.489   3.415
   23PET     C7  647   2.713   2.468   3.363
   23PET     O3  648   2.734   2.372   3.281
   23PET     O4  649   2.808   2.557   3.412
   23PET    C10  650   2.948   2.548   3.382
   23PET     H8  651   2.982   2.445   3.363
   23PET     H9  652   3.019   2.585   3.458
   23PET    C11  653   2.955   2.611   3.242
   23PET    H10  654   2.880   2.570   3.173
   23PET    H11  655   3.058   2.587   3.214
   23PET    C12  656   2.933   2.761   3.227
   23PET    H13  657   2.946   2.777   3.119
   23PET    H14  658   3.015   2.824   3.264
   24PET     C9  659   2.802   2.817   3.281
   24PET     H6  660   2.812   2.818   3.390
   24PET     H7  661   2.716   2.755   3.254
   24PET     O2  662   2.795   2.950   3.233
   24PET     C8  663   2.675   3.012   3.245
   24PET     O1  664   2.581   2.949   3.287
   24PET     C4  665   2.666   3.147   3.199
   24PET     C5  666   2.780   3.203   3.126
   24PET     C6  667   2.778   3.333   3.077
   24PET     H4  668   2.870   3.376   3.038
   24PET     H3  669   2.870   3.144   3.110
   24PET     C3  670   2.566   3.235   3.243
   24PET     H2  671   2.492   3.199   3.313
   24PET     C2  672   2.558   3.365   3.184
   24PET     H1  673   2.467   3.419   3.212
   24PET     C1  674   2.667   3.415   3.108
   24PET     C7  675   2.658   3.557   3.065
   24PET     O3  676   2.579   3.634   3.120
   24PET     O4  677   2.772   3.606   3.006
   24PET    C10  678   2.774   3.731   2.937
   24PET     H8  679   2.874   3.745   2.894
   24PET     H9  680   2.738   3.810   3.004
   24PET    C11  681   2.672   3.728   2.816
   24PET    H10  682   2.652   3.830   2.781
   24PET    H11  683   2.572   3.694   2.844
   24PET    C12  684   2.719   3.654   2.682
   24PET    H13  685   2.814   3.700   2.655
   24PET    H14  686   2.638   3.672   2.611
   25PEO     C1  687   2.736   3.497   2.685
   25PEO     H3  688   2.831   3.460   2.727
   25PEO     H4  689   2.742   3.459   2.583
   25PEO      O  690   2.621   3.427   2.749
   25PEO     C2  691   2.615   3.286   2.717
   25PEO     H5  692   2.699   3.239   2.769
   25PEO     H6  693   2.628   3.263   2.611
   25PEO     C3  694   2.477   3.235   2.779
   25PEO     H7  695   2.453   3.264   2.882
   25PEO     H8  696   2.482   3.126   2.776
   25PEO     O1  697   2.372   3.273   2.686
   25PEO     C4  698   2.337   3.410   2.694
   25PEO     H9  699   2.419   3.477   2.667
   25PEO    H10  700   2.300   3.421   2.797
   25PEO     C5  701   2.224   3.437   2.601
   25PEO    H11  702   2.132   3.486   2.635
   25PEO    H12  703   2.190   3.339   2.565
   25PEO     O2  704   2.284   3.512   2.488
   25PEO     C6  705   2.295   3.652   2.522
   25PEO    H13  706   2.357   3.660   2.612
   25PEO    H14  707   2.195   3.681   2.559
   25PEO     C7  708   2.344   3.743   2.405
   25PEO    H15  709   2.286   3.835   2.419
   25PEO    H16  710   2.322   3.705   2.304
   25PEO     O3  711   2.489   3.776   2.416
   25PEO     C8  712   2.549   3.865   2.316
   25PEO    H17  713   2.511   3.968   2.323
   25PEO    H18  714   2.532   3.846   2.209
   25PEO     C9  715   2.699   3.888   2.343
   25PEO    H19  716   2.753   3.802   2.302
   25PEO    H20  717   2.705   3.911   2.450
   25PEO     O4  718   2.735   3.999   2.272
   25PEO    C10  719   2.863   4.058   2.301
   25PEO    H21  720   2.860   4.057   2.411
   25PEO    H22  721   2.868   4.160   2.262
   26PET     C9  722   2.974   3.982   2.230
   26PET     H6  723   3.068   4.037   2.213
   26PET     H7  724   2.940   3.951   2.131
   26PET     O2  725   3.000   3.866   2.307
   26PET     C8  726   3.063   3.876   2.424
   26PET     O1  727   3.118   3.979   2.468
   26PET     C4  728   3.052   3.738   2.493
   26PET     C5  729   3.013   3.616   2.425
   26PET     C6  730   3.018   3.487   2.479
   26PET     H4  731   2.985   3.395   2.432
   26PET     H3  732   2.968   3.623   2.326
   26PET     C3  733   3.098   3.723   2.628
   26PET     H2  734   3.123   3.811   2.687
   26PET     C2  735   3.110   3.593   2.684
   26PET     H1  736   3.153   3.592   2.783
   26PET     C1  737   3.066   3.478   2.609
   26PET     C7  738   3.046   3.351   2.685
   26PET     O3  739   2.995   3.249   2.640
   26PET     O4  740   3.114   3.344   2.797
   26PET    C10  741   3.134   3.216   2.866
   26PET     H8  742   3.205   3.157   2.806
   26PET     H9  743   3.045   3.155   2.888
   26PET    C11  744   3.190   3.242   3.007
   26PET    H10  745   3.216   3.148   3.058
   26PET    H11  746   3.104   3.266   3.070
   26PET    C12  747   3.296   3.352   3.021
   26PET    H13  748   3.256   3.445   2.981
   26PET    H14  749   3.376   3.330   2.950
   27PET     C9  750   3.335   3.392   3.168
   27PET     H6  751   3.344   3.501   3.179
   27PET     H7  752   3.433   3.350   3.192
   27PET     O2  753   3.247   3.330   3.264
   27PET     C8  754   3.122   3.400   3.277
   27PET     O1  755   3.109   3.512   3.230
   27PET     C4  756   3.015   3.331   3.361
   27PET     C5  757   3.037   3.205   3.408
   27PET     C6  758   2.941   3.140   3.485
   27PET     H4  759   2.977   3.041   3.513
   27PET     H3  760   3.130   3.154   3.387
   27PET     C3  761   2.894   3.390   3.381
   27PET     H2  762   2.869   3.489   3.344
   27PET     C2  763   2.801   3.330   3.465
   27PET     H1  764   2.705   3.380   3.480
   27PET     C1  765   2.820   3.194   3.513
   27PET     C7  766   2.712   3.120   3.581
   27PET     O3  767   2.603   3.167   3.615
   27PET     O4  768   2.752   2.998   3.623
   27PET    C10  769   2.658   2.915   3.697
   27PET     H8  770   2.584   2.877   3.625
   27PET     H9  771   2.605   2.965   3.779
   27PET    C11  772   2.734   2.784   3.733
   27PET    H10  773   2.826   2.803   3.790
   27PET    H11  774   2.769   2.746   3.637
   27PET    C12  775   2.657   2.672   3.801
   27PET    H13  776   2.574   2.638   3.739
   27PET    H14  777   2.599   2.716   3.883
   28PEO     C1  778   2.762   2.554   3.845
   28PEO     H3  779   2.845   2.546   3.774
   28PEO     H4  780   2.715   2.456   3.856
   28PEO      O  781   2.828   2.596   3.960
   28PEO     C2  782   2.929   2.499   4.005
   28PEO     H5  783   2.913   2.394   3.979
   28PEO     H6  784   2.935   2.502   4.115
   28PEO     C3  785   3.056   2.534   3.937
   28PEO     H7  786   3.130   2.573   4.008
   28PEO     H8  787   3.039   2.616   3.866
   28PEO     O1  788   3.117   2.426   3.871
   28PEO     C4  789   3.060   2.394   3.740
   28PEO     H9  790   3.087   2.479   3.676
   28PEO    H10  791   2.951   2.379   3.742
   28PEO     C5  792   3.128   2.254   3.689
   28PEO    H11  793   3.072   2.173   3.738
   28PEO    H12  794   3.233   2.252   3.719
   28PEO     O2  795   3.112   2.241   3.547
   28PEO     C6  796   3.164   2.116   3.484
   28PEO    H13  797   3.105   2.030   3.517
   28PEO    H14  798   3.266   2.098   3.520
   28PEO     C7  799   3.167   2.132   3.328
   28PEO    H15  800   3.083   2.194   3.294
   28PEO    H16  801   3.172   2.038   3.273
   28PEO     O3  802   3.279   2.204   3.287
   28PEO     C8  803   3.266   2.343   3.286
   28PEO    H17  804   3.223   2.377   3.381
   28PEO    H18  805   3.195   2.374   3.208
   28PEO     C9  806   3.416   2.388   3.268
   28PEO    H19  807   3.433   2.496   3.257
   28PEO    H20  808   3.455   2.333   3.182
   28PEO     O4  809   3.495   2.344   3.390
   28PEO    C10  810   3.638   2.374   3.374
   28PEO    H21  811   3.666   2.344   3.272
   28PEO    H22  812   3.692   2.304   3.439
   29PEO     C1  813   3.664   2.529   3.384
   29PEO     H3  814   3.623   2.597   3.309
   29PEO     H4  815   3.772   2.538   3.365
   29PEO      O  816   3.635   2.565   3.518
   29PEO     C2  817   3.505   2.593   3.560
   29PEO     H5  818   3.447   2.500   3.567
   29PEO     H6  819   3.461   2.648   3.477
   29PEO     C3  820   3.505   2.679   3.694
   29PEO     H7  821   3.553   2.774   3.669
   29PEO     H8  822   3.568   2.626   3.766
   29PEO     O1  823   3.373   2.683   3.749
   29PEO     C4  824   3.271   2.741   3.672
   29PEO     H9  825   3.183   2.708   3.728
   29PEO    H10  826   3.258   2.693   3.574
   29PEO     C5  827   3.292   2.899   3.663
   29PEO    H11  828   3.368   2.917   3.740
   29PEO    H12  829   3.198   2.954   3.674
   29PEO     O2  830   3.341   2.932   3.534
   29PEO     C6  831   3.394   3.069   3.529
   29PEO    H13  832   3.468   3.080   3.610
   29PEO    H14  833   3.317   3.146   3.544
   29PEO     C7  834   3.457   3.080   3.389
   29PEO    H15  835   3.477   3.186   3.370
   29PEO    H16  836   3.378   3.053   3.318
   29PEO     O3  837   3.570   2.991   3.374
   29PEO     C8  838   3.684   3.022   3.458
   29PEO    H17  839   3.760   2.952   3.422
   29PEO    H18  840   3.668   2.994   3.563
   29PEO     C9  841   3.745   3.156   3.441
   29PEO    H19  842   3.747   3.191   3.337
   29PEO    H20  843   3.853   3.158   3.461
   29PEO     O4  844   3.670   3.258   3.519
   29PEO    C10  845   3.713   3.391   3.499
   29PEO    H21  846   3.760   3.409   3.402
   29PEO    H22  847   3.779   3.416   3.583
   30PET     C9  848   3.593   3.485   3.498
   30PET     H6  849   3.527   3.473   3.411
   30PET     H7  850   3.623   3.589   3.509
   30PET     O2  851   3.517   3.451   3.613
   30PET     C8  852   3.388   3.494   3.612
   30PET     O1  853   3.347   3.589   3.546
   30PET     C4  854   3.306   3.417   3.702
   30PET     C5  855   3.359   3.319   3.789
   30PET     C6  856   3.275   3.259   3.879
   30PET     H4  857   3.327   3.190   3.944
   30PET     H3  858   3.468   3.310   3.793
   30PET     C3  859   3.163   3.445   3.715
   30PET     H2  860   3.117   3.515   3.646
   30PET     C2  861   3.084   3.370   3.803
   30PET     H1  862   2.978   3.391   3.814
   30PET     C1  863   3.141   3.284   3.896
   30PET     C7  864   3.060   3.220   4.009
   30PET     O3  865   2.932   3.227   4.010
   30PET     O4  866   3.132   3.156   4.097
   30PET    C10  867   3.061   3.083   4.207
   30PET     H8  868   2.997   3.004   4.164
   30PET     H9  869   2.993   3.155   4.255
   30PET    C11  870   3.158   3.030   4.312
   30PET    H10  871   3.104   2.977   4.391
   30PET    H11  872   3.211   3.111   4.363
   30PET    C12  873   3.268   2.927   4.254
   30PET    H13  874   3.298   2.870   4.343
   30PET    H14  875   3.244   2.852   4.179
   31SOL     OW  876   0.225   0.275   0.996
   31SOL    HW1  877   0.260   0.258   1.088
   31SOL    HW2  878   0.137   0.230   0.984
   32SOL     OW  879   0.019   0.368   0.647
   32SOL    HW1  880  -0.063   0.411   0.686
   32SOL    HW2  881  -0.009   0.295   0.584
   33SOL     OW  882   1.755   0.607   0.231
   33SOL    HW1  883   1.743   0.594   0.132
   33SOL    HW2  884   1.725   0.526   0.280
   34SOL     OW  885   0.768   1.144   1.023
   34SOL    HW1  886   0.690   1.161   1.083
   34SOL    HW2  887   0.802   1.231   0.987
   35SOL     OW  888   0.231   1.713   0.483
   35SOL    HW1  889   0.265   1.790   0.537
   35SOL    HW2  890   0.275   1.713   0.393
   36SOL     OW  891   1.293   1.228   1.423
   36SOL    HW1  892   1.330   1.155   1.365
   36SOL    HW2  893   1.345   1.233   1.508
   37SOL     OW  894   1.281   0.345   0.944
   37SOL    HW1  895   1.195   0.295   0.931
   37SOL    HW2  896   1.343   0.291   1.000
   38SOL     OW  897   1.394   0.469   1.674
   38SOL    HW1  898   1.374   0.512   1.762
   38SOL    HW2  899   1.472   0.407   1.683
   39SOL     OW  900   0.973   0.890   1.572
   39SOL    HW1  901   1.019   0.806   1.543
   39SOL    HW2  902   0.917   0.924   1.497
   40SOL     OW  903   1.795   1.066   0.873
   40SOL    HW1  904   1.733   1.051   0.797
   40SOL    HW2  905   1.743   1.077   0.958
   41SOL     OW  906   1.227   1.550   1.506
   41SOL    HW1  907   1.233   1.473   1.570
   41SOL    HW2  908   1.175   1.524   1.426
   42SOL     OW  909   1.632   1.377   0.081
   42SOL    HW1  910   1.600   1.471   0.071
   42SOL    HW2  911   1.556   1.314   0.069
   43SOL     OW  912   0.464   1.743   0.323
   43SOL    HW1  913   0.497   1.782   0.409
   43SOL    HW2  914   0.540   1.736   0.258
   44SOL     OW  915   0.935   0.236   0.480
   44SOL    HW1  916   0.887   0.277   0.402
   44SOL    HW2  917   1.034   0.234   0.461
   45SOL     OW  918   0.459   1.152   0.741
   45SOL    HW1  919   0.388   1.125   0.806
   45SOL    HW2  920   0.433   1.124   0.648
   46SOL     OW  921   1.390   0.575   0.078
   46SOL    HW1  922   1.336   0.554   0.159
   46SOL    HW2  923   1.481   0.534   0.087
   47SOL     OW  924   1.064   1.347   1.340
   47SOL    HW1  925   0.984   1.324   1.395
   47SOL    HW2  926   1.147   1.321   1.389
   48SOL     OW  927   1.638   1.099   1.079
   48SOL    HW1  928   1.643   1.180   1.138
   48SOL    HW2  929   1.552   1.101   1.028
   49SOL     OW  930   0.367   1.100   0.501
   49SOL    HW1  931   0.360   1.183   0.445
   49SOL    HW2  932   0.371   1.020   0.441
   50SOL     OW  933   0.354   1.510   1.329
   50SOL    HW1  934   0.333   1.466   1.242
   50SOL    HW2  935   0.451   1.536   1.332
   51SOL     OW  936   0.402   0.751   1.598
   51SOL    HW1  937   0.470   0.806   1.551
   51SOL    HW2  938   0.442   0.663   1.625
   52SOL     OW  939   1.013   0.105   1.770
   52SOL    HW1  940   1.019   0.190   1.718
   52SOL    HW2  941   1.045   0.029   1.713
   53SOL     OW  942   1.303   0.838   0.042
   53SOL    HW1  943   1.337   0.745   0.057
   53SOL    HW2  944   1.321   0.865  -0.053
   54SOL     OW  945   0.339   0.509   1.006
   54SOL    HW1  946   0.287   0.426   0.989
   54SOL    HW2  947   0.416   0.514   0.942
   55SOL     OW  948   1.759   1.747   1.154
   55SOL    HW1  949   1.820   1.777   1.081
   55SOL    HW2  950   1.721   1.658   1.132
   56SOL     OW  951   0.822   1.002   1.372
   56SOL    HW1  952   0.862   1.001   1.280
   56SOL    HW2  953   0.832   1.094   1.412
   57SOL     OW  954   1.440   0.856   1.398
   57SOL    HW1  955   1.383   0.908   1.335
   57SOL    HW2  956   1.536   0.868   1.374
   58SOL     OW  957   0.613   0.842   1.431
   58SOL    HW1  958   0.669   0.923   1.414
   58SOL    HW2  959   0.672   0.762   1.434
   59SOL     OW  960   0.716   0.565   1.708
   59SOL    HW1  961   0.735   0.630   1.782
   59SOL    HW2  962   0.776   0.485   1.717
   60SOL     OW  963   0.661   1.790   0.953
   60SOL    HW1  964   0.615   1.878   0.940
   60SOL    HW2  965   0.760   1.802   0.946
   61SOL     OW  966   1.083   0.984   0.087
   61SOL    HW1  967   1.060   1.037   0.005
   61SOL    HW2  968   1.164   0.928   0.068
   62SOL     OW  969   1.705   1.487   1.104
   62SOL    HW1  970   1.612   1.462   1.077
   62SOL    HW2  971   1.731   1.437   1.186
   63SOL     OW  972   0.317   0.547   1.280
   63SOL    HW1  973   0.355   0.488   1.352
   63SOL    HW2  974   0.357   0.521   1.192
   64SOL     OW  975   0.039   1.077   0.300
   64SOL    HW1  976   0.138   1.066   0.291
   64SOL    HW2  977  -0.001   0.991   0.332
   65SOL     OW  978   0.230   1.434   2.400
   65SOL    HW1  979   0.204   1.530   2.400
   65SOL    HW2  980   0.159   1.380   2.445
   66SOL     OW  981   0.606   0.964   1.985
   66SOL    HW1  982   0.613   1.048   1.931
   66SOL    HW2  983   0.652   0.977   2.073
   67SOL     OW  984   1.594   0.114   3.342
   67SOL    HW1  985   1.576   0.181   3.270
   67SOL    HW2  986   1.591   0.160   3.431
   68SOL     OW  987   0.122   0.643   2.425
   68SOL    HW1  988   0.077   0.555   2.442
   68SOL    HW2  989   0.121   0.697   2.509
   69SOL     OW  990   1.293   1.228   3.285
   69SOL    HW1  991   1.330   1.155   3.227
   69SOL    HW2  992   1.345   1.233   3.370
   70SOL     OW  993   1.394   0.469   3.536
   70SOL    HW1  994   1.374   0.512   3.624
   70SOL    HW2  995   1.472   0.407   3.545
   71SOL     OW  996   1.227   1.550   3.368
   71SOL    HW1  997   1.233   1.473   3.432
   71SOL    HW2  998   1.175   1.524   3.288
   72SOL     OW  999   0.249   1.785   3.103
   72SOL    HW1 1000   0.306   1.720   3.153
   72SOL    HW2 1001   0.233   1.752   3.010
   73SOL     OW 1002   1.547   0.222   3.591
   73SOL    HW1 1003   1.542   0.259   3.683
   73SOL    HW2 1004   1.475   0.153   3.579
   74SOL     OW 1005   0.614   0.122   1.979
   74SOL    HW1 1006   0.712   0.100   1.986
   74SOL    HW2 1007   0.583   0.105   1.886
   75SOL     OW 1008   0.781   0.264   3.611
   75SOL    HW1 1009   0.848   0.203   3.654
   75SOL    HW2 1010   0.708   0.283   3.676
   76SOL     OW 1011   1.429   1.173   2.729
   76SOL    HW1 1012   1.374   1.089   2.722
   76SOL    HW2 1013   1.455   1.202   2.637
   77SOL     OW 1014   1.466   0.590   2.854
   77SOL    HW1 1015   1.436   0.495   2.861
   77SOL    HW2 1016   1.539   0.606   2.920
   78SOL     OW 1017   0.488   1.385   2.036
   78SOL    HW1 1018   0.401   1.370   2.083
   78SOL    HW2 1019   0.471   1.411   1.941
   79SOL     OW 1020   1.664   1.280   2.519
   79SOL    HW1 1021   1.763   1.288   2.533
   79SOL    HW2 1022   1.619   1.364   2.550
   80SOL     OW 1023   1.754   1.223   3.450
   80SOL    HW1 1024   1.845   1.184   3.437
   80SOL    HW2 1025   1.762   1.319   3.474
   81SOL     OW 1026   0.705   1.050   2.230
   81SOL    HW1 1027   0.691   1.057   2.329
   81SOL    HW2 1028   0.789   0.999   2.212
   82SOL     OW 1029   0.566   0.537   2.727
   82SOL    HW1 1030   0.578   0.603   2.653
   82SOL    HW2 1031   0.612   0.571   2.810
   83SOL     OW 1032   1.582   0.639   2.334
   83SOL    HW1 1033   1.551   0.700   2.407
   83SOL    HW2 1034   1.632   0.691   2.265
   84SOL     OW 1035   0.732   0.634   2.926
   84SOL    HW1 1036   0.791   0.608   2.850
   84SOL    HW2 1037   0.704   0.730   2.915
   85SOL     OW 1038   1.388   1.573   2.339
   85SOL    HW1 1039   1.455   1.585   2.265
   85SOL    HW2 1040   1.348   1.662   2.362
   86SOL     OW 1041   0.263   0.326   2.582
   86SOL    HW1 1042   0.184   0.377   2.548
   86SOL    HW2 1043   0.254   0.311   2.680
   87SOL     OW 1044   1.194   1.612   1.893
   87SOL    HW1 1045   1.200   1.519   1.930
   87SOL    HW2 1046   1.135   1.612   1.813
   88SOL     OW 1047   0.075   0.345   1.895
   88SOL    HW1 1048  -0.017   0.317   1.866
   88SOL    HW2 1049   0.106   0.422   1.839
   89SOL     OW 1050   1.493   1.767   2.821
   89SOL    HW1 1051   1.526   1.831   2.752
   89SOL    HW2 1052   1.559   1.761   2.896
   90SOL     OW 1053   0.716   0.565   3.570
   90SOL    HW1 1054   0.735   0.630   3.644
   90SOL    HW2 1055   0.776   0.485   3.579
   91SOL     OW 1056   0.594   0.745   2.514
   91SOL    HW1 1057   0.644   0.830   2.495
   91SOL    HW2 1058   0.506   0.747   2.466
   92SOL     OW 1059   1.777   0.342   3.504
   92SOL    HW1 1060   1.760   0.373   3.410
   92SOL    HW2 1061   1.693   0.305   3.542
   93SOL     OW 1062   0.859   1.374   1.878
   93SOL    HW1 1063   0.813   1.389   1.966
   93SOL    HW2 1064   0.903   1.459   1.848
   94SOL     OW 1065   0.221   1.314   3.706
   94SOL    HW1 1066   0.156   1.241   3.685
   94SOL    HW2 1067   0.225   1.328   3.804
   95SOL     OW 1068   0.428   0.424   2.382
   95SOL    HW1 1069   0.458   0.352   2.320
   95SOL    HW2 1070   0.389   0.384   2.465
   96SOL     OW 1071   1.460   1.505   5.063
   96SOL    HW1 1072   1.484   1.599   5.089
   96SOL    HW2 1073   1.444   1.451   5.145
   97SOL     OW 1074   0.438   0.392   5.223
   97SOL    HW1 1075   0.520   0.336   5.232
   97SOL    HW2 1076   0.357   0.334   5.227
   98SOL     OW 1077   1.689   0.922   4.336
   98SOL    HW1 1078   1.784   0.893   4.344
   98SOL    HW2 1079   1.681   0.987   4.261
   99SOL     OW 1080   0.613   1.365   4.450
   99SOL    HW1 1081   0.564   1.278   4.459
   99SOL    HW2 1082   0.590   1.408   4.363
  100SOL     OW 1083   0.807   0.605   5.189
  100SOL    HW1 1084   0.760   0.602   5.278
  100SOL    HW2 1085   0.756   0.550   5.123
  101SOL     OW 1086   1.041   0.701   4.153
  101SOL    HW1 1087   1.067   0.697   4.249
  101SOL    HW2 1088   0.956   0.650   4.139
  102SOL     OW 1089   0.351   1.801   4.577
  102SOL    HW1 1090   0.401   1.715   4.583
  102SOL    HW2 1091   0.416   1.878   4.574
  103SOL     OW 1092   0.464   1.743   4.047
  103SOL    HW1 1093   0.497   1.782   4.133
  103SOL    HW2 1094   0.540   1.736   3.982
  104SOL     OW 1095   0.781   0.264   5.473
  104SOL    HW1 1096   0.848   0.203   5.516
  104SOL    HW2 1097   0.708   0.283   5.538
  105SOL     OW 1098   0.297   0.035   3.895
  105SOL    HW1 1099   0.346   0.119   3.874
  105SOL    HW2 1100   0.359  -0.030   3.940
  106SOL     OW 1101   0.935   0.236   4.204
  106SOL    HW1 1102   0.887   0.277   4.126
  106SOL    HW2 1103   1.034   0.234   4.185
  107SOL     OW 1104   1.064   1.347   5.064
  107SOL    HW1 1105   0.984   1.324   5.119
  107SOL    HW2 1106   1.147   1.321   5.113
  108SOL     OW 1107   1.638   1.099   4.803
  108SOL    HW1 1108   1.643   1.180   4.862
  108SOL    HW2 1109   1.552   1.101   4.752
  109SOL     OW 1110   0.367   1.100   4.225
  109SOL    HW1 1111   0.360   1.183   4.169
  109SOL    HW2 1112   0.371   1.020   4.165
  110SOL     OW 1113   0.354   1.510   5.053
  110SOL    HW1 1114   0.333   1.466   4.966
  110SOL    HW2 1115   0.451   1.536   5.056
  111SOL     OW 1116   0.402   0.751   5.322
  111SOL    HW1 1117   0.470   0.806   5.275
  111SOL    HW2 1118   0.442   0.663   5.349
  112SOL     OW 1119   1.587   0.779   5.394
  112SOL    HW1 1120   1.495   0.817   5.389
  112SOL    HW2 1121   1.647   0.826   5.329
  113SOL     OW 1122   1.209   0.525   3.999
  113SOL    HW1 1123   1.222   0.441   4.053
  113SOL    HW2 1124   1.180   0.599   4.059
  114SOL     OW 1125   0.339   0.509   4.730
  114SOL    HW1 1126   0.287   0.426   4.713
  114SOL    HW2 1127   0.416   0.514   4.666
  115SOL     OW 1128   0.830   1.273   5.146
  115SOL    HW1 1129   0.825   1.306   5.241
  115SOL    HW2 1130   0.744   1.292   5.100
  116SOL     OW 1131   0.672   1.616   3.878
  116SOL    HW1 1132   0.681   1.626   3.779
  116SOL    HW2 1133   0.632   1.527   3.899
  117SOL     OW 1134   1.194   1.612   3.755
  117SOL    HW1 1135   1.200   1.519   3.792
  117SOL    HW2 1136   1.135   1.612   3.675
  118SOL     OW 1137   1.014   0.236   4.695
  118SOL    HW1 1138   1.006   0.200   4.602
  118SOL    HW2 1139   1.012   0.160   4.760
  119SOL     OW 1140   0.105   1.013   5.450
  119SOL    HW1 1141   0.028   0.980   5.504
  119SOL    HW2 1142   0.190   0.983   5.492
  120SOL     OW 1143   0.716   0.565   5.432
  120SOL    HW1 1144   0.735   0.630   5.506
  120SOL    HW2 1145   0.776   0.485   5.441
  121SOL     OW 1146   0.390   1.741   5.284
  121SOL    HW1 1147   0.299   1.782   5.282
  121SOL    HW2 1148   0.383   1.647   5.316
  122SOL     OW 1149   1.225   0.325   4.173
  122SOL    HW1 1150   1.290   0.251   4.162
  122SOL    HW2 1151   1.245   0.375   4.257
  123SOL     OW 1152   0.859   1.374   3.740
  123SOL    HW1 1153   0.813   1.389   3.828
  123SOL    HW2 1154   0.903   1.459   3.710
  124SOL     OW 1155   1.861   1.569   4.575
  124SOL    HW1 1156   1.790   1.557   4.505
  124SOL    HW2 1157   1.862   1.490   4.635
  125SOL     OW 1158   1.352   0.052   3.892
  125SOL    HW1 1159   1.387   0.011   3.808
  125SOL    HW2 1160   1.262   0.014   3.912
  126SOL     OW 1161   0.039   1.077   4.024
  126SOL    HW1 1162   0.138   1.066   4.015
  126SOL    HW2 1163  -0.001   0.991   4.056
  127SOL     OW 1164   0.225   2.137   0.996
  127SOL    HW1 1165   0.260   2.120   1.088
  127SOL    HW2 1166   0.137   2.092   0.984
  128SOL     OW 1167   0.768   3.006   1.023
  128SOL    HW1 1168   0.690   3.023   1.083
  128SOL    HW2 1169   0.802   3.093   0.987
  129SOL     OW 1170   1.603   2.309   0.737
  129SOL    HW1 1171   1.529   2.355   0.687
  129SOL    HW2 1172   1.654   2.377   0.790
  130SOL     OW 1173   0.240   2.953   0.886
  130SOL    HW1 1174   0.254   2.869   0.938
  130SOL    HW2 1175   0.185   3.017   0.941
  131SOL     OW 1176   1.594   1.976   1.480
  131SOL    HW1 1177   1.576   2.043   1.408
  131SOL    HW2 1178   1.591   2.022   1.569
  132SOL     OW 1179   0.464   3.605   0.323
  132SOL    HW1 1180   0.497   3.644   0.409
  132SOL    HW2 1181   0.540   3.598   0.258
  133SOL     OW 1182   0.781   2.126   1.749
  133SOL    HW1 1183   0.848   2.065   1.792
  133SOL    HW2 1184   0.708   2.145   1.814
  134SOL     OW 1185   0.888   3.376   1.195
  134SOL    HW1 1186   0.865   3.351   1.101
  134SOL    HW2 1187   0.949   3.307   1.234
  135SOL     OW 1188   0.866   2.316   0.642
  135SOL    HW1 1189   0.834   2.388   0.580
  135SOL    HW2 1190   0.890   2.235   0.589
  136SOL     OW 1191   1.857   2.695   0.377
  136SOL    HW1 1192   1.899   2.631   0.441
  136SOL    HW2 1193   1.819   2.644   0.299
  137SOL     OW 1194   1.754   3.085   1.588
  137SOL    HW1 1195   1.845   3.046   1.575
  137SOL    HW2 1196   1.762   3.181   1.612
  138SOL     OW 1197   1.111   3.057   1.100
  138SOL    HW1 1198   1.071   3.101   1.181
  138SOL    HW2 1199   1.070   3.094   1.017
  139SOL     OW 1200   1.638   2.961   1.079
  139SOL    HW1 1201   1.643   3.042   1.138
  139SOL    HW2 1202   1.552   2.963   1.028
  140SOL     OW 1203   0.915   1.951   1.402
  140SOL    HW1 1204   0.940   1.931   1.307
  140SOL    HW2 1205   0.987   2.007   1.444
  141SOL     OW 1206   0.367   2.962   0.501
  141SOL    HW1 1207   0.360   3.045   0.445
  141SOL    HW2 1208   0.371   2.882   0.441
  142SOL     OW 1209   0.402   2.613   1.598
  142SOL    HW1 1210   0.470   2.668   1.551
  142SOL    HW2 1211   0.442   2.525   1.625
  143SOL     OW 1212   1.209   2.387   0.275
  143SOL    HW1 1213   1.222   2.303   0.329
  143SOL    HW2 1214   1.180   2.461   0.335
  144SOL     OW 1215   0.307   2.075   1.231
  144SOL    HW1 1216   0.284   2.112   1.321
  144SOL    HW2 1217   0.277   1.980   1.225
  145SOL     OW 1218   0.037   3.172   1.282
  145SOL    HW1 1219   0.090   3.123   1.350
  145SOL    HW2 1220   0.059   3.270   1.287
  146SOL     OW 1221   1.728   2.797   1.854
  146SOL    HW1 1222   1.682   2.790   1.765
  146SOL    HW2 1223   1.666   2.841   1.920
  147SOL     OW 1224   1.622   2.229   0.374
  147SOL    HW1 1225   1.624   2.153   0.438
  147SOL    HW2 1226   1.574   2.306   0.414
  148SOL     OW 1227   1.023   2.628   0.966
  148SOL    HW1 1228   1.038   2.649   1.062
  148SOL    HW2 1229   0.993   2.533   0.957
  149SOL     OW 1230   1.160   2.069   1.477
  149SOL    HW1 1231   1.160   2.133   1.554
  149SOL    HW2 1232   1.188   2.117   1.394
  150SOL     OW 1233   0.088   3.663   0.927
  150SOL    HW1 1234   0.046   3.577   0.900
  150SOL    HW2 1235   0.182   3.666   0.893
  151SOL     OW 1236   1.002   2.658   1.238
  151SOL    HW1 1237   1.043   2.626   1.324
  151SOL    HW2 1238   0.906   2.631   1.235
  152SOL     OW 1239   0.189   2.382   1.722
  152SOL    HW1 1240   0.248   2.342   1.652
  152SOL    HW2 1241   0.131   2.453   1.681
  153SOL     OW 1242   1.369   2.812   1.660
  153SOL    HW1 1243   1.408   2.901   1.680
  153SOL    HW2 1244   1.379   2.792   1.563
  154SOL     OW 1245   0.815   2.434   0.325
  154SOL    HW1 1246   0.822   2.345   0.279
  154SOL    HW2 1247   0.721   2.468   0.317
  155SOL     OW 1248   1.657   2.466   1.206
  155SOL    HW1 1249   1.619   2.397   1.268
  155SOL    HW2 1250   1.739   2.430   1.162
  156SOL     OW 1251   1.252   3.593   1.128
  156SOL    HW1 1252   1.336   3.598   1.074
  156SOL    HW2 1253   1.229   3.497   1.146
  157SOL     OW 1254   0.083   3.120   1.022
  157SOL    HW1 1255   0.078   3.119   1.122
  157SOL    HW2 1256   0.000   3.079   0.984
  158SOL     OW 1257   1.726   1.997   0.523
  158SOL    HW1 1258   1.799   1.980   0.456
  158SOL    HW2 1259   1.695   1.910   0.561
  159SOL     OW 1260   1.280   2.789   0.672
  159SOL    HW1 1261   1.340   2.708   0.674
  159SOL    HW2 1262   1.320   2.858   0.612
  160SOL     OW 1263   0.822   2.864   1.372
  160SOL    HW1 1264   0.862   2.863   1.280
  160SOL    HW2 1265   0.832   2.956   1.412
  161SOL     OW 1266   1.614   3.154   1.289
  161SOL    HW1 1267   1.674   3.157   1.369
  161SOL    HW2 1268   1.539   3.218   1.302
  162SOL     OW 1269   0.105   2.875   1.726
  162SOL    HW1 1270   0.028   2.842   1.780
  162SOL    HW2 1271   0.190   2.845   1.768
  163SOL     OW 1272   0.075   2.207   0.033
  163SOL    HW1 1273  -0.017   2.179   0.004
  163SOL    HW2 1274   0.106   2.284  -0.023
  164SOL     OW 1275   1.674   2.745   1.254
  164SOL    HW1 1276   1.647   2.656   1.217
  164SOL    HW2 1277   1.675   2.813   1.181
  165SOL     OW 1278   1.777   2.204   1.642
  165SOL    HW1 1279   1.760   2.235   1.548
  165SOL    HW2 1280   1.693   2.167   1.680
  166SOL     OW 1281   1.424   2.076   1.112
  166SOL    HW1 1282   1.476   2.011   1.167
  166SOL    HW2 1283   1.375   2.139   1.173
  167SOL     OW 1284   0.230   2.490   1.975
  167SOL    HW1 1285   0.137   2.488   2.012
  167SOL    HW2 1286   0.231   2.451   1.883
  168SOL     OW 1287   1.755   2.469   2.093
  168SOL    HW1 1288   1.743   2.456   1.994
  168SOL    HW2 1289   1.725   2.388   2.142
  169SOL     OW 1290   0.027   3.458   1.979
  169SOL    HW1 1291   0.008   3.362   2.000
  169SOL    HW2 1292  -0.006   3.516   2.054
  170SOL     OW 1293   0.598   2.591   2.132
  170SOL    HW1 1294   0.622   2.660   2.064
  170SOL    HW2 1295   0.520   2.624   2.186
  171SOL     OW 1296   0.991   2.272   3.104
  171SOL    HW1 1297   0.914   2.306   3.158
  171SOL    HW2 1298   0.957   2.221   3.025
  172SOL     OW 1299   0.865   2.210   2.057
  172SOL    HW1 1300   0.924   2.273   2.008
  172SOL    HW2 1301   0.884   2.116   2.028
  173SOL     OW 1302   1.719   2.447   3.693
  173SOL    HW1 1303   1.693   2.536   3.657
  173SOL    HW2 1304   1.717   2.379   3.620
  174SOL     OW 1305   1.362   3.006   2.407
  174SOL    HW1 1306   1.445   2.977   2.359
  174SOL    HW2 1307   1.313   3.073   2.351
  175SOL     OW 1308   1.008   3.318   2.339
  175SOL    HW1 1309   0.962   3.390   2.287
  175SOL    HW2 1310   1.004   3.338   2.437
  176SOL     OW 1311   0.351   3.663   2.715
  176SOL    HW1 1312   0.401   3.577   2.721
  176SOL    HW2 1313   0.416   3.740   2.712
  177SOL     OW 1314   1.547   2.084   3.591
  177SOL    HW1 1315   1.542   2.121   3.683
  177SOL    HW2 1316   1.475   2.015   3.579
  178SOL     OW 1317   1.076   2.545   3.326
  178SOL    HW1 1318   0.996   2.484   3.329
  178SOL    HW2 1319   1.157   2.492   3.302
  179SOL     OW 1320   0.078   2.418   3.248
  179SOL    HW1 1321   0.170   2.417   3.207
  179SOL    HW2 1322   0.072   2.492   3.315
  180SOL     OW 1323   0.866   2.316   2.504
  180SOL    HW1 1324   0.834   2.388   2.442
  180SOL    HW2 1325   0.890   2.235   2.451
  181SOL     OW 1326   1.390   2.437   1.940
  181SOL    HW1 1327   1.336   2.416   2.021
  181SOL    HW2 1328   1.481   2.396   1.949
  182SOL     OW 1329   0.915   1.951   3.264
  182SOL    HW1 1330   0.940   1.931   3.169
  182SOL    HW2 1331   0.987   2.007   3.306
  183SOL     OW 1332   0.367   2.962   2.363
  183SOL    HW1 1333   0.360   3.045   2.307
  183SOL    HW2 1334   0.371   2.882   2.303
  184SOL     OW 1335   0.354   3.372   3.191
  184SOL    HW1 1336   0.333   3.328   3.104
  184SOL    HW2 1337   0.451   3.398   3.194
  185SOL     OW 1338   0.504   1.912   3.602
  185SOL    HW1 1339   0.462   1.855   3.532
  185SOL    HW2 1340   0.438   1.981   3.634
  186SOL     OW 1341   1.360   2.724   2.907
  186SOL    HW1 1342   1.285   2.724   2.841
  186SOL    HW2 1343   1.397   2.632   2.916
  187SOL     OW 1344   0.037   3.172   3.144
  187SOL    HW1 1345   0.090   3.123   3.212
  187SOL    HW2 1346   0.059   3.270   3.149
  188SOL     OW 1347   0.307   1.925   2.480
  188SOL    HW1 1348   0.296   2.019   2.513
  188SOL    HW2 1349   0.302   1.862   2.557
  189SOL     OW 1350   1.859   3.380   3.467
  189SOL    HW1 1351   1.873   3.407   3.372
  189SOL    HW2 1352   1.942   3.402   3.520
  190SOL     OW 1353   0.088   3.663   2.789
  190SOL    HW1 1354   0.046   3.577   2.762
  190SOL    HW2 1355   0.182   3.666   2.755
  191SOL     OW 1356   1.002   2.658   3.100
  191SOL    HW1 1357   1.043   2.626   3.186
  191SOL    HW2 1358   0.906   2.631   3.097
  192SOL     OW 1359   0.159   2.999   3.328
  192SOL    HW1 1360   0.181   2.938   3.404
  192SOL    HW2 1361   0.169   2.950   3.242
  193SOL     OW 1362   1.347   2.921   3.096
  193SOL    HW1 1363   1.371   2.858   3.022
  193SOL    HW2 1364   1.257   2.961   3.078
  194SOL     OW 1365   1.650   3.582   3.256
  194SOL    HW1 1366   1.703   3.592   3.172
  194SOL    HW2 1367   1.623   3.672   3.290
  195SOL     OW 1368   1.504   3.469   1.906
  195SOL    HW1 1369   1.412   3.506   1.913
  195SOL    HW2 1370   1.542   3.489   1.816
  196SOL     OW 1371   0.255   3.210   2.152
  196SOL    HW1 1372   0.159   3.211   2.125
  196SOL    HW2 1373   0.267   3.263   2.236
  197SOL     OW 1374   1.450   3.082   3.495
  197SOL    HW1 1375   1.441   3.072   3.594
  197SOL    HW2 1376   1.546   3.075   3.469
  198SOL     OW 1377   0.859   3.236   1.878
  198SOL    HW1 1378   0.813   3.251   1.966
  198SOL    HW2 1379   0.903   3.321   1.848
  199SOL     OW 1380   0.221   3.176   3.706
  199SOL    HW1 1381   0.156   3.103   3.685
  199SOL    HW2 1382   0.225   3.190   3.804
  200SOL     OW 1383   0.618   3.429   3.146
  200SOL    HW1 1384   0.613   3.511   3.203
  200SOL    HW2 1385   0.707   3.426   3.101
  201SOL     OW 1386   1.135   2.565   4.441
  201SOL    HW1 1387   1.192   2.643   4.416
  201SOL    HW2 1388   1.075   2.591   4.517
  202SOL     OW 1389   1.755   2.469   3.955
  202SOL    HW1 1390   1.743   2.456   3.856
  202SOL    HW2 1391   1.725   2.388   4.004
  203SOL     OW 1392   0.231   3.575   4.207
  203SOL    HW1 1393   0.265   3.652   4.261
  203SOL    HW2 1394   0.275   3.575   4.117
  204SOL     OW 1395   1.466   3.279   4.677
  204SOL    HW1 1396   1.407   3.285   4.757
  204SOL    HW2 1397   1.451   3.191   4.631
  205SOL     OW 1398   1.667   3.576   4.296
  205SOL    HW1 1399   1.626   3.553   4.208
  205SOL    HW2 1400   1.649   3.502   4.361
  206SOL     OW 1401   0.807   2.467   5.189
  206SOL    HW1 1402   0.760   2.464   5.278
  206SOL    HW2 1403   0.756   2.412   5.123
  207SOL     OW 1404   0.076   2.673   4.513
  207SOL    HW1 1405   0.175   2.661   4.522
  207SOL    HW2 1406   0.052   2.768   4.534
  208SOL     OW 1407   1.362   3.006   4.269
  208SOL    HW1 1408   1.445   2.977   4.221
  208SOL    HW2 1409   1.313   3.073   4.213
  209SOL     OW 1410   1.008   3.318   4.201
  209SOL    HW1 1411   0.962   3.390   4.149
  209SOL    HW2 1412   1.004   3.338   4.299
  210SOL     OW 1413   1.632   3.239   3.805
  210SOL    HW1 1414   1.600   3.333   3.795
  210SOL    HW2 1415   1.556   3.176   3.793
  211SOL     OW 1416   0.561   2.084   4.871
  211SOL    HW1 1417   0.599   2.000   4.908
  211SOL    HW2 1418   0.473   2.103   4.915
  212SOL     OW 1419   1.638   2.961   4.803
  212SOL    HW1 1420   1.643   3.042   4.862
  212SOL    HW2 1421   1.552   2.963   4.752
  213SOL     OW 1422   0.566   2.399   4.589
  213SOL    HW1 1423   0.578   2.465   4.515
  213SOL    HW2 1424   0.612   2.433   4.672
  214SOL     OW 1425   1.252   3.210   4.112
  214SOL    HW1 1426   1.302   3.287   4.152
  214SOL    HW2 1427   1.157   3.212   4.144
  215SOL     OW 1428   0.573   2.732   4.753
  215SOL    HW1 1429   0.617   2.821   4.744
  215SOL    HW2 1430   0.510   2.732   4.830
  216SOL     OW 1431   1.360   2.724   4.769
  216SOL    HW1 1432   1.285   2.724   4.703
  216SOL    HW2 1433   1.397   2.632   4.778
  217SOL     OW 1434   0.307   2.075   4.955
  217SOL    HW1 1435   0.284   2.112   5.045
  217SOL    HW2 1436   0.277   1.980   4.949
  218SOL     OW 1437   1.023   2.628   4.690
  218SOL    HW1 1438   1.038   2.649   4.786
  218SOL    HW2 1439   0.993   2.533   4.681
  219SOL     OW 1440   1.303   2.700   3.766
  219SOL    HW1 1441   1.337   2.607   3.781
  219SOL    HW2 1442   1.321   2.727   3.671
  220SOL     OW 1443   1.068   3.195   4.573
  220SOL    HW1 1444   1.075   3.111   4.518
  220SOL    HW2 1445   1.130   3.264   4.537
  221SOL     OW 1446   0.008   3.188   3.924
  221SOL    HW1 1447  -0.085   3.209   3.893
  221SOL    HW2 1448   0.018   3.089   3.937
  222SOL     OW 1449   0.252   3.426   5.468
  222SOL    HW1 1450   0.222   3.483   5.544
  222SOL    HW2 1451   0.245   3.329   5.494
  223SOL     OW 1452   0.159   2.999   5.190
  223SOL    HW1 1453   0.181   2.938   5.266
  223SOL    HW2 1454   0.169   2.950   5.104
  224SOL     OW 1455   1.347   2.921   4.958
  224SOL    HW1 1456   1.371   2.858   4.884
  224SOL    HW2 1457   1.257   2.961   4.940
  225SOL     OW 1458   1.726   1.997   4.247
  225SOL    HW1 1459   1.799   1.980   4.180
  225SOL    HW2 1460   1.695   1.910   4.285
  226SOL     OW 1461   0.916   2.772   4.015
  226SOL    HW1 1462   0.979   2.810   3.947
  226SOL    HW2 1463   0.956   2.689   4.054
  227SOL     OW 1464   1.614   3.154   5.013
  227SOL    HW1 1465   1.674   3.157   5.093
  227SOL    HW2 1466   1.539   3.218   5.026
  228SOL     OW 1467   1.039   2.960   4.420
  228SOL    HW1 1468   0.969   2.913   4.474
  228SOL    HW2 1469   1.098   2.892   4.377
  229SOL     OW 1470   1.014   2.098   4.695
  229SOL    HW1 1471   1.006   2.062   4.602
  229SOL    HW2 1472   1.012   2.022   4.760
  230SOL     OW 1473   0.255   3.210   4.014
  230SOL    HW1 1474   0.159   3.211   3.987
  230SOL    HW2 1475   0.267   3.263   4.098
  231SOL     OW 1476   1.674   2.745   4.978
  231SOL    HW1 1477   1.647   2.656   4.941
  231SOL    HW2 1478   1.675   2.813   4.905
  232SOL     OW 1479   0.594   2.607   4.376
  232SOL    HW1 1480   0.644   2.692   4.357
  232SOL    HW2 1481   0.506   2.609   4.328
  233SOL     OW 1482   0.859   3.236   3.740
  233SOL    HW1 1483   0.813   3.251   3.828
  233SOL    HW2 1484   0.903   3.321   3.710
  234SOL     OW 1485   1.861   3.431   4.575
  234SOL    HW1 1486   1.790   3.419   4.505
  234SOL    HW2 1487   1.862   3.352   4.635
  235SOL     OW 1488   0.770   3.192   4.025
  235SOL    HW1 1489   0.724   3.105   4.042
  235SOL    HW2 1490   0.861   3.189   4.066
  236SOL     OW 1491   1.593   2.083   4.606
  236SOL    HW1 1492   1.509   2.082   4.660
  236SOL    HW2 1493   1.595   2.166   4.550
  237SOL     OW 1494   0.039   2.939   4.024
  237SOL    HW1 1495   0.138   2.928   4.015
  237SOL    HW2 1496  -0.001   2.853   4.056
  238SOL     OW 1497   0.768   4.868   1.023
  238SOL    HW1 1498   0.690   4.885   1.083
  238SOL    HW2 1499   0.802   4.955   0.987
  239SOL     OW 1500   0.606   4.688   0.123
  239SOL    HW1 1501   0.613   4.772   0.069
  239SOL    HW2 1502   0.652   4.701   0.211
  240SOL     OW 1503   1.689   4.646   0.612
  240SOL    HW1 1504   1.784   4.617   0.620
  240SOL    HW2 1505   1.681   4.711   0.537
  241SOL     OW 1506   0.809   3.728   0.502
  241SOL    HW1 1507   0.849   3.819   0.493
  241SOL    HW2 1508   0.709   3.736   0.508
  242SOL     OW 1509   1.466   5.141   0.953
  242SOL    HW1 1510   1.407   5.147   1.033
  242SOL    HW2 1511   1.451   5.053   0.907
  243SOL     OW 1512   1.576   5.386   0.307
  243SOL    HW1 1513   1.665   5.432   0.310
  243SOL    HW2 1514   1.555   5.362   0.212
  244SOL     OW 1515   1.041   4.425   0.429
  244SOL    HW1 1516   1.067   4.421   0.525
  244SOL    HW2 1517   0.956   4.374   0.415
  245SOL     OW 1518   0.550   3.920   0.885
  245SOL    HW1 1519   0.545   3.915   0.985
  245SOL    HW2 1520   0.552   4.016   0.856
  246SOL     OW 1521   1.008   5.180   0.477
  246SOL    HW1 1522   0.962   5.252   0.425
  246SOL    HW2 1523   1.004   5.200   0.575
  247SOL     OW 1524   0.202   4.009   1.498
  247SOL    HW1 1525   0.122   4.069   1.485
  247SOL    HW2 1526   0.192   3.960   1.584
  248SOL     OW 1527   0.382   4.424   0.480
  248SOL    HW1 1528   0.427   4.334   0.477
  248SOL    HW2 1529   0.288   4.413   0.513
  249SOL     OW 1530   0.459   4.876   0.741
  249SOL    HW1 1531   0.388   4.849   0.806
  249SOL    HW2 1532   0.433   4.848   0.648
  250SOL     OW 1533   1.032   4.273   0.016
  250SOL    HW1 1534   0.991   4.355  -0.023
  250SOL    HW2 1535   1.096   4.299   0.089
  251SOL     OW 1536   0.561   3.946   1.147
  251SOL    HW1 1537   0.599   3.862   1.184
  251SOL    HW2 1538   0.473   3.965   1.191
  252SOL     OW 1539   1.390   4.299   0.078
  252SOL    HW1 1540   1.336   4.278   0.159
  252SOL    HW2 1541   1.481   4.258   0.087
  253SOL     OW 1542   1.754   4.947   1.588
  253SOL    HW1 1543   1.845   4.908   1.575
  253SOL    HW2 1544   1.762   5.043   1.612
  254SOL     OW 1545   1.064   5.071   1.340
  254SOL    HW1 1546   0.984   5.048   1.395
  254SOL    HW2 1547   1.147   5.045   1.389
  255SOL     OW 1548   1.252   5.072   0.388
  255SOL    HW1 1549   1.302   5.149   0.428
  255SOL    HW2 1550   1.157   5.074   0.420
  256SOL     OW 1551   1.272   5.169   1.142
  256SOL    HW1 1552   1.319   5.182   1.229
  256SOL    HW2 1553   1.206   5.095   1.151
  257SOL     OW 1554   1.209   4.249   0.275
  257SOL    HW1 1555   1.222   4.165   0.329
  257SOL    HW2 1556   1.180   4.323   0.335
  258SOL     OW 1557   1.728   4.659   1.854
  258SOL    HW1 1558   1.682   4.652   1.765
  258SOL    HW2 1559   1.666   4.703   1.920
  259SOL     OW 1560   0.339   4.233   1.006
  259SOL    HW1 1561   0.287   4.150   0.989
  259SOL    HW2 1562   0.416   4.238   0.942
  260SOL     OW 1563   0.504   5.292   0.910
  260SOL    HW1 1564   0.570   5.366   0.919
  260SOL    HW2 1565   0.548   5.213   0.868
  261SOL     OW 1566   1.657   4.328   1.206
  261SOL    HW1 1567   1.619   4.259   1.268
  261SOL    HW2 1568   1.739   4.292   1.162
  262SOL     OW 1569   0.473   4.224   0.191
  262SOL    HW1 1570   0.534   4.304   0.195
  262SOL    HW2 1571   0.378   4.255   0.198
  263SOL     OW 1572   0.903   3.810   0.133
  263SOL    HW1 1573   0.954   3.811   0.047
  263SOL    HW2 1574   0.959   3.768   0.204
  264SOL     OW 1575   1.280   4.651   0.672
  264SOL    HW1 1576   1.340   4.570   0.674
  264SOL    HW2 1577   1.320   4.720   0.612
  265SOL     OW 1578   0.822   4.726   1.372
  265SOL    HW1 1579   0.862   4.725   1.280
  265SOL    HW2 1580   0.832   4.818   1.412
  266SOL     OW 1581   0.916   4.634   0.291
  266SOL    HW1 1582   0.979   4.672   0.223
  266SOL    HW2 1583   0.956   4.551   0.330
  267SOL     OW 1584   0.075   4.069   0.033
  267SOL    HW1 1585  -0.017   4.041   0.004
  267SOL    HW2 1586   0.106   4.146  -0.023
  268SOL     OW 1587   1.183   5.059   0.119
  268SOL    HW1 1588   1.084   5.048   0.121
  268SOL    HW2 1589   1.217   5.074   0.212
  269SOL     OW 1590   1.730   4.658   1.517
  269SOL    HW1 1591   1.768   4.749   1.532
  269SOL    HW2 1592   1.722   4.641   1.418
  270SOL     OW 1593   1.824   3.916   1.227
  270SOL    HW1 1594   1.820   3.826   1.271
  270SOL    HW2 1595   1.827   3.905   1.128
  271SOL     OW 1596   0.335   5.159   2.923
  271SOL    HW1 1597   0.257   5.128   2.870
  271SOL    HW2 1598   0.393   5.217   2.866
  272SOL     OW 1599   1.594   3.838   3.342
  272SOL    HW1 1600   1.576   3.905   3.270
  272SOL    HW2 1601   1.591   3.884   3.431
  273SOL     OW 1602   0.613   5.089   2.588
  273SOL    HW1 1603   0.564   5.002   2.597
  273SOL    HW2 1604   0.590   5.132   2.501
  274SOL     OW 1605   1.466   5.141   2.815
  274SOL    HW1 1606   1.407   5.147   2.895
  274SOL    HW2 1607   1.451   5.053   2.769
  275SOL     OW 1608   0.321   4.667   2.104
  275SOL    HW1 1609   0.403   4.706   2.062
  275SOL    HW2 1610   0.294   4.585   2.055
  276SOL     OW 1611   1.227   5.294   2.655
  276SOL    HW1 1612   1.248   5.368   2.590
  276SOL    HW2 1613   1.295   5.294   2.728
  277SOL     OW 1614   1.857   4.557   2.239
  277SOL    HW1 1615   1.899   4.493   2.303
  277SOL    HW2 1616   1.819   4.506   2.161
  278SOL     OW 1617   0.527   3.980   2.190
  278SOL    HW1 1618   0.554   3.921   2.115
  278SOL    HW2 1619   0.527   4.075   2.159
  279SOL     OW 1620   0.064   5.288   3.193
  279SOL    HW1 1621   0.018   5.370   3.159
  279SOL    HW2 1622   0.162   5.307   3.202
  280SOL     OW 1623   1.272   5.169   3.004
  280SOL    HW1 1624   1.319   5.182   3.091
  280SOL    HW2 1625   1.206   5.095   3.013
  281SOL     OW 1626   0.980   5.297   3.562
  281SOL    HW1 1627   0.960   5.341   3.474
  281SOL    HW2 1628   1.019   5.206   3.546
  282SOL     OW 1629   1.540   3.998   1.987
  282SOL    HW1 1630   1.479   3.923   2.010
  282SOL    HW2 1631   1.562   4.050   2.070
  283SOL     OW 1632   1.068   5.057   2.711
  283SOL    HW1 1633   1.075   4.973   2.656
  283SOL    HW2 1634   1.130   5.126   2.675
  284SOL     OW 1635   1.302   4.579   2.171
  284SOL    HW1 1636   1.216   4.548   2.213
  284SOL    HW2 1637   1.298   4.565   2.072
  285SOL     OW 1638   1.252   5.455   2.990
  285SOL    HW1 1639   1.336   5.460   2.936
  285SOL    HW2 1640   1.229   5.359   3.008
  286SOL     OW 1641   0.916   4.634   2.153
  286SOL    HW1 1642   0.979   4.672   2.085
  286SOL    HW2 1643   0.956   4.551   2.192
  287SOL     OW 1644   1.014   3.960   2.833
  287SOL    HW1 1645   1.006   3.924   2.740
  287SOL    HW2 1646   1.012   3.884   2.898
  288SOL     OW 1647   0.105   4.737   3.588
  288SOL    HW1 1648   0.028   4.704   3.642
  288SOL    HW2 1649   0.190   4.707   3.630
  289SOL     OW 1650   0.072   3.890   2.180
  289SOL    HW1 1651   0.055   3.973   2.126
  289SOL    HW2 1652   0.162   3.853   2.158
  290SOL     OW 1653   1.450   4.944   3.495
  290SOL    HW1 1654   1.441   4.934   3.594
  290SOL    HW2 1655   1.546   4.937   3.469
  291SOL     OW 1656   1.861   5.293   2.713
  291SOL    HW1 1657   1.790   5.281   2.643
  291SOL    HW2 1658   1.862   5.214   2.773
  292SOL     OW 1659   1.824   3.916   3.089
  292SOL    HW1 1660   1.820   3.826   3.133
  292SOL    HW2 1661   1.827   3.905   2.990
  293SOL     OW 1662   1.001   3.758   3.016
  293SOL    HW1 1663   0.938   3.686   2.985
  293SOL    HW2 1664   1.094   3.722   3.016
  294SOL     OW 1665   1.603   4.171   4.461
  294SOL    HW1 1666   1.529   4.217   4.411
  294SOL    HW2 1667   1.654   4.239   4.514
  295SOL     OW 1668   0.606   4.688   3.847
  295SOL    HW1 1669   0.613   4.772   3.793
  295SOL    HW2 1670   0.652   4.701   3.935
  296SOL     OW 1671   0.122   4.367   4.287
  296SOL    HW1 1672   0.077   4.279   4.304
  296SOL    HW2 1673   0.121   4.421   4.371
  297SOL     OW 1674   1.689   4.646   4.336
  297SOL    HW1 1675   1.784   4.617   4.344
  297SOL    HW2 1676   1.681   4.711   4.261
  298SOL     OW 1677   0.613   5.089   4.450
  298SOL    HW1 1678   0.564   5.002   4.459
  298SOL    HW2 1679   0.590   5.132   4.363
  299SOL     OW 1680   0.197   4.700   4.988
  299SOL    HW1 1681   0.286   4.655   4.974
  299SOL    HW2 1682   0.124   4.635   4.969
  300SOL     OW 1683   0.317   3.975   5.525
  300SOL    HW1 1684   0.388   4.046   5.531
  300SOL    HW2 1685   0.229   4.014   5.553
  301SOL     OW 1686   0.321   4.667   3.966
  301SOL    HW1 1687   0.403   4.706   3.924
  301SOL    HW2 1688   0.294   4.585   3.917
  302SOL     OW 1689   1.111   5.500   3.961
  302SOL    HW1 1690   1.051   5.438   4.011
  302SOL    HW2 1691   1.142   5.456   3.876
  303SOL     OW 1692   0.561   3.946   4.871
  303SOL    HW1 1693   0.599   3.862   4.908
  303SOL    HW2 1694   0.473   3.965   4.915
  304SOL     OW 1695   1.857   4.557   4.101
  304SOL    HW1 1696   1.899   4.493   4.165
  304SOL    HW2 1697   1.819   4.506   4.023
  305SOL     OW 1698   0.488   5.109   3.898
  305SOL    HW1 1699   0.401   5.094   3.945
  305SOL    HW2 1700   0.471   5.135   3.803
  306SOL     OW 1701   1.754   4.947   5.312
  306SOL    HW1 1702   1.845   4.908   5.299
  306SOL    HW2 1703   1.762   5.043   5.336
  307SOL     OW 1704   1.360   4.586   4.769
  307SOL    HW1 1705   1.285   4.586   4.703
  307SOL    HW2 1706   1.397   4.494   4.778
  308SOL     OW 1707   1.280   4.651   4.396
  308SOL    HW1 1708   1.340   4.570   4.398
  308SOL    HW2 1709   1.320   4.720   4.336
  309SOL     OW 1710   1.440   4.580   5.122
  309SOL    HW1 1711   1.383   4.632   5.059
  309SOL    HW2 1712   1.536   4.592   5.098
  310SOL     OW 1713   0.072   3.890   4.042
  310SOL    HW1 1714   0.055   3.973   3.988
  310SOL    HW2 1715   0.162   3.853   4.020
  311SOL     OW 1716   0.716   4.289   5.432
  311SOL    HW1 1717   0.735   4.354   5.506
  311SOL    HW2 1718   0.776   4.209   5.441
  312SOL     OW 1719   1.730   4.658   5.241
  312SOL    HW1 1720   1.768   4.749   5.256
  312SOL    HW2 1721   1.722   4.641   5.142
  313SOL     OW 1722   1.083   4.708   3.811
  313SOL    HW1 1723   1.060   4.761   3.729
  313SOL    HW2 1724   1.164   4.652   3.792
  314SOL     OW 1725   0.672   5.115   5.348
  314SOL    HW1 1726   0.594   5.065   5.386
  314SOL    HW2 1727   0.669   5.210   5.379
  315SOL     OW 1728   0.770   5.054   4.025
  315SOL    HW1 1729   0.724   4.967   4.042
  315SOL    HW2 1730   0.861   5.051   4.066
  316SOL     OW 1731   0.618   5.291   5.008
  316SOL    HW1 1732   0.613   5.373   5.065
  316SOL    HW2 1733   0.707   5.288   4.963
  317SOL     OW 1734   3.417   1.511   0.703
  317SOL    HW1 1735   3.360   1.495   0.784
  317SOL    HW2 1736   3.358   1.521   0.623
  318SOL     OW 1737   2.712   0.798   1.823
  318SOL    HW1 1738   2.708   0.874   1.888
  318SOL    HW2 1739   2.734   0.834   1.732
  319SOL     OW 1740   2.300   0.392   1.499
  319SOL    HW1 1741   2.382   0.336   1.508
  319SOL    HW2 1742   2.219   0.334   1.503
  320SOL     OW 1743   3.503   1.108   0.432
  320SOL    HW1 1744   3.589   1.110   0.380
  320SOL    HW2 1745   3.517   1.155   0.520
  321SOL     OW 1746   2.475   1.365   0.726
  321SOL    HW1 1747   2.426   1.278   0.735
  321SOL    HW2 1748   2.452   1.408   0.639
  322SOL     OW 1749   3.529   1.714   0.572
  322SOL    HW1 1750   3.488   1.691   0.484
  322SOL    HW2 1751   3.511   1.640   0.637
  323SOL     OW 1752   1.992   1.821   1.571
  323SOL    HW1 1753   1.982   1.806   1.670
  323SOL    HW2 1754   1.906   1.857   1.535
  324SOL     OW 1755   3.657   1.066   0.873
  324SOL    HW1 1756   3.595   1.051   0.797
  324SOL    HW2 1757   3.605   1.077   0.958
  325SOL     OW 1758   3.089   1.550   1.506
  325SOL    HW1 1759   3.095   1.473   1.570
  325SOL    HW2 1760   3.037   1.524   1.426
  326SOL     OW 1761   1.940   0.556   1.386
  326SOL    HW1 1762   2.032   0.555   1.345
  326SOL    HW2 1763   1.934   0.630   1.453
  327SOL     OW 1764   2.879   0.039   0.753
  327SOL    HW1 1765   2.807   0.044   0.684
  327SOL    HW2 1766   2.855  -0.030   0.822
  328SOL     OW 1767   2.389   0.256   0.328
  328SOL    HW1 1768   2.416   0.197   0.253
  328SOL    HW2 1769   2.389   0.351   0.297
  329SOL     OW 1770   2.229   1.100   0.501
  329SOL    HW1 1771   2.222   1.183   0.445
  329SOL    HW2 1772   2.233   1.020   0.441
  330SOL     OW 1773   2.875   0.105   1.770
  330SOL    HW1 1774   2.881   0.190   1.718
  330SOL    HW2 1775   2.907   0.029   1.713
  331SOL     OW 1776   2.366   0.050   1.740
  331SOL    HW1 1777   2.324  -0.007   1.670
  331SOL    HW2 1778   2.300   0.119   1.772
  332SOL     OW 1779   2.594   0.634   1.064
  332SOL    HW1 1780   2.653   0.608   0.988
  332SOL    HW2 1781   2.566   0.730   1.053
  333SOL     OW 1782   2.169   0.063   0.618
  333SOL    HW1 1783   2.158   0.157   0.651
  333SOL    HW2 1784   2.164   0.000   0.695
  334SOL     OW 1785   2.201   0.509   1.006
  334SOL    HW1 1786   2.149   0.426   0.989
  334SOL    HW2 1787   2.278   0.514   0.942
  335SOL     OW 1788   2.366   1.568   0.910
  335SOL    HW1 1789   2.432   1.642   0.919
  335SOL    HW2 1790   2.410   1.489   0.868
  336SOL     OW 1791   3.231   0.950   1.660
  336SOL    HW1 1792   3.270   1.039   1.680
  336SOL    HW2 1793   3.241   0.930   1.563
  337SOL     OW 1794   2.677   0.572   0.325
  337SOL    HW1 1795   2.684   0.483   0.279
  337SOL    HW2 1796   2.583   0.606   0.317
  338SOL     OW 1797   3.142   0.927   0.672
  338SOL    HW1 1798   3.202   0.846   0.674
  338SOL    HW2 1799   3.182   0.996   0.612
  339SOL     OW 1800   3.703   0.175   0.963
  339SOL    HW1 1801   3.742   0.090   0.927
  339SOL    HW2 1802   3.605   0.177   0.944
  340SOL     OW 1803   2.876   0.236   0.971
  340SOL    HW1 1804   2.868   0.200   0.878
  340SOL    HW2 1805   2.874   0.160   1.036
  341SOL     OW 1806   2.117   1.348   0.290
  341SOL    HW1 1807   2.021   1.349   0.263
  341SOL    HW2 1808   2.129   1.401   0.374
  342SOL     OW 1809   3.302   0.856   1.398
  342SOL    HW1 1810   3.245   0.908   1.335
  342SOL    HW2 1811   3.398   0.868   1.374
  343SOL     OW 1812   3.536   0.883   1.254
  343SOL    HW1 1813   3.509   0.794   1.217
  343SOL    HW2 1814   3.537   0.951   1.181
  344SOL     OW 1815   3.087   0.325   0.449
  344SOL    HW1 1816   3.152   0.251   0.438
  344SOL    HW2 1817   3.107   0.375   0.533
  345SOL     OW 1818   2.721   1.374   0.016
  345SOL    HW1 1819   2.675   1.389   0.104
  345SOL    HW2 1820   2.765   1.459  -0.014
  346SOL     OW 1821   3.723   1.569   0.851
  346SOL    HW1 1822   3.652   1.557   0.781
  346SOL    HW2 1823   3.724   1.490   0.911
  347SOL     OW 1824   2.083   1.314   1.844
  347SOL    HW1 1825   2.018   1.241   1.823
  347SOL    HW2 1826   2.087   1.328   1.942
  348SOL     OW 1827   2.480   1.567   1.284
  348SOL    HW1 1828   2.475   1.649   1.341
  348SOL    HW2 1829   2.569   1.564   1.239
  349SOL     OW 1830   3.214   0.052   0.168
  349SOL    HW1 1831   3.249   0.011   0.084
  349SOL    HW2 1832   3.124   0.014   0.188
  350SOL     OW 1833   1.901   1.077   0.300
  350SOL    HW1 1834   2.000   1.066   0.291
  350SOL    HW2 1835   1.861   0.991   0.332
  351SOL     OW 1836   2.300   0.392   3.361
  351SOL    HW1 1837   2.382   0.336   3.370
  351SOL    HW2 1838   2.219   0.334   3.365
  352SOL     OW 1839   2.989   1.341   3.552
  352SOL    HW1 1840   3.036   1.341   3.640
  352SOL    HW2 1841   2.941   1.254   3.541
  353SOL     OW 1842   1.889   1.596   1.979
  353SOL    HW1 1843   1.870   1.500   2.000
  353SOL    HW2 1844   1.856   1.654   2.054
  354SOL     OW 1845   3.155   1.228   3.285
  354SOL    HW1 1846   3.192   1.155   3.227
  354SOL    HW2 1847   3.207   1.233   3.370
  355SOL     OW 1848   2.179   0.251   3.663
  355SOL    HW1 1849   2.250   0.322   3.669
  355SOL    HW2 1850   2.091   0.290   3.691
  356SOL     OW 1851   3.529   1.714   2.434
  356SOL    HW1 1852   3.488   1.691   2.346
  356SOL    HW2 1853   3.511   1.640   2.499
  357SOL     OW 1854   3.438   1.662   2.169
  357SOL    HW1 1855   3.527   1.708   2.172
  357SOL    HW2 1856   3.417   1.638   2.074
  358SOL     OW 1857   2.835   0.890   3.434
  358SOL    HW1 1858   2.881   0.806   3.405
  358SOL    HW2 1859   2.779   0.924   3.359
  359SOL     OW 1860   2.183   0.943   2.104
  359SOL    HW1 1861   2.265   0.982   2.062
  359SOL    HW2 1862   2.156   0.861   2.055
  360SOL     OW 1863   2.323   1.266   3.589
  360SOL    HW1 1864   2.273   1.267   3.503
  360SOL    HW2 1865   2.260   1.248   3.665
  361SOL     OW 1866   3.213   0.590   3.295
  361SOL    HW1 1867   3.241   0.547   3.380
  361SOL    HW2 1868   3.238   0.686   3.296
  362SOL     OW 1869   2.159   0.035   2.033
  362SOL    HW1 1870   2.208   0.119   2.012
  362SOL    HW2 1871   2.221  -0.030   2.078
  363SOL     OW 1872   2.797   0.236   2.342
  363SOL    HW1 1873   2.749   0.277   2.264
  363SOL    HW2 1874   2.896   0.234   2.323
  364SOL     OW 1875   1.940   0.556   3.248
  364SOL    HW1 1876   2.032   0.555   3.207
  364SOL    HW2 1877   1.934   0.630   3.315
  365SOL     OW 1878   2.926   1.347   3.202
  365SOL    HW1 1879   2.846   1.324   3.257
  365SOL    HW2 1880   3.009   1.321   3.251
  366SOL     OW 1881   2.973   1.195   2.962
  366SOL    HW1 1882   2.933   1.239   3.043
  366SOL    HW2 1883   2.932   1.232   2.879
  367SOL     OW 1884   2.842   1.573   3.562
  367SOL    HW1 1885   2.822   1.617   3.474
  367SOL    HW2 1886   2.881   1.482   3.546
  368SOL     OW 1887   3.721   1.518   3.467
  368SOL    HW1 1888   3.735   1.545   3.372
  368SOL    HW2 1889   3.804   1.540   3.520
  369SOL     OW 1890   2.201   0.509   2.868
  369SOL    HW1 1891   2.149   0.426   2.851
  369SOL    HW2 1892   2.278   0.514   2.804
  370SOL     OW 1893   3.000   0.380   3.540
  370SOL    HW1 1894   2.955   0.443   3.604
  370SOL    HW2 1895   3.093   0.411   3.523
  371SOL     OW 1896   2.114   1.564   3.606
  371SOL    HW1 1897   2.084   1.621   3.682
  371SOL    HW2 1898   2.107   1.467   3.632
  372SOL     OW 1899   2.534   1.616   2.016
  372SOL    HW1 1900   2.543   1.626   1.917
  372SOL    HW2 1901   2.494   1.527   2.037
  373SOL     OW 1902   3.512   1.720   3.256
  373SOL    HW1 1903   3.565   1.730   3.172
  373SOL    HW2 1904   3.485   1.810   3.290
  374SOL     OW 1905   3.056   1.612   1.893
  374SOL    HW1 1906   3.062   1.519   1.930
  374SOL    HW2 1907   2.997   1.612   1.813
  375SOL     OW 1908   2.234   1.288   3.352
  375SOL    HW1 1909   2.221   1.381   3.318
  375SOL    HW2 1910   2.150   1.236   3.339
  376SOL     OW 1911   3.045   1.335   1.981
  376SOL    HW1 1912   2.946   1.324   1.983
  376SOL    HW2 1913   3.079   1.350   2.074
  377SOL     OW 1914   3.087   0.325   2.311
  377SOL    HW1 1915   3.152   0.251   2.300
  377SOL    HW2 1916   3.107   0.375   2.395
  378SOL     OW 1917   3.639   0.342   3.504
  378SOL    HW1 1918   3.622   0.373   3.410
  378SOL    HW2 1919   3.555   0.305   3.542
  379SOL     OW 1920   2.083   1.314   3.706
  379SOL    HW1 1921   2.018   1.241   3.685
  379SOL    HW2 1922   2.087   1.328   3.804
  380SOL     OW 1923   2.863   0.034   3.016
  380SOL    HW1 1924   2.800  -0.038   2.985
  380SOL    HW2 1925   2.956  -0.002   3.016
  381SOL     OW 1926   2.632   1.330   2.163
  381SOL    HW1 1927   2.586   1.243   2.180
  381SOL    HW2 1928   2.723   1.327   2.204
  382SOL     OW 1929   2.092   0.628   3.837
  382SOL    HW1 1930   1.999   0.626   3.874
  382SOL    HW2 1931   2.093   0.589   3.745
  383SOL     OW 1932   3.617   0.607   3.955
  383SOL    HW1 1933   3.605   0.594   3.856
  383SOL    HW2 1934   3.587   0.526   4.004
  384SOL     OW 1935   3.322   1.505   5.063
  384SOL    HW1 1936   3.346   1.599   5.089
  384SOL    HW2 1937   3.306   1.451   5.145
  385SOL     OW 1938   2.468   0.964   3.847
  385SOL    HW1 1939   2.475   1.048   3.793
  385SOL    HW2 1940   2.514   0.977   3.935
  386SOL     OW 1941   3.551   0.922   4.336
  386SOL    HW1 1942   3.646   0.893   4.344
  386SOL    HW2 1943   3.543   0.987   4.261
  387SOL     OW 1944   2.671   0.004   4.226
  387SOL    HW1 1945   2.711   0.095   4.217
  387SOL    HW2 1946   2.571   0.012   4.232
  388SOL     OW 1947   3.387   0.999   3.914
  388SOL    HW1 1948   3.324   0.923   3.927
  388SOL    HW2 1949   3.435   1.017   4.000
  389SOL     OW 1950   2.412   0.196   4.609
  389SOL    HW1 1951   2.407   0.191   4.709
  389SOL    HW2 1952   2.414   0.292   4.580
  390SOL     OW 1953   2.064   0.285   5.222
  390SOL    HW1 1954   1.984   0.345   5.209
  390SOL    HW2 1955   2.054   0.236   5.308
  391SOL     OW 1956   2.111   1.785   4.965
  391SOL    HW1 1957   2.168   1.720   5.015
  391SOL    HW2 1958   2.095   1.752   4.872
  392SOL     OW 1959   3.089   1.570   4.517
  392SOL    HW1 1960   3.110   1.644   4.452
  392SOL    HW2 1961   3.157   1.570   4.590
  393SOL     OW 1962   2.389   0.256   4.052
  393SOL    HW1 1963   2.416   0.197   3.977
  393SOL    HW2 1964   2.389   0.351   4.021
  394SOL     OW 1965   2.428   0.537   4.589
  394SOL    HW1 1966   2.440   0.603   4.515
  394SOL    HW2 1967   2.474   0.571   4.672
  395SOL     OW 1968   3.721   1.518   5.329
  395SOL    HW1 1969   3.735   1.545   5.234
  395SOL    HW2 1970   3.804   1.540   5.382
  396SOL     OW 1971   2.181   0.810   4.673
  396SOL    HW1 1972   2.274   0.846   4.678
  396SOL    HW2 1973   2.175   0.725   4.725
  397SOL     OW 1974   3.022   0.207   5.201
  397SOL    HW1 1975   3.022   0.271   5.278
  397SOL    HW2 1976   3.050   0.255   5.118
  398SOL     OW 1977   3.621   1.747   4.878
  398SOL    HW1 1978   3.682   1.777   4.805
  398SOL    HW2 1979   3.583   1.658   4.856
  399SOL     OW 1980   3.588   0.135   4.247
  399SOL    HW1 1981   3.661   0.118   4.180
  399SOL    HW2 1982   3.557   0.048   4.285
  400SOL     OW 1983   2.534   1.616   3.878
  400SOL    HW1 1984   2.543   1.626   3.779
  400SOL    HW2 1985   2.494   1.527   3.899
  401SOL     OW 1986   3.703   0.175   4.687
  401SOL    HW1 1987   3.742   0.090   4.651
  401SOL    HW2 1988   3.605   0.177   4.668
  402SOL     OW 1989   3.302   0.856   5.122
  402SOL    HW1 1990   3.245   0.908   5.059
  402SOL    HW2 1991   3.398   0.868   5.098
  403SOL     OW 1992   1.934   0.166   4.042
  403SOL    HW1 1993   1.917   0.249   3.988
  403SOL    HW2 1994   2.024   0.129   4.020
  404SOL     OW 1995   2.945   0.984   3.811
  404SOL    HW1 1996   2.922   1.037   3.729
  404SOL    HW2 1997   3.026   0.928   3.792
  405SOL     OW 1998   3.686   0.192   4.951
  405SOL    HW1 1999   3.682   0.102   4.995
  405SOL    HW2 2000   3.689   0.181   4.852
  406SOL     OW 2001   1.901   1.077   4.024
  406SOL    HW1 2002   2.000   1.066   4.015
  406SOL    HW2 2003   1.861   0.991   4.056
  407SOL     OW 2004   2.087   2.137   0.996
  407SOL    HW1 2005   2.122   2.120   1.088
  407SOL    HW2 2006   1.999   2.092   0.984
  408SOL     OW 2007   2.093   3.575   0.483
  408SOL    HW1 2008   2.127   3.652   0.537
  408SOL    HW2 2009   2.137   3.575   0.393
  409SOL     OW 2010   2.468   2.826   0.123
  409SOL    HW1 2011   2.475   2.910   0.069
  409SOL    HW2 2012   2.514   2.839   0.211
  410SOL     OW 2013   3.551   2.784   0.612
  410SOL    HW1 2014   3.646   2.755   0.620
  410SOL    HW2 2015   3.543   2.849   0.537
  411SOL     OW 2016   2.903   2.563   0.429
  411SOL    HW1 2017   2.929   2.559   0.525
  411SOL    HW2 2018   2.818   2.512   0.415
  412SOL     OW 2019   1.992   3.683   1.571
  412SOL    HW1 2020   1.982   3.668   1.670
  412SOL    HW2 2021   1.906   3.719   1.535
  413SOL     OW 2022   3.657   2.928   0.873
  413SOL    HW1 2023   3.595   2.913   0.797
  413SOL    HW2 2024   3.605   2.939   0.958
  414SOL     OW 2025   2.064   2.147   1.498
  414SOL    HW1 2026   1.984   2.207   1.485
  414SOL    HW2 2027   2.054   2.098   1.584
  415SOL     OW 2028   3.133   3.659   0.591
  415SOL    HW1 2029   3.177   3.723   0.527
  415SOL    HW2 2030   3.083   3.711   0.661
  416SOL     OW 2031   2.879   1.901   0.753
  416SOL    HW1 2032   2.807   1.906   0.684
  416SOL    HW2 2033   2.855   1.832   0.822
  417SOL     OW 2034   3.291   3.035   0.867
  417SOL    HW1 2035   3.236   2.951   0.860
  417SOL    HW2 2036   3.317   3.064   0.775
  418SOL     OW 2037   3.134   3.307   1.142
  418SOL    HW1 2038   3.181   3.320   1.229
  418SOL    HW2 2039   3.068   3.233   1.151
  419SOL     OW 2040   2.435   2.732   1.029
  419SOL    HW1 2041   2.479   2.821   1.020
  419SOL    HW2 2042   2.372   2.732   1.106
  420SOL     OW 2043   2.169   2.075   1.231
  420SOL    HW1 2044   2.146   2.112   1.321
  420SOL    HW2 2045   2.139   1.980   1.225
  421SOL     OW 2046   2.169   1.925   0.618
  421SOL    HW1 2047   2.158   2.019   0.651
  421SOL    HW2 2048   2.164   1.862   0.695
  422SOL     OW 2049   2.864   2.658   1.238
  422SOL    HW1 2050   2.905   2.626   1.324
  422SOL    HW2 2051   2.768   2.631   1.235
  423SOL     OW 2052   3.114   3.593   1.128
  423SOL    HW1 2053   3.198   3.598   1.074
  423SOL    HW2 2054   3.091   3.497   1.146
  424SOL     OW 2055   1.945   3.120   1.022
  424SOL    HW1 2056   1.940   3.119   1.122
  424SOL    HW2 2057   1.862   3.079   0.984
  425SOL     OW 2058   3.056   3.474   0.031
  425SOL    HW1 2059   3.062   3.381   0.068
  425SOL    HW2 2060   2.997   3.474  -0.049
  426SOL     OW 2061   2.901   2.960   0.696
  426SOL    HW1 2062   2.831   2.913   0.750
  426SOL    HW2 2063   2.960   2.892   0.653
  427SOL     OW 2064   3.571   2.247   1.381
  427SOL    HW1 2065   3.644   2.316   1.385
  427SOL    HW2 2066   3.599   2.172   1.322
  428SOL     OW 2067   1.937   2.207   0.033
  428SOL    HW1 2068   1.845   2.179   0.004
  428SOL    HW2 2069   1.968   2.284  -0.023
  429SOL     OW 2070   3.045   3.197   0.119
  429SOL    HW1 2071   2.946   3.186   0.121
  429SOL    HW2 2072   3.079   3.212   0.212
  430SOL     OW 2073   2.252   3.603   1.560
  430SOL    HW1 2074   2.161   3.644   1.558
  430SOL    HW2 2075   2.245   3.509   1.592
  431SOL     OW 2076   2.721   3.236   0.016
  431SOL    HW1 2077   2.675   3.251   0.104
  431SOL    HW2 2078   2.765   3.321  -0.014
  432SOL     OW 2079   3.723   3.431   0.851
  432SOL    HW1 2080   3.652   3.419   0.781
  432SOL    HW2 2081   3.724   3.352   0.911
  433SOL     OW 2082   3.686   2.054   1.227
  433SOL    HW1 2083   3.682   1.964   1.271
  433SOL    HW2 2084   3.689   2.043   1.128
  434SOL     OW 2085   3.286   2.076   1.112
  434SOL    HW1 2086   3.338   2.011   1.167
  434SOL    HW2 2087   3.237   2.139   1.173
  435SOL     OW 2088   2.431   3.137   3.027
  435SOL    HW1 2089   2.338   3.130   2.990
  435SOL    HW2 2090   2.442   3.226   3.071
  436SOL     OW 2091   1.992   3.683   3.433
  436SOL    HW1 2092   1.982   3.668   3.532
  436SOL    HW2 2093   1.906   3.719   3.397
  437SOL     OW 2094   2.213   3.663   2.715
  437SOL    HW1 2095   2.263   3.577   2.721
  437SOL    HW2 2096   2.278   3.740   2.712
  438SOL     OW 2097   3.484   2.229   2.236
  438SOL    HW1 2098   3.486   2.153   2.300
  438SOL    HW2 2099   3.436   2.306   2.276
  439SOL     OW 2100   2.114   3.426   3.606
  439SOL    HW1 2101   2.084   3.483   3.682
  439SOL    HW2 2102   2.107   3.329   3.632
  440SOL     OW 2103   1.937   2.207   1.895
  440SOL    HW1 2104   1.845   2.179   1.866
  440SOL    HW2 2105   1.968   2.284   1.839
  441SOL     OW 2106   1.901   2.939   2.162
  441SOL    HW1 2107   2.000   2.928   2.153
  441SOL    HW2 2108   1.861   2.853   2.194
  442SOL     OW 2109   3.465   2.309   4.461
  442SOL    HW1 2110   3.391   2.355   4.411
  442SOL    HW2 2111   3.516   2.377   4.514
  443SOL     OW 2112   3.049   3.654   5.340
  443SOL    HW1 2113   3.073   3.714   5.264
  443SOL    HW2 2114   3.056   3.559   5.310
  444SOL     OW 2115   2.853   2.272   4.966
  444SOL    HW1 2116   2.776   2.306   5.020
  444SOL    HW2 2117   2.819   2.221   4.887
  445SOL     OW 2118   2.973   3.638   3.961
  445SOL    HW1 2119   2.913   3.576   4.011
  445SOL    HW2 2120   3.004   3.594   3.876
  446SOL     OW 2121   2.802   3.560   4.628
  446SOL    HW1 2122   2.882   3.503   4.649
  446SOL    HW2 2123   2.753   3.520   4.551
  447SOL     OW 2124   2.750   3.376   4.919
  447SOL    HW1 2125   2.727   3.351   4.825
  447SOL    HW2 2126   2.811   3.307   4.958
  448SOL     OW 2127   3.213   2.452   5.157
  448SOL    HW1 2128   3.241   2.409   5.242
  448SOL    HW2 2129   3.238   2.548   5.158
  449SOL     OW 2130   2.665   3.264   4.648
  449SOL    HW1 2131   2.755   3.278   4.606
  449SOL    HW2 2132   2.594   3.266   4.577
  450SOL     OW 2133   2.401   1.926   4.236
  450SOL    HW1 2134   2.320   1.927   4.294
  450SOL    HW2 2135   2.404   2.009   4.181
  451SOL     OW 2136   2.159   1.897   3.895
  451SOL    HW1 2137   2.208   1.981   3.874
  451SOL    HW2 2138   2.221   1.832   3.940
  452SOL     OW 2139   3.133   3.659   4.315
  452SOL    HW1 2140   3.177   3.723   4.251
  452SOL    HW2 2141   3.083   3.711   4.385
  453SOL     OW 2142   3.328   2.452   4.716
  453SOL    HW1 2143   3.298   2.357   4.723
  453SOL    HW2 2144   3.401   2.468   4.782
  454SOL     OW 2145   3.222   2.724   4.769
  454SOL    HW1 2146   3.147   2.724   4.703
  454SOL    HW2 2147   3.259   2.632   4.778
  455SOL     OW 2148   3.402   2.136   3.849
  455SOL    HW1 2149   3.341   2.061   3.872
  455SOL    HW2 2150   3.424   2.188   3.932
  456SOL     OW 2151   1.950   3.663   4.651
  456SOL    HW1 2152   1.908   3.577   4.624
  456SOL    HW2 2153   2.044   3.666   4.617
  457SOL     OW 2154   3.519   2.466   4.930
  457SOL    HW1 2155   3.481   2.397   4.992
  457SOL    HW2 2156   3.601   2.430   4.886
  458SOL     OW 2157   2.021   2.999   5.190
  458SOL    HW1 2158   2.043   2.938   5.266
  458SOL    HW2 2159   2.031   2.950   5.104
  459SOL     OW 2160   3.114   3.593   4.852
  459SOL    HW1 2161   3.198   3.598   4.798
  459SOL    HW2 2162   3.091   3.497   4.870
  460SOL     OW 2163   3.250   3.435   4.201
  460SOL    HW1 2164   3.317   3.447   4.127
  460SOL    HW2 2165   3.210   3.524   4.224
  461SOL     OW 2166   2.692   3.135   5.146
  461SOL    HW1 2167   2.687   3.168   5.241
  461SOL    HW2 2168   2.606   3.154   5.100
  462SOL     OW 2169   2.125   2.188   4.444
  462SOL    HW1 2170   2.046   2.239   4.410
  462SOL    HW2 2171   2.116   2.173   4.542
  463SOL     OW 2172   2.876   2.098   4.695
  463SOL    HW1 2173   2.868   2.062   4.602
  463SOL    HW2 2174   2.874   2.022   4.760
  464SOL     OW 2175   1.967   2.875   5.450
  464SOL    HW1 2176   1.890   2.842   5.504
  464SOL    HW2 2177   2.052   2.845   5.492
  465SOL     OW 2178   2.578   2.427   5.432
  465SOL    HW1 2179   2.597   2.492   5.506
  465SOL    HW2 2180   2.638   2.347   5.441
  466SOL     OW 2181   3.686   2.054   4.951
  466SOL    HW1 2182   3.682   1.964   4.995
  466SOL    HW2 2183   3.689   2.043   4.852
  467SOL     OW 2184   2.179   2.409   5.004
  467SOL    HW1 2185   2.217   2.350   5.076
  467SOL    HW2 2186   2.219   2.383   4.916
  468SOL     OW 2187   2.863   1.896   4.878
  468SOL    HW1 2188   2.800   1.824   4.847
  468SOL    HW2 2189   2.956   1.860   4.878
  469SOL     OW 2190   2.431   4.999   1.165
  469SOL    HW1 2191   2.338   4.992   1.128
  469SOL    HW2 2192   2.442   5.088   1.209
  470SOL     OW 2193   3.617   4.331   0.231
  470SOL    HW1 2194   3.605   4.318   0.132
  470SOL    HW2 2195   3.587   4.250   0.280
  471SOL     OW 2196   2.712   4.522   1.823
  471SOL    HW1 2197   2.708   4.598   1.888
  471SOL    HW2 2198   2.734   4.558   1.732
  472SOL     OW 2199   2.548   4.885   1.803
  472SOL    HW1 2200   2.608   4.964   1.817
  472SOL    HW2 2201   2.462   4.916   1.762
  473SOL     OW 2202   3.322   5.229   1.339
  473SOL    HW1 2203   3.346   5.323   1.365
  473SOL    HW2 2204   3.306   5.175   1.421
  474SOL     OW 2205   2.468   4.688   0.123
  474SOL    HW1 2206   2.475   4.772   0.069
  474SOL    HW2 2207   2.514   4.701   0.211
  475SOL     OW 2208   3.456   3.838   1.480
  475SOL    HW1 2209   3.438   3.905   1.408
  475SOL    HW2 2210   3.453   3.884   1.569
  476SOL     OW 2211   3.551   4.646   0.612
  476SOL    HW1 2212   3.646   4.617   0.620
  476SOL    HW2 2213   3.543   4.711   0.537
  477SOL     OW 2214   1.975   4.461   1.597
  477SOL    HW1 2215   2.063   4.448   1.642
  477SOL    HW2 2216   1.962   4.558   1.575
  478SOL     OW 2217   2.671   3.728   0.502
  478SOL    HW1 2218   2.711   3.819   0.493
  478SOL    HW2 2219   2.571   3.736   0.508
  479SOL     OW 2220   3.049   5.516   1.616
  479SOL    HW1 2221   3.073   5.576   1.540
  479SOL    HW2 2222   3.056   5.421   1.586
  480SOL     OW 2223   3.328   5.141   0.953
  480SOL    HW1 2224   3.269   5.147   1.033
  480SOL    HW2 2225   3.313   5.053   0.907
  481SOL     OW 2226   1.938   4.535   0.789
  481SOL    HW1 2227   2.037   4.523   0.798
  481SOL    HW2 2228   1.914   4.630   0.810
  482SOL     OW 2229   1.992   5.545   1.571
  482SOL    HW1 2230   1.982   5.530   1.670
  482SOL    HW2 2231   1.906   5.581   1.535
  483SOL     OW 2232   2.727   4.072   0.195
  483SOL    HW1 2233   2.786   4.135   0.146
  483SOL    HW2 2234   2.746   3.978   0.166
  484SOL     OW 2235   3.089   5.274   1.506
  484SOL    HW1 2236   3.095   5.197   1.570
  484SOL    HW2 2237   3.037   5.248   1.426
  485SOL     OW 2238   2.183   4.667   0.242
  485SOL    HW1 2239   2.265   4.706   0.200
  485SOL    HW2 2240   2.156   4.585   0.193
  486SOL     OW 2241   2.476   3.846   0.117
  486SOL    HW1 2242   2.574   3.824   0.124
  486SOL    HW2 2243   2.445   3.829   0.024
  487SOL     OW 2244   2.665   5.126   0.924
  487SOL    HW1 2245   2.755   5.140   0.882
  487SOL    HW2 2246   2.594   5.128   0.853
  488SOL     OW 2247   3.296   4.912   0.041
  488SOL    HW1 2248   3.328   4.836   0.098
  488SOL    HW2 2249   3.204   4.939   0.071
  489SOL     OW 2250   2.159   3.759   0.171
  489SOL    HW1 2251   2.208   3.843   0.150
  489SOL    HW2 2252   2.221   3.694   0.216
  490SOL     OW 2253   2.423   3.946   1.147
  490SOL    HW1 2254   2.461   3.862   1.184
  490SOL    HW2 2255   2.335   3.965   1.191
  491SOL     OW 2256   2.350   5.109   0.174
  491SOL    HW1 2257   2.263   5.094   0.221
  491SOL    HW2 2258   2.333   5.135   0.079
  492SOL     OW 2259   3.616   4.947   1.588
  492SOL    HW1 2260   3.707   4.908   1.575
  492SOL    HW2 2261   3.624   5.043   1.612
  493SOL     OW 2262   2.885   4.490   0.966
  493SOL    HW1 2263   2.900   4.511   1.062
  493SOL    HW2 2264   2.855   4.395   0.957
  494SOL     OW 2265   2.212   4.622   1.804
  494SOL    HW1 2266   2.288   4.666   1.852
  494SOL    HW2 2267   2.247   4.575   1.722
  495SOL     OW 2268   3.165   4.562   0.042
  495SOL    HW1 2269   3.199   4.469   0.057
  495SOL    HW2 2270   3.183   4.589  -0.053
  496SOL     OW 2271   1.870   5.050   0.200
  496SOL    HW1 2272   1.777   5.071   0.169
  496SOL    HW2 2273   1.880   4.951   0.213
  497SOL     OW 2274   1.902   4.268   1.114
  497SOL    HW1 2275   1.987   4.235   1.073
  497SOL    HW2 2276   1.915   4.283   1.212
  498SOL     OW 2277   2.051   4.244   1.722
  498SOL    HW1 2278   2.110   4.204   1.652
  498SOL    HW2 2279   1.993   4.315   1.681
  499SOL     OW 2280   2.114   5.288   1.744
  499SOL    HW1 2281   2.084   5.345   1.820
  499SOL    HW2 2282   2.107   5.191   1.770
  500SOL     OW 2283   3.209   4.783   1.234
  500SOL    HW1 2284   3.233   4.720   1.160
  500SOL    HW2 2285   3.119   4.823   1.216
  501SOL     OW 2286   3.621   5.471   1.154
  501SOL    HW1 2287   3.682   5.501   1.081
  501SOL    HW2 2288   3.583   5.382   1.132
  502SOL     OW 2289   3.114   5.455   1.128
  502SOL    HW1 2290   3.198   5.460   1.074
  502SOL    HW2 2291   3.091   5.359   1.146
  503SOL     OW 2292   3.476   5.016   1.289
  503SOL    HW1 2293   3.536   5.019   1.369
  503SOL    HW2 2294   3.401   5.080   1.302
  504SOL     OW 2295   2.721   4.680   0.861
  504SOL    HW1 2296   2.775   4.611   0.909
  504SOL    HW2 2297   2.689   4.749   0.927
  505SOL     OW 2298   2.083   5.038   1.844
  505SOL    HW1 2299   2.018   4.965   1.823
  505SOL    HW2 2300   2.087   5.052   1.942
  506SOL     OW 2301   3.567   5.211   1.104
  506SOL    HW1 2302   3.474   5.186   1.077
  506SOL    HW2 2303   3.593   5.161   1.186
  507SOL     OW 2304   3.617   4.331   2.093
  507SOL    HW1 2305   3.605   4.318   1.994
  507SOL    HW2 2306   3.587   4.250   2.142
  508SOL     OW 2307   2.630   4.868   2.885
  508SOL    HW1 2308   2.552   4.885   2.945
  508SOL    HW2 2309   2.664   4.955   2.849
  509SOL     OW 2310   3.465   4.171   2.599
  509SOL    HW1 2311   3.391   4.217   2.549
  509SOL    HW2 2312   3.516   4.239   2.652
  510SOL     OW 2313   3.143   4.069   2.806
  510SOL    HW1 2314   3.057   4.019   2.793
  510SOL    HW2 2315   3.205   4.015   2.862
  511SOL     OW 2316   2.853   4.134   3.104
  511SOL    HW1 2317   2.776   4.168   3.158
  511SOL    HW2 2318   2.819   4.083   3.025
  512SOL     OW 2319   2.412   3.920   2.747
  512SOL    HW1 2320   2.407   3.915   2.847
  512SOL    HW2 2321   2.414   4.016   2.718
  513SOL     OW 2322   3.320   4.459   2.590
  513SOL    HW1 2323   3.315   4.394   2.665
  513SOL    HW2 2324   3.400   4.518   2.603
  514SOL     OW 2325   2.476   3.846   1.979
  514SOL    HW1 2326   2.574   3.824   1.986
  514SOL    HW2 2327   2.445   3.829   1.886
  515SOL     OW 2328   2.321   4.876   2.603
  515SOL    HW1 2329   2.250   4.849   2.668
  515SOL    HW2 2330   2.295   4.848   2.510
  516SOL     OW 2331   2.350   5.109   2.036
  516SOL    HW1 2332   2.263   5.094   2.083
  516SOL    HW2 2333   2.333   5.135   1.941
  517SOL     OW 2334   3.500   4.823   2.941
  517SOL    HW1 2335   3.505   4.904   3.000
  517SOL    HW2 2336   3.414   4.825   2.890
  518SOL     OW 2337   2.229   4.824   2.363
  518SOL    HW1 2338   2.222   4.907   2.307
  518SOL    HW2 2339   2.233   4.744   2.303
  519SOL     OW 2340   2.428   4.261   2.727
  519SOL    HW1 2341   2.440   4.327   2.653
  519SOL    HW2 2342   2.474   4.295   2.810
  520SOL     OW 2343   3.114   5.072   2.250
  520SOL    HW1 2344   3.164   5.149   2.290
  520SOL    HW2 2345   3.019   5.074   2.282
  521SOL     OW 2346   3.134   5.169   3.004
  521SOL    HW1 2347   3.181   5.182   3.091
  521SOL    HW2 2348   3.068   5.095   3.013
  522SOL     OW 2349   2.264   4.475   3.460
  522SOL    HW1 2350   2.332   4.530   3.413
  522SOL    HW2 2351   2.304   4.387   3.487
  523SOL     OW 2352   3.449   4.503   3.532
  523SOL    HW1 2353   3.357   4.541   3.527
  523SOL    HW2 2354   3.509   4.550   3.467
  524SOL     OW 2355   3.222   4.586   2.907
  524SOL    HW1 2356   3.147   4.586   2.841
  524SOL    HW2 2357   3.259   4.494   2.916
  525SOL     OW 2358   3.721   5.242   3.467
  525SOL    HW1 2359   3.735   5.269   3.372
  525SOL    HW2 2360   3.804   5.264   3.520
  526SOL     OW 2361   1.870   5.050   2.062
  526SOL    HW1 2362   1.777   5.071   2.031
  526SOL    HW2 2363   1.880   4.951   2.075
  527SOL     OW 2364   2.051   4.244   3.584
  527SOL    HW1 2365   2.110   4.204   3.514
  527SOL    HW2 2366   1.993   4.315   3.543
  528SOL     OW 2367   3.703   3.899   2.825
  528SOL    HW1 2368   3.742   3.814   2.789
  528SOL    HW2 2369   3.605   3.901   2.806
  529SOL     OW 2370   2.125   4.050   2.582
  529SOL    HW1 2371   2.046   4.101   2.548
  529SOL    HW2 2372   2.116   4.035   2.680
  530SOL     OW 2373   3.476   5.016   3.151
  530SOL    HW1 2374   3.536   5.019   3.231
  530SOL    HW2 2375   3.401   5.080   3.164
  531SOL     OW 2376   2.452   5.211   2.353
  531SOL    HW1 2377   2.494   5.153   2.283
  531SOL    HW2 2378   2.408   5.290   2.309
  532SOL     OW 2379   3.571   4.109   3.243
  532SOL    HW1 2380   3.644   4.178   3.247
  532SOL    HW2 2381   3.599   4.034   3.184
  533SOL     OW 2382   2.534   3.927   3.351
  533SOL    HW1 2383   2.624   3.911   3.311
  533SOL    HW2 2384   2.542   3.932   3.450
  534SOL     OW 2385   2.475   4.566   3.293
  534SOL    HW1 2386   2.531   4.647   3.276
  534SOL    HW2 2387   2.534   4.486   3.296
  535SOL     OW 2388   2.945   4.708   1.949
  535SOL    HW1 2389   2.922   4.761   1.867
  535SOL    HW2 2390   3.026   4.652   1.930
  536SOL     OW 2391   2.197   5.159   4.785
  536SOL    HW1 2392   2.119   5.128   4.732
  536SOL    HW2 2393   2.255   5.217   4.728
  537SOL     OW 2394   3.155   4.952   5.147
  537SOL    HW1 2395   3.192   4.879   5.089
  537SOL    HW2 2396   3.207   4.957   5.232
  538SOL     OW 2397   3.049   5.516   5.340
  538SOL    HW1 2398   3.073   5.576   5.264
  538SOL    HW2 2399   3.056   5.421   5.310
  539SOL     OW 2400   2.460   4.453   3.994
  539SOL    HW1 2401   2.484   4.522   3.926
  539SOL    HW2 2402   2.382   4.486   4.048
  540SOL     OW 2403   2.853   4.134   4.966
  540SOL    HW1 2404   2.776   4.168   5.020
  540SOL    HW2 2405   2.819   4.083   4.887
  541SOL     OW 2406   1.992   5.545   5.295
  541SOL    HW1 2407   1.982   5.530   5.394
  541SOL    HW2 2408   1.906   5.581   5.259
  542SOL     OW 2409   3.262   3.831   4.150
  542SOL    HW1 2410   3.238   3.794   4.060
  542SOL    HW2 2411   3.361   3.847   4.154
  543SOL     OW 2412   2.244   4.424   4.204
  543SOL    HW1 2413   2.289   4.334   4.201
  543SOL    HW2 2414   2.150   4.413   4.237
  544SOL     OW 2415   2.476   3.846   3.841
  544SOL    HW1 2416   2.574   3.824   3.848
  544SOL    HW2 2417   2.445   3.829   3.748
  545SOL     OW 2418   3.296   4.912   3.765
  545SOL    HW1 2419   3.328   4.836   3.822
  545SOL    HW2 2420   3.204   4.939   3.795
  546SOL     OW 2421   2.797   3.960   4.204
  546SOL    HW1 2422   2.749   4.001   4.126
  546SOL    HW2 2423   2.896   3.958   4.185
  547SOL     OW 2424   3.089   5.294   4.517
  547SOL    HW1 2425   3.110   5.368   4.452
  547SOL    HW2 2426   3.157   5.294   4.590
  548SOL     OW 2427   2.894   4.273   3.740
  548SOL    HW1 2428   2.853   4.355   3.701
  548SOL    HW2 2429   2.958   4.299   3.813
  549SOL     OW 2430   3.328   4.314   4.716
  549SOL    HW1 2431   3.298   4.219   4.723
  549SOL    HW2 2432   3.401   4.330   4.782
  550SOL     OW 2433   2.389   3.980   4.052
  550SOL    HW1 2434   2.416   3.921   3.977
  550SOL    HW2 2435   2.389   4.075   4.021
  551SOL     OW 2436   2.926   5.071   5.064
  551SOL    HW1 2437   2.846   5.048   5.119
  551SOL    HW2 2438   3.009   5.045   5.113
  552SOL     OW 2439   2.229   4.824   4.225
  552SOL    HW1 2440   2.222   4.907   4.169
  552SOL    HW2 2441   2.233   4.744   4.165
  553SOL     OW 2442   3.222   4.586   4.769
  553SOL    HW1 2443   3.147   4.586   4.703
  553SOL    HW2 2444   3.259   4.494   4.778
  554SOL     OW 2445   3.402   3.998   3.849
  554SOL    HW1 2446   3.341   3.923   3.872
  554SOL    HW2 2447   3.424   4.050   3.932
  555SOL     OW 2448   3.022   3.931   5.201
  555SOL    HW1 2449   3.022   3.995   5.278
  555SOL    HW2 2450   3.050   3.979   5.118
  556SOL     OW 2451   2.677   4.296   4.049
  556SOL    HW1 2452   2.684   4.207   4.003
  556SOL    HW2 2453   2.583   4.330   4.041
  557SOL     OW 2454   2.534   5.340   3.878
  557SOL    HW1 2455   2.543   5.350   3.779
  557SOL    HW2 2456   2.494   5.251   3.899
  558SOL     OW 2457   2.901   4.822   4.420
  558SOL    HW1 2458   2.831   4.775   4.474
  558SOL    HW2 2459   2.960   4.754   4.377
  559SOL     OW 2460   2.534   3.927   5.213
  559SOL    HW1 2461   2.624   3.911   5.173
  559SOL    HW2 2462   2.542   3.932   5.312
  560SOL     OW 2463   1.937   4.069   3.757
  560SOL    HW1 2464   1.845   4.041   3.728
  560SOL    HW2 2465   1.968   4.146   3.701
  561SOL     OW 2466   3.592   4.658   5.241
  561SOL    HW1 2467   3.630   4.749   5.256
  561SOL    HW2 2468   3.584   4.641   5.142
  562SOL     OW 2469   2.721   4.680   4.585
  562SOL    HW1 2470   2.775   4.611   4.633
  562SOL    HW2 2471   2.689   4.749   4.651
  563SOL     OW 2472   1.901   4.801   4.024
  563SOL    HW1 2473   2.000   4.790   4.015
  563SOL    HW2 2474   1.861   4.715   4.056
  564SOL     OW 2475   4.574   0.798   1.823
  564SOL    HW1 2476   4.570   0.874   1.888
  564SOL    HW2 2477   4.596   0.834   1.732
  565SOL     OW 2478   5.184   1.505   1.339
  565SOL    HW1 2479   5.208   1.599   1.365
  565SOL    HW2 2480   5.168   1.451   1.421
  566SOL     OW 2481   3.955   1.713   0.483
  566SOL    HW1 2482   3.989   1.790   0.537
  566SOL    HW2 2483   3.999   1.713   0.393
  567SOL     OW 2484   3.846   0.643   0.563
  567SOL    HW1 2485   3.801   0.555   0.580
  567SOL    HW2 2486   3.845   0.697   0.647
  568SOL     OW 2487   4.337   1.365   0.726
  568SOL    HW1 2488   4.288   1.278   0.735
  568SOL    HW2 2489   4.314   1.408   0.639
  569SOL     OW 2490   5.017   1.228   1.423
  569SOL    HW1 2491   5.054   1.155   1.365
  569SOL    HW2 2492   5.069   1.233   1.508
  570SOL     OW 2493   5.391   1.714   0.572
  570SOL    HW1 2494   5.350   1.691   0.484
  570SOL    HW2 2495   5.373   1.640   0.637
  571SOL     OW 2496   5.443   0.585   1.831
  571SOL    HW1 2497   5.417   0.674   1.795
  571SOL    HW2 2498   5.441   0.517   1.758
  572SOL     OW 2499   4.732   1.456   0.477
  572SOL    HW1 2500   4.686   1.528   0.425
  572SOL    HW2 2501   4.728   1.476   0.575
  573SOL     OW 2502   4.188   1.743   0.323
  573SOL    HW1 2503   4.221   1.782   0.409
  573SOL    HW2 2504   4.264   1.736   0.258
  574SOL     OW 2505   3.973   1.785   1.241
  574SOL    HW1 2506   4.030   1.720   1.291
  574SOL    HW2 2507   3.957   1.752   1.148
  575SOL     OW 2508   4.338   0.122   0.117
  575SOL    HW1 2509   4.436   0.100   0.124
  575SOL    HW2 2510   4.307   0.105   0.024
  576SOL     OW 2511   5.075   0.590   1.433
  576SOL    HW1 2512   5.103   0.547   1.518
  576SOL    HW2 2513   5.100   0.686   1.434
  577SOL     OW 2514   4.646   0.503   0.899
  577SOL    HW1 2515   4.621   0.494   0.803
  577SOL    HW2 2516   4.694   0.421   0.930
  578SOL     OW 2517   4.285   0.222   1.147
  578SOL    HW1 2518   4.323   0.138   1.184
  578SOL    HW2 2519   4.197   0.241   1.191
  579SOL     OW 2520   5.153   1.173   0.867
  579SOL    HW1 2521   5.098   1.089   0.860
  579SOL    HW2 2522   5.179   1.202   0.775
  580SOL     OW 2523   5.581   0.833   0.377
  580SOL    HW1 2524   5.623   0.769   0.441
  580SOL    HW2 2525   5.543   0.782   0.299
  581SOL     OW 2526   4.429   1.050   0.368
  581SOL    HW1 2527   4.415   1.057   0.467
  581SOL    HW2 2528   4.513   0.999   0.350
  582SOL     OW 2529   4.091   1.100   0.501
  582SOL    HW1 2530   4.084   1.183   0.445
  582SOL    HW2 2531   4.095   1.020   0.441
  583SOL     OW 2532   4.078   1.510   1.329
  583SOL    HW1 2533   4.057   1.466   1.242
  583SOL    HW2 2534   4.175   1.536   1.332
  584SOL     OW 2535   4.884   0.207   1.477
  584SOL    HW1 2536   4.884   0.271   1.554
  584SOL    HW2 2537   4.912   0.255   1.394
  585SOL     OW 2538   4.197   0.500   0.191
  585SOL    HW1 2539   4.258   0.580   0.195
  585SOL    HW2 2540   4.102   0.531   0.198
  586SOL     OW 2541   5.112   1.573   0.477
  586SOL    HW1 2542   5.179   1.585   0.403
  586SOL    HW2 2543   5.072   1.662   0.500
  587SOL     OW 2544   3.854   1.794   1.851
  587SOL    HW1 2545   3.813   1.720   1.904
  587SOL    HW2 2546   3.918   1.845   1.909
  588SOL     OW 2547   3.829   1.013   1.726
  588SOL    HW1 2548   3.752   0.980   1.780
  588SOL    HW2 2549   3.914   0.983   1.768
  589SOL     OW 2550   5.174   1.220   1.633
  589SOL    HW1 2551   5.165   1.210   1.732
  589SOL    HW2 2552   5.270   1.213   1.607
  590SOL     OW 2553   4.318   0.745   0.652
  590SOL    HW1 2554   4.368   0.830   0.633
  590SOL    HW2 2555   4.230   0.747   0.604
  591SOL     OW 2556   4.725   0.034   1.154
  591SOL    HW1 2557   4.662  -0.038   1.123
  591SOL    HW2 2558   4.818  -0.002   1.154
  592SOL     OW 2559   3.763   1.077   0.300
  592SOL    HW1 2560   3.862   1.066   0.291
  592SOL    HW2 2561   3.723   0.991   0.332
  593SOL     OW 2562   3.949   0.275   2.858
  593SOL    HW1 2563   3.984   0.258   2.950
  593SOL    HW2 2564   3.861   0.230   2.846
  594SOL     OW 2565   5.184   1.505   3.201
  594SOL    HW1 2566   5.208   1.599   3.227
  594SOL    HW2 2567   5.168   1.451   3.283
  595SOL     OW 2568   3.954   1.434   2.400
  595SOL    HW1 2569   3.928   1.530   2.400
  595SOL    HW2 2570   3.883   1.380   2.445
  596SOL     OW 2571   3.964   1.091   2.748
  596SOL    HW1 2572   3.978   1.007   2.800
  596SOL    HW2 2573   3.909   1.155   2.803
  597SOL     OW 2574   3.846   0.643   2.425
  597SOL    HW1 2575   3.801   0.555   2.442
  597SOL    HW2 2576   3.845   0.697   2.509
  598SOL     OW 2577   3.751   1.596   1.979
  598SOL    HW1 2578   3.732   1.500   2.000
  598SOL    HW2 2579   3.718   1.654   2.054
  599SOL     OW 2580   4.531   0.605   3.327
  599SOL    HW1 2581   4.484   0.602   3.416
  599SOL    HW2 2582   4.480   0.550   3.261
  600SOL     OW 2583   4.612   1.514   3.057
  600SOL    HW1 2584   4.589   1.489   2.963
  600SOL    HW2 2585   4.673   1.445   3.096
  601SOL     OW 2586   5.190   0.590   2.854
  601SOL    HW1 2587   5.160   0.495   2.861
  601SOL    HW2 2588   5.263   0.606   2.920
  602SOL     OW 2589   4.788   1.347   3.202
  602SOL    HW1 2590   4.708   1.324   3.257
  602SOL    HW2 2591   4.871   1.321   3.251
  603SOL     OW 2592   4.998   0.386   3.124
  603SOL    HW1 2593   5.019   0.460   3.188
  603SOL    HW2 2594   4.909   0.403   3.081
  604SOL     OW 2595   4.091   1.100   2.363
  604SOL    HW1 2596   4.084   1.183   2.307
  604SOL    HW2 2597   4.095   1.020   2.303
  605SOL     OW 2598   4.976   1.348   2.250
  605SOL    HW1 2599   5.026   1.425   2.290
  605SOL    HW2 2600   4.881   1.350   2.282
  606SOL     OW 2601   4.933   0.525   2.137
  606SOL    HW1 2602   4.946   0.441   2.191
  606SOL    HW2 2603   4.904   0.599   2.197
  607SOL     OW 2604   4.747   0.766   2.828
  607SOL    HW1 2605   4.762   0.787   2.924
  607SOL    HW2 2606   4.717   0.671   2.819
  608SOL     OW 2607   4.704   1.573   3.562
  608SOL    HW1 2608   4.684   1.617   3.474
  608SOL    HW2 2609   4.743   1.482   3.546
  609SOL     OW 2610   5.264   0.274   1.987
  609SOL    HW1 2611   5.203   0.199   2.010
  609SOL    HW2 2612   5.286   0.326   2.070
  610SOL     OW 2613   4.726   0.796   3.100
  610SOL    HW1 2614   4.767   0.764   3.186
  610SOL    HW2 2615   4.630   0.769   3.097
  611SOL     OW 2616   3.913   0.520   3.584
  611SOL    HW1 2617   3.972   0.480   3.514
  611SOL    HW2 2618   3.855   0.591   3.543
  612SOL     OW 2619   3.807   1.258   2.884
  612SOL    HW1 2620   3.802   1.257   2.984
  612SOL    HW2 2621   3.724   1.217   2.846
  613SOL     OW 2622   5.338   1.292   3.151
  613SOL    HW1 2623   5.398   1.295   3.231
  613SOL    HW2 2624   5.263   1.356   3.164
  614SOL     OW 2625   4.763   1.098   2.558
  614SOL    HW1 2626   4.693   1.051   2.612
  614SOL    HW2 2627   4.822   1.030   2.515
  615SOL     OW 2628   5.398   0.883   3.116
  615SOL    HW1 2629   5.371   0.794   3.079
  615SOL    HW2 2630   5.399   0.951   3.043
  616SOL     OW 2631   4.949   0.325   2.311
  616SOL    HW1 2632   5.014   0.251   2.300
  616SOL    HW2 2633   4.969   0.375   2.395
  617SOL     OW 2634   5.585   1.569   2.713
  617SOL    HW1 2635   5.514   1.557   2.643
  617SOL    HW2 2636   5.586   1.490   2.773
  618SOL     OW 2637   4.342   1.567   3.146
  618SOL    HW1 2638   4.337   1.649   3.203
  618SOL    HW2 2639   4.431   1.564   3.101
  619SOL     OW 2640   5.076   0.052   2.030
  619SOL    HW1 2641   5.111   0.011   1.946
  619SOL    HW2 2642   4.986   0.014   2.050
  620SOL     OW 2643   5.024   0.453   2.553
  620SOL    HW1 2644   4.965   0.533   2.557
  620SOL    HW2 2645   5.039   0.418   2.646
  621SOL     OW 2646   3.964   1.091   4.610
  621SOL    HW1 2647   3.978   1.007   4.662
  621SOL    HW2 2648   3.909   1.155   4.665
  622SOL     OW 2649   5.413   0.922   4.336
  622SOL    HW1 2650   5.508   0.893   4.344
  622SOL    HW2 2651   5.405   0.987   4.261
  623SOL     OW 2652   5.017   1.228   5.147
  623SOL    HW1 2653   5.054   1.155   5.089
  623SOL    HW2 2654   5.069   1.233   5.232
  624SOL     OW 2655   4.041   0.251   5.525
  624SOL    HW1 2656   4.112   0.322   5.531
  624SOL    HW2 2657   3.953   0.290   5.553
  625SOL     OW 2658   4.322   0.729   3.994
  625SOL    HW1 2659   4.346   0.798   3.926
  625SOL    HW2 2660   4.244   0.762   4.048
  626SOL     OW 2661   4.732   1.456   4.201
  626SOL    HW1 2662   4.686   1.528   4.149
  626SOL    HW2 2663   4.728   1.476   4.299
  627SOL     OW 2664   4.835   1.776   3.961
  627SOL    HW1 2665   4.775   1.714   4.011
  627SOL    HW2 2666   4.866   1.732   3.876
  628SOL     OW 2667   4.338   0.122   3.841
  628SOL    HW1 2668   4.436   0.100   3.848
  628SOL    HW2 2669   4.307   0.105   3.748
  629SOL     OW 2670   4.951   1.570   4.517
  629SOL    HW1 2671   4.972   1.644   4.452
  629SOL    HW2 2672   5.019   1.570   4.590
  630SOL     OW 2673   4.639   0.089   5.126
  630SOL    HW1 2674   4.664   0.069   5.031
  630SOL    HW2 2675   4.711   0.145   5.168
  631SOL     OW 2676   4.429   1.050   4.092
  631SOL    HW1 2677   4.415   1.057   4.191
  631SOL    HW2 2678   4.513   0.999   4.074
  632SOL     OW 2679   4.297   0.870   4.753
  632SOL    HW1 2680   4.341   0.959   4.744
  632SOL    HW2 2681   4.234   0.870   4.830
  633SOL     OW 2682   4.031   0.063   4.342
  633SOL    HW1 2683   4.020   0.157   4.375
  633SOL    HW2 2684   4.026   0.000   4.419
  634SOL     OW 2685   4.228   1.568   4.634
  634SOL    HW1 2686   4.294   1.642   4.643
  634SOL    HW2 2687   4.272   1.489   4.592
  635SOL     OW 2688   5.026   0.855   4.033
  635SOL    HW1 2689   4.940   0.824   4.075
  635SOL    HW2 2690   5.022   0.841   3.934
  636SOL     OW 2691   4.640   0.910   4.015
  636SOL    HW1 2692   4.703   0.948   3.947
  636SOL    HW2 2693   4.680   0.827   4.054
  637SOL     OW 2694   4.583   0.956   4.585
  637SOL    HW1 2695   4.637   0.887   4.633
  637SOL    HW2 2696   4.551   1.025   4.651
  638SOL     OW 2697   4.342   1.567   5.008
  638SOL    HW1 2698   4.337   1.649   5.065
  638SOL    HW2 2699   4.431   1.564   4.963
  639SOL     OW 2700   5.317   0.221   4.606
  639SOL    HW1 2701   5.233   0.220   4.660
  639SOL    HW2 2702   5.319   0.304   4.550
  640SOL     OW 2703   3.763   1.077   4.024
  640SOL    HW1 2704   3.862   1.066   4.015
  640SOL    HW2 2705   3.723   0.991   4.056
  641SOL     OW 2706   3.954   2.490   0.113
  641SOL    HW1 2707   3.861   2.488   0.150
  641SOL    HW2 2708   3.955   2.451   0.021
  642SOL     OW 2709   3.949   2.137   0.996
  642SOL    HW1 2710   3.984   2.120   1.088
  642SOL    HW2 2711   3.861   2.092   0.984
  643SOL     OW 2712   4.492   3.006   1.023
  643SOL    HW1 2713   4.414   3.023   1.083
  643SOL    HW2 2714   4.526   3.093   0.987
  644SOL     OW 2715   4.162   2.254   1.499
  644SOL    HW1 2716   4.244   2.198   1.508
  644SOL    HW2 2717   4.081   2.196   1.503
  645SOL     OW 2718   4.330   2.826   0.123
  645SOL    HW1 2719   4.337   2.910   0.069
  645SOL    HW2 2720   4.376   2.839   0.211
  646SOL     OW 2721   5.391   3.576   0.572
  646SOL    HW1 2722   5.350   3.553   0.484
  646SOL    HW2 2723   5.373   3.502   0.637
  647SOL     OW 2724   5.300   3.524   0.307
  647SOL    HW1 2725   5.389   3.570   0.310
  647SOL    HW2 2726   5.279   3.500   0.212
  648SOL     OW 2727   4.531   2.467   1.465
  648SOL    HW1 2728   4.484   2.464   1.554
  648SOL    HW2 2729   4.480   2.412   1.399
  649SOL     OW 2730   4.715   2.272   1.242
  649SOL    HW1 2731   4.638   2.306   1.296
  649SOL    HW2 2732   4.681   2.221   1.163
  650SOL     OW 2733   3.800   2.673   0.789
  650SOL    HW1 2734   3.899   2.661   0.798
  650SOL    HW2 2735   3.776   2.768   0.810
  651SOL     OW 2736   5.443   2.447   1.831
  651SOL    HW1 2737   5.417   2.536   1.795
  651SOL    HW2 2738   5.441   2.379   1.758
  652SOL     OW 2739   4.274   2.058   0.885
  652SOL    HW1 2740   4.269   2.053   0.985
  652SOL    HW2 2741   4.276   2.154   0.856
  653SOL     OW 2742   4.732   3.318   0.477
  653SOL    HW1 2743   4.686   3.390   0.425
  653SOL    HW2 2744   4.728   3.338   0.575
  654SOL     OW 2745   4.106   2.562   0.480
  654SOL    HW1 2746   4.151   2.472   0.477
  654SOL    HW2 2747   4.012   2.551   0.513
  655SOL     OW 2748   4.021   1.897   0.171
  655SOL    HW1 2749   4.070   1.981   0.150
  655SOL    HW2 2750   4.083   1.832   0.216
  656SOL     OW 2751   4.800   2.545   1.464
  656SOL    HW1 2752   4.720   2.484   1.467
  656SOL    HW2 2753   4.881   2.492   1.440
  657SOL     OW 2754   4.995   3.659   0.591
  657SOL    HW1 2755   5.039   3.723   0.527
  657SOL    HW2 2756   4.945   3.711   0.661
  658SOL     OW 2757   4.285   2.084   1.147
  658SOL    HW1 2758   4.323   2.000   1.184
  658SOL    HW2 2759   4.197   2.103   1.191
  659SOL     OW 2760   4.590   2.316   0.642
  659SOL    HW1 2761   4.558   2.388   0.580
  659SOL    HW2 2762   4.614   2.235   0.589
  660SOL     OW 2763   4.741   1.901   0.753
  660SOL    HW1 2764   4.669   1.906   0.684
  660SOL    HW2 2765   4.717   1.832   0.822
  661SOL     OW 2766   5.153   3.035   0.867
  661SOL    HW1 2767   5.098   2.951   0.860
  661SOL    HW2 2768   5.179   3.064   0.775
  662SOL     OW 2769   5.190   2.452   0.992
  662SOL    HW1 2770   5.160   2.357   0.999
  662SOL    HW2 2771   5.263   2.468   1.058
  663SOL     OW 2772   5.581   2.695   0.377
  663SOL    HW1 2773   5.623   2.631   0.441
  663SOL    HW2 2774   5.543   2.644   0.299
  664SOL     OW 2775   5.114   2.437   0.078
  664SOL    HW1 2776   5.060   2.416   0.159
  664SOL    HW2 2777   5.205   2.396   0.087
  665SOL     OW 2778   4.976   3.210   0.388
  665SOL    HW1 2779   5.026   3.287   0.428
  665SOL    HW2 2780   4.881   3.212   0.420
  666SOL     OW 2781   5.311   2.641   1.670
  666SOL    HW1 2782   5.219   2.679   1.665
  666SOL    HW2 2783   5.371   2.688   1.605
  667SOL     OW 2784   5.264   2.136   0.125
  667SOL    HW1 2785   5.203   2.061   0.148
  667SOL    HW2 2786   5.286   2.188   0.208
  668SOL     OW 2787   4.043   2.672   0.949
  668SOL    HW1 2788   4.136   2.708   0.954
  668SOL    HW2 2789   4.037   2.587   1.001
  669SOL     OW 2790   3.812   3.663   0.927
  669SOL    HW1 2791   3.770   3.577   0.900
  669SOL    HW2 2792   3.906   3.666   0.893
  670SOL     OW 2793   4.726   2.658   1.238
  670SOL    HW1 2794   4.767   2.626   1.324
  670SOL    HW2 2795   4.630   2.631   1.235
  671SOL     OW 2796   3.913   2.382   1.722
  671SOL    HW1 2797   3.972   2.342   1.652
  671SOL    HW2 2798   3.855   2.453   1.681
  672SOL     OW 2799   4.395   2.326   1.269
  672SOL    HW1 2800   4.361   2.237   1.239
  672SOL    HW2 2801   4.421   2.380   1.189
  673SOL     OW 2802   3.807   3.120   1.022
  673SOL    HW1 2803   3.802   3.119   1.122
  673SOL    HW2 2804   3.724   3.079   0.984
  674SOL     OW 2805   4.546   2.864   1.372
  674SOL    HW1 2806   4.586   2.863   1.280
  674SOL    HW2 2807   4.556   2.956   1.412
  675SOL     OW 2808   4.314   3.349   0.491
  675SOL    HW1 2809   4.356   3.291   0.421
  675SOL    HW2 2810   4.270   3.428   0.447
  676SOL     OW 2811   3.829   2.875   1.726
  676SOL    HW1 2812   3.752   2.842   1.780
  676SOL    HW2 2813   3.914   2.845   1.768
  677SOL     OW 2814   5.164   2.718   1.398
  677SOL    HW1 2815   5.107   2.770   1.335
  677SOL    HW2 2816   5.260   2.730   1.374
  678SOL     OW 2817   5.217   3.629   0.959
  678SOL    HW1 2818   5.250   3.693   0.890
  678SOL    HW2 2819   5.283   3.623   1.034
  679SOL     OW 2820   5.454   2.796   1.517
  679SOL    HW1 2821   5.492   2.887   1.532
  679SOL    HW2 2822   5.446   2.779   1.418
  680SOL     OW 2823   5.548   2.054   1.227
  680SOL    HW1 2824   5.544   1.964   1.271
  680SOL    HW2 2825   5.551   2.043   1.128
  681SOL     OW 2826   5.429   3.349   1.104
  681SOL    HW1 2827   5.336   3.324   1.077
  681SOL    HW2 2828   5.455   3.299   1.186
  682SOL     OW 2829   5.024   2.315   0.691
  682SOL    HW1 2830   4.965   2.395   0.695
  682SOL    HW2 2831   5.039   2.280   0.784
  683SOL     OW 2832   5.279   3.373   2.565
  683SOL    HW1 2833   5.222   3.357   2.646
  683SOL    HW2 2834   5.220   3.383   2.485
  684SOL     OW 2835   4.410   3.023   3.665
  684SOL    HW1 2836   4.470   3.102   3.679
  684SOL    HW2 2837   4.324   3.054   3.624
  685SOL     OW 2838   3.954   3.296   2.400
  685SOL    HW1 2839   3.928   3.392   2.400
  685SOL    HW2 2840   3.883   3.242   2.445
  686SOL     OW 2841   3.964   2.953   2.748
  686SOL    HW1 2842   3.978   2.869   2.800
  686SOL    HW2 2843   3.909   3.017   2.803
  687SOL     OW 2844   5.391   3.576   2.434
  687SOL    HW1 2845   5.350   3.553   2.346
  687SOL    HW2 2846   5.373   3.502   2.499
  688SOL     OW 2847   4.835   3.638   2.099
  688SOL    HW1 2848   4.775   3.576   2.149
  688SOL    HW2 2849   4.866   3.594   2.014
  689SOL     OW 2850   4.188   3.605   2.185
  689SOL    HW1 2851   4.221   3.644   2.271
  689SOL    HW2 2852   4.264   3.598   2.120
  690SOL     OW 2853   4.106   2.562   2.342
  690SOL    HW1 2854   4.151   2.472   2.339
  690SOL    HW2 2855   4.012   2.551   2.375
  691SOL     OW 2856   4.646   2.365   2.761
  691SOL    HW1 2857   4.621   2.356   2.665
  691SOL    HW2 2858   4.694   2.283   2.792
  692SOL     OW 2859   4.285   2.084   3.009
  692SOL    HW1 2860   4.323   2.000   3.046
  692SOL    HW2 2861   4.197   2.103   3.053
  693SOL     OW 2862   4.212   3.247   2.036
  693SOL    HW1 2863   4.125   3.232   2.083
  693SOL    HW2 2864   4.195   3.273   1.941
  694SOL     OW 2865   5.316   3.491   3.487
  694SOL    HW1 2866   5.343   3.525   3.397
  694SOL    HW2 2867   5.395   3.453   3.533
  695SOL     OW 2868   4.134   2.675   3.113
  695SOL    HW1 2869   4.220   2.687   3.163
  695SOL    HW2 2870   4.092   2.588   3.140
  696SOL     OW 2871   4.996   3.307   3.004
  696SOL    HW1 2872   5.043   3.320   3.091
  696SOL    HW2 2873   4.930   3.233   3.013
  697SOL     OW 2874   5.084   2.724   2.907
  697SOL    HW1 2875   5.009   2.724   2.841
  697SOL    HW2 2876   5.121   2.632   2.916
  698SOL     OW 2877   4.074   2.760   3.666
  698SOL    HW1 2878   4.150   2.804   3.714
  698SOL    HW2 2879   4.109   2.713   3.584
  699SOL     OW 2880   4.043   2.672   2.811
  699SOL    HW1 2881   4.136   2.708   2.816
  699SOL    HW2 2882   4.037   2.587   2.863
  700SOL     OW 2883   3.732   3.188   2.062
  700SOL    HW1 2884   3.639   3.209   2.031
  700SOL    HW2 2885   3.742   3.089   2.075
  701SOL     OW 2886   5.026   2.717   2.171
  701SOL    HW1 2887   4.940   2.686   2.213
  701SOL    HW2 2888   5.022   2.703   2.072
  702SOL     OW 2889   4.554   3.135   3.284
  702SOL    HW1 2890   4.549   3.168   3.379
  702SOL    HW2 2891   4.468   3.154   3.238
  703SOL     OW 2892   4.314   3.349   2.353
  703SOL    HW1 2893   4.356   3.291   2.283
  703SOL    HW2 2894   4.270   3.428   2.309
  704SOL     OW 2895   5.164   2.718   3.260
  704SOL    HW1 2896   5.107   2.770   3.197
  704SOL    HW2 2897   5.260   2.730   3.236
  705SOL     OW 2898   4.114   3.603   3.422
  705SOL    HW1 2899   4.023   3.644   3.420
  705SOL    HW2 2900   4.107   3.509   3.454
  706SOL     OW 2901   5.398   2.745   3.116
  706SOL    HW1 2902   5.371   2.656   3.079
  706SOL    HW2 2903   5.399   2.813   3.043
  707SOL     OW 2904   4.583   3.236   1.878
  707SOL    HW1 2905   4.537   3.251   1.966
  707SOL    HW2 2906   4.627   3.321   1.848
  708SOL     OW 2907   4.396   3.253   3.486
  708SOL    HW1 2908   4.318   3.203   3.524
  708SOL    HW2 2909   4.393   3.348   3.517
  709SOL     OW 2910   4.152   2.286   2.382
  709SOL    HW1 2911   4.182   2.214   2.320
  709SOL    HW2 2912   4.113   2.246   2.465
  710SOL     OW 2913   4.536   3.448   2.549
  710SOL    HW1 2914   4.568   3.458   2.455
  710SOL    HW2 2915   4.457   3.386   2.551
  711SOL     OW 2916   3.954   2.490   3.837
  711SOL    HW1 2917   3.861   2.488   3.874
  711SOL    HW2 2918   3.955   2.451   3.745
  712SOL     OW 2919   3.949   2.137   4.720
  712SOL    HW1 2920   3.984   2.120   4.812
  712SOL    HW2 2921   3.861   2.092   4.708
  713SOL     OW 2922   5.279   3.373   4.427
  713SOL    HW1 2923   5.222   3.357   4.508
  713SOL    HW2 2924   5.220   3.383   4.347
  714SOL     OW 2925   3.837   2.599   5.321
  714SOL    HW1 2926   3.925   2.586   5.366
  714SOL    HW2 2927   3.824   2.696   5.299
  715SOL     OW 2928   4.533   1.866   4.226
  715SOL    HW1 2929   4.573   1.957   4.217
  715SOL    HW2 2930   4.433   1.874   4.232
  716SOL     OW 2931   5.249   2.861   3.914
  716SOL    HW1 2932   5.186   2.785   3.927
  716SOL    HW2 2933   5.297   2.879   4.000
  717SOL     OW 2934   4.531   2.467   5.189
  717SOL    HW1 2935   4.484   2.464   5.278
  717SOL    HW2 2936   4.480   2.412   5.123
  718SOL     OW 2937   4.697   2.752   5.296
  718SOL    HW1 2938   4.743   2.668   5.267
  718SOL    HW2 2939   4.641   2.786   5.221
  719SOL     OW 2940   4.045   2.805   3.966
  719SOL    HW1 2941   4.127   2.844   3.924
  719SOL    HW2 2942   4.018   2.723   3.917
  720SOL     OW 2943   5.182   2.597   4.452
  720SOL    HW1 2944   5.177   2.532   4.527
  720SOL    HW2 2945   5.262   2.656   4.465
  721SOL     OW 2946   4.338   1.984   3.841
  721SOL    HW1 2947   4.436   1.962   3.848
  721SOL    HW2 2948   4.307   1.967   3.748
  722SOL     OW 2949   4.800   2.545   5.188
  722SOL    HW1 2950   4.720   2.484   5.191
  722SOL    HW2 2951   4.881   2.492   5.164
  723SOL     OW 2952   4.183   3.014   4.465
  723SOL    HW1 2953   4.112   2.987   4.530
  723SOL    HW2 2954   4.157   2.986   4.372
  724SOL     OW 2955   4.590   2.316   4.366
  724SOL    HW1 2956   4.558   2.388   4.304
  724SOL    HW2 2957   4.614   2.235   4.313
  725SOL     OW 2958   4.134   2.675   4.975
  725SOL    HW1 2959   4.220   2.687   5.025
  725SOL    HW2 2960   4.092   2.588   5.002
  726SOL     OW 2961   5.311   2.641   5.394
  726SOL    HW1 2962   5.219   2.679   5.389
  726SOL    HW2 2963   5.371   2.688   5.329
  727SOL     OW 2964   4.031   2.075   4.955
  727SOL    HW1 2965   4.008   2.112   5.045
  727SOL    HW2 2966   4.001   1.980   4.949
  728SOL     OW 2967   4.539   2.434   4.049
  728SOL    HW1 2968   4.546   2.345   4.003
  728SOL    HW2 2969   4.445   2.468   4.041
  729SOL     OW 2970   4.197   2.362   3.915
  729SOL    HW1 2971   4.258   2.442   3.919
  729SOL    HW2 2972   4.102   2.393   3.922
  730SOL     OW 2973   3.807   3.120   4.746
  730SOL    HW1 2974   3.802   3.119   4.846
  730SOL    HW2 2975   3.724   3.079   4.708
  731SOL     OW 2976   4.546   2.864   5.096
  731SOL    HW1 2977   4.586   2.863   5.004
  731SOL    HW2 2978   4.556   2.956   5.136
  732SOL     OW 2979   4.640   2.772   4.015
  732SOL    HW1 2980   4.703   2.810   3.947
  732SOL    HW2 2981   4.680   2.689   4.054
  733SOL     OW 2982   4.763   2.960   4.420
  733SOL    HW1 2983   4.693   2.913   4.474
  733SOL    HW2 2984   4.822   2.892   4.377
  734SOL     OW 2985   4.738   2.098   4.695
  734SOL    HW1 2986   4.730   2.062   4.602
  734SOL    HW2 2987   4.736   2.022   4.760
  735SOL     OW 2988   3.799   2.207   3.757
  735SOL    HW1 2989   3.707   2.179   3.728
  735SOL    HW2 2990   3.830   2.284   3.701
  736SOL     OW 2991   4.337   2.704   5.155
  736SOL    HW1 2992   4.393   2.785   5.138
  736SOL    HW2 2993   4.396   2.624   5.158
  737SOL     OW 2994   5.217   3.629   4.683
  737SOL    HW1 2995   5.250   3.693   4.614
  737SOL    HW2 2996   5.283   3.623   4.758
  738SOL     OW 2997   4.318   2.607   4.376
  738SOL    HW1 2998   4.368   2.692   4.357
  738SOL    HW2 2999   4.230   2.609   4.328
  739SOL     OW 3000   5.454   2.796   5.241
  739SOL    HW1 3001   5.492   2.887   5.256
  739SOL    HW2 3002   5.446   2.779   5.142
  740SOL     OW 3003   5.076   1.914   3.892
  740SOL    HW1 3004   5.111   1.873   3.808
  740SOL    HW2 3005   4.986   1.876   3.912
  741SOL     OW 3006   5.318   3.838   1.480
  741SOL    HW1 3007   5.300   3.905   1.408
  741SOL    HW2 3008   5.315   3.884   1.569
  742SOL     OW 3009   3.846   4.367   0.563
  742SOL    HW1 3010   3.801   4.279   0.580
  742SOL    HW2 3011   3.845   4.421   0.647
  743SOL     OW 3012   3.751   5.320   0.117
  743SOL    HW1 3013   3.732   5.224   0.138
  743SOL    HW2 3014   3.718   5.378   0.192
  744SOL     OW 3015   3.837   4.461   1.597
  744SOL    HW1 3016   3.925   4.448   1.642
  744SOL    HW2 3017   3.824   4.558   1.575
  745SOL     OW 3018   4.041   3.975   1.801
  745SOL    HW1 3019   4.112   4.046   1.807
  745SOL    HW2 3020   3.953   4.014   1.829
  746SOL     OW 3021   4.715   4.134   1.242
  746SOL    HW1 3022   4.638   4.168   1.296
  746SOL    HW2 3023   4.681   4.083   1.163
  747SOL     OW 3024   4.338   3.846   0.117
  747SOL    HW1 3025   4.436   3.824   0.124
  747SOL    HW2 3026   4.307   3.829   0.024
  748SOL     OW 3027   5.075   4.314   1.433
  748SOL    HW1 3028   5.103   4.271   1.518
  748SOL    HW2 3029   5.100   4.410   1.434
  749SOL     OW 3030   4.788   5.071   1.340
  749SOL    HW1 3031   4.708   5.048   1.395
  749SOL    HW2 3032   4.871   5.045   1.389
  750SOL     OW 3033   4.429   4.774   0.368
  750SOL    HW1 3034   4.415   4.781   0.467
  750SOL    HW2 3035   4.513   4.723   0.350
  751SOL     OW 3036   4.091   4.824   0.501
  751SOL    HW1 3037   4.084   4.907   0.445
  751SOL    HW2 3038   4.095   4.744   0.441
  752SOL     OW 3039   4.976   5.072   0.388
  752SOL    HW1 3040   5.026   5.149   0.428
  752SOL    HW2 3041   4.881   5.074   0.420
  753SOL     OW 3042   4.996   5.169   1.142
  753SOL    HW1 3043   5.043   5.182   1.229
  753SOL    HW2 3044   4.930   5.095   1.151
  754SOL     OW 3045   4.704   5.297   1.700
  754SOL    HW1 3046   4.684   5.341   1.612
  754SOL    HW2 3047   4.743   5.206   1.684
  755SOL     OW 3048   3.732   5.050   0.200
  755SOL    HW1 3049   3.639   5.071   0.169
  755SOL    HW2 3050   3.742   4.951   0.213
  756SOL     OW 3051   5.093   4.674   1.660
  756SOL    HW1 3052   5.132   4.763   1.680
  756SOL    HW2 3053   5.103   4.654   1.563
  757SOL     OW 3054   3.883   4.861   1.466
  757SOL    HW1 3055   3.905   4.800   1.542
  757SOL    HW2 3056   3.893   4.812   1.380
  758SOL     OW 3057   4.976   5.455   1.128
  758SOL    HW1 3058   5.060   5.460   1.074
  758SOL    HW2 3059   4.953   5.359   1.146
  759SOL     OW 3060   4.096   5.012   1.490
  759SOL    HW1 3061   4.083   5.105   1.456
  759SOL    HW2 3062   4.012   4.960   1.477
  760SOL     OW 3063   5.338   5.016   1.289
  760SOL    HW1 3064   5.398   5.019   1.369
  760SOL    HW2 3065   5.263   5.080   1.302
  761SOL     OW 3066   4.314   5.211   0.491
  761SOL    HW1 3067   4.356   5.153   0.421
  761SOL    HW2 3068   4.270   5.290   0.447
  762SOL     OW 3069   3.979   5.072   0.290
  762SOL    HW1 3070   3.883   5.073   0.263
  762SOL    HW2 3071   3.991   5.125   0.374
  763SOL     OW 3072   3.796   3.890   0.318
  763SOL    HW1 3073   3.779   3.973   0.264
  763SOL    HW2 3074   3.886   3.853   0.296
  764SOL     OW 3075   4.907   5.059   0.119
  764SOL    HW1 3076   4.808   5.048   0.121
  764SOL    HW2 3077   4.941   5.074   0.212
  765SOL     OW 3078   5.217   5.491   0.959
  765SOL    HW1 3079   5.250   5.555   0.890
  765SOL    HW2 3080   5.283   5.485   1.034
  766SOL     OW 3081   5.174   4.944   1.633
  766SOL    HW1 3082   5.165   4.934   1.732
  766SOL    HW2 3083   5.270   4.937   1.607
  767SOL     OW 3084   5.501   4.066   1.642
  767SOL    HW1 3085   5.484   4.097   1.548
  767SOL    HW2 3086   5.417   4.029   1.680
  768SOL     OW 3087   5.548   3.916   1.227
  768SOL    HW1 3088   5.544   3.826   1.271
  768SOL    HW2 3089   5.551   3.905   1.128
  769SOL     OW 3090   5.429   5.211   1.104
  769SOL    HW1 3091   5.336   5.186   1.077
  769SOL    HW2 3092   5.455   5.161   1.186
  770SOL     OW 3093   4.536   5.310   0.687
  770SOL    HW1 3094   4.568   5.320   0.593
  770SOL    HW2 3095   4.457   5.248   0.689
  771SOL     OW 3096   5.148   3.938   1.112
  771SOL    HW1 3097   5.200   3.873   1.167
  771SOL    HW2 3098   5.099   4.001   1.173
  772SOL     OW 3099   4.342   5.291   1.284
  772SOL    HW1 3100   4.337   5.373   1.341
  772SOL    HW2 3101   4.431   5.288   1.239
  773SOL     OW 3102   3.954   4.352   1.975
  773SOL    HW1 3103   3.861   4.350   2.012
  773SOL    HW2 3104   3.955   4.313   1.883
  774SOL     OW 3105   4.409   4.736   2.527
  774SOL    HW1 3106   4.478   4.720   2.597
  774SOL    HW2 3107   4.336   4.793   2.565
  775SOL     OW 3108   3.954   5.158   2.400
  775SOL    HW1 3109   3.928   5.254   2.400
  775SOL    HW2 3110   3.883   5.104   2.445
  776SOL     OW 3111   3.837   4.461   3.459
  776SOL    HW1 3112   3.925   4.448   3.504
  776SOL    HW2 3113   3.824   4.558   3.437
  777SOL     OW 3114   5.017   4.952   3.285
  777SOL    HW1 3115   5.054   4.879   3.227
  777SOL    HW2 3116   5.069   4.957   3.370
  778SOL     OW 3117   4.322   4.453   2.132
  778SOL    HW1 3118   4.346   4.522   2.064
  778SOL    HW2 3119   4.244   4.486   2.186
  779SOL     OW 3120   4.715   4.134   3.104
  779SOL    HW1 3121   4.638   4.168   3.158
  779SOL    HW2 3122   4.681   4.083   3.025
  780SOL     OW 3123   5.443   4.309   3.693
  780SOL    HW1 3124   5.417   4.398   3.657
  780SOL    HW2 3125   5.441   4.241   3.620
  781SOL     OW 3126   4.835   5.500   2.099
  781SOL    HW1 3127   4.775   5.438   2.149
  781SOL    HW2 3128   4.866   5.456   2.014
  782SOL     OW 3129   4.951   5.294   2.655
  782SOL    HW1 3130   4.972   5.368   2.590
  782SOL    HW2 3131   5.019   5.294   2.728
  783SOL     OW 3132   4.756   4.273   1.878
  783SOL    HW1 3133   4.715   4.355   1.839
  783SOL    HW2 3134   4.820   4.299   1.951
  784SOL     OW 3135   5.153   4.897   2.729
  784SOL    HW1 3136   5.098   4.813   2.722
  784SOL    HW2 3137   5.179   4.926   2.637
  785SOL     OW 3138   4.835   4.919   2.962
  785SOL    HW1 3139   4.795   4.963   3.043
  785SOL    HW2 3140   4.794   4.956   2.879
  786SOL     OW 3141   3.788   5.288   3.193
  786SOL    HW1 3142   3.742   5.370   3.159
  786SOL    HW2 3143   3.886   5.307   3.202
  787SOL     OW 3144   4.091   4.824   2.363
  787SOL    HW1 3145   4.084   4.907   2.307
  787SOL    HW2 3146   4.095   4.744   2.303
  788SOL     OW 3147   4.976   5.072   2.250
  788SOL    HW1 3148   5.026   5.149   2.290
  788SOL    HW2 3149   4.881   5.074   2.282
  789SOL     OW 3150   3.761   5.034   3.144
  789SOL    HW1 3151   3.814   4.985   3.212
  789SOL    HW2 3152   3.783   5.132   3.149
  790SOL     OW 3153   4.456   4.358   2.926
  790SOL    HW1 3154   4.515   4.332   2.850
  790SOL    HW2 3155   4.428   4.454   2.915
  791SOL     OW 3156   4.043   4.534   2.811
  791SOL    HW1 3157   4.136   4.570   2.816
  791SOL    HW2 3158   4.037   4.449   2.863
  792SOL     OW 3159   5.093   4.674   3.522
  792SOL    HW1 3160   5.132   4.763   3.542
  792SOL    HW2 3161   5.103   4.654   3.425
  793SOL     OW 3162   4.539   4.296   2.187
  793SOL    HW1 3163   4.546   4.207   2.141
  793SOL    HW2 3164   4.445   4.330   2.179
  794SOL     OW 3165   4.197   4.224   2.053
  794SOL    HW1 3166   4.258   4.304   2.057
  794SOL    HW2 3167   4.102   4.255   2.060
  795SOL     OW 3168   5.112   5.297   2.339
  795SOL    HW1 3169   5.179   5.309   2.265
  795SOL    HW2 3170   5.072   5.386   2.362
  796SOL     OW 3171   4.554   4.997   3.284
  796SOL    HW1 3172   4.549   5.030   3.379
  796SOL    HW2 3173   4.468   5.016   3.238
  797SOL     OW 3174   3.987   4.050   2.582
  797SOL    HW1 3175   3.908   4.101   2.548
  797SOL    HW2 3176   3.978   4.035   2.680
  798SOL     OW 3177   4.318   4.469   2.514
  798SOL    HW1 3178   4.368   4.554   2.495
  798SOL    HW2 3179   4.230   4.471   2.466
  799SOL     OW 3180   3.945   5.038   3.706
  799SOL    HW1 3181   3.880   4.965   3.685
  799SOL    HW2 3182   3.949   5.052   3.804
  800SOL     OW 3183   4.536   5.310   2.549
  800SOL    HW1 3184   4.568   5.320   2.455
  800SOL    HW2 3185   4.457   5.248   2.551
  801SOL     OW 3186   3.954   4.352   3.837
  801SOL    HW1 3187   3.861   4.350   3.874
  801SOL    HW2 3188   3.955   4.313   3.745
  802SOL     OW 3189   3.949   3.999   4.720
  802SOL    HW1 3190   3.984   3.982   4.812
  802SOL    HW2 3191   3.861   3.954   4.708
  803SOL     OW 3192   4.492   4.868   4.747
  803SOL    HW1 3193   4.414   4.885   4.807
  803SOL    HW2 3194   4.526   4.955   4.711
  804SOL     OW 3195   5.413   4.646   4.336
  804SOL    HW1 3196   5.508   4.617   4.344
  804SOL    HW2 3197   5.405   4.711   4.261
  805SOL     OW 3198   5.190   5.141   4.677
  805SOL    HW1 3199   5.131   5.147   4.757
  805SOL    HW2 3200   5.175   5.053   4.631
  806SOL     OW 3201   4.322   4.453   3.994
  806SOL    HW1 3202   4.346   4.522   3.926
  806SOL    HW2 3203   4.244   4.486   4.048
  807SOL     OW 3204   4.531   4.329   5.189
  807SOL    HW1 3205   4.484   4.326   5.278
  807SOL    HW2 3206   4.480   4.274   5.123
  808SOL     OW 3207   4.697   4.614   5.296
  808SOL    HW1 3208   4.743   4.530   5.267
  808SOL    HW2 3209   4.641   4.648   5.221
  809SOL     OW 3210   4.765   4.425   4.153
  809SOL    HW1 3211   4.791   4.421   4.249
  809SOL    HW2 3212   4.680   4.374   4.139
  810SOL     OW 3213   4.612   5.238   4.919
  810SOL    HW1 3214   4.589   5.213   4.825
  810SOL    HW2 3215   4.673   5.169   4.958
  811SOL     OW 3216   4.183   4.876   4.465
  811SOL    HW1 3217   4.112   4.849   4.530
  811SOL    HW2 3218   4.157   4.848   4.372
  812SOL     OW 3219   3.802   4.280   5.110
  812SOL    HW1 3220   3.894   4.279   5.069
  812SOL    HW2 3221   3.796   4.354   5.177
  813SOL     OW 3222   5.114   4.299   3.802
  813SOL    HW1 3223   5.060   4.278   3.883
  813SOL    HW2 3224   5.205   4.258   3.811
  814SOL     OW 3225   4.429   4.774   4.092
  814SOL    HW1 3226   4.415   4.781   4.191
  814SOL    HW2 3227   4.513   4.723   4.074
  815SOL     OW 3228   4.998   4.110   4.986
  815SOL    HW1 3229   5.019   4.184   5.050
  815SOL    HW2 3230   4.909   4.127   4.943
  816SOL     OW 3231   4.792   5.057   4.573
  816SOL    HW1 3232   4.799   4.973   4.518
  816SOL    HW2 3233   4.854   5.126   4.537
  817SOL     OW 3234   4.228   5.292   4.634
  817SOL    HW1 3235   4.294   5.366   4.643
  817SOL    HW2 3236   4.272   5.213   4.592
  818SOL     OW 3237   5.112   5.297   4.201
  818SOL    HW1 3238   5.179   5.309   4.127
  818SOL    HW2 3239   5.072   5.386   4.224
  819SOL     OW 3240   5.004   4.651   4.396
  819SOL    HW1 3241   5.064   4.570   4.398
  819SOL    HW2 3242   5.044   4.720   4.336
  820SOL     OW 3243   4.918   5.336   3.755
  820SOL    HW1 3244   4.924   5.243   3.792
  820SOL    HW2 3245   4.859   5.336   3.675
  821SOL     OW 3246   3.979   5.072   4.014
  821SOL    HW1 3247   3.883   5.073   3.987
  821SOL    HW2 3248   3.991   5.125   4.098
  822SOL     OW 3249   4.907   5.059   3.843
  822SOL    HW1 3250   4.808   5.048   3.845
  822SOL    HW2 3251   4.941   5.074   3.936
  823SOL     OW 3252   4.440   4.289   5.432
  823SOL    HW1 3253   4.459   4.354   5.506
  823SOL    HW2 3254   4.500   4.209   5.441
  824SOL     OW 3255   4.114   5.465   5.284
  824SOL    HW1 3256   4.023   5.506   5.282
  824SOL    HW2 3257   4.107   5.371   5.316
  825SOL     OW 3258   4.949   4.049   4.173
  825SOL    HW1 3259   5.014   3.975   4.162
  825SOL    HW2 3260   4.969   4.099   4.257
  826SOL     OW 3261   5.548   3.916   4.951
  826SOL    HW1 3262   5.544   3.826   4.995
  826SOL    HW2 3263   5.551   3.905   4.852
  827SOL     OW 3264   4.041   4.271   5.004
  827SOL    HW1 3265   4.079   4.212   5.076
  827SOL    HW2 3266   4.081   4.245   4.916
  828SOL     OW 3267   4.342   5.291   5.008
  828SOL    HW1 3268   4.337   5.373   5.065
  828SOL    HW2 3269   4.431   5.288   4.963
  829SOL     OW 3270   5.024   4.177   4.415
  829SOL    HW1 3271   4.965   4.257   4.419
  829SOL    HW2 3272   5.039   4.142   4.508
  830SOL     OW 3273   5.317   3.945   4.606
  830SOL    HW1 3274   5.233   3.944   4.660
  830SOL    HW2 3275   5.319   4.028   4.550
  831NA      NA 3276   0.598   0.729   0.270
  832NA      NA 3277   0.263   0.326   0.720
  833NA      NA 3278   0.672   0.203   1.489
  834NA      NA 3279   0.672   1.391   1.624
  835NA      NA 3280   1.434   1.188   1.903
  836NA      NA 3281   0.527   0.256   2.190
  837NA      NA 3282   0.980   1.573   3.562
  838NA      NA 3283   1.293   1.228   5.147
  839NA      NA 3284   0.614   0.122   3.841
  840NA      NA 3285   0.504   1.568   4.634
  841NA      NA 3286   1.302   0.855   4.033
  842NA      NA 3287   0.598   2.591   0.270
  843NA      NA 3288   1.281   2.207   0.944
  844NA      NA 3289   0.859   2.818   0.861
  845NA      NA 3290   0.008   3.188   2.062
  846NA      NA 3291   0.473   2.362   2.053
  847NA      NA 3292   0.770   3.192   2.163
  848NA      NA 3293   0.027   3.458   3.841
  849NA      NA 3294   0.598   2.591   3.994
  850NA      NA 3295   1.429   3.035   4.591
  851NA      NA 3296   0.019   4.092   0.647
  852NA      NA 3297   0.803   5.126   0.924
  853NA      NA 3298   0.297   3.759   0.171
  854NA      NA 3299   1.664   5.004   0.657
  855NA      NA 3300   1.127   5.065   3.552
  856NA      NA 3301   0.088   5.525   2.789
  857NA      NA 3302   1.388   5.297   2.339
  858NA      NA 3303   0.850   4.522   5.547
  859NA      NA 3304   0.888   5.238   4.919
  860NA      NA 3305   0.922   4.227   4.623
  861NA      NA 3306   0.078   4.280   5.110
  862NA      NA 3307   0.372   5.012   5.214
  863NA      NA 3308   2.468   0.964   0.123
  864NA      NA 3309   3.704   1.767   0.359
  865NA      NA 3310   3.143   0.345   0.944
  866NA      NA 3311   2.169   0.213   1.231
  867NA      NA 3312   3.721   1.518   1.605
  868NA      NA 3313   2.051   0.520   3.584
  869NA      NA 3314   2.125   0.326   4.444
  870NA      NA 3315   2.534   0.203   5.213
  871NA      NA 3316   2.671   1.866   0.502
  872NA      NA 3317   3.320   2.597   0.728
  873NA      NA 3318   2.523   3.652   0.953
  874NA      NA 3319   2.926   3.209   5.064
  875NA      NA 3320   3.286   2.076   4.836
  876NA      NA 3321   2.475   5.089   0.726
  877NA      NA 3322   2.064   4.009   1.498
  878NA      NA 3323   2.797   3.960   0.480
  879NA      NA 3324   2.938   4.407   1.464
  880NA      NA 3325   2.926   5.071   1.340
  881NA      NA 3326   1.975   4.461   3.459
  882NA      NA 3327   1.938   4.535   2.651
  883NA      NA 3328   3.590   4.659   3.716
  884NA      NA 3329   3.000   4.104   3.540
  885NA      NA 3330   2.117   5.072   2.152
  886NA      NA 3331   2.721   4.680   2.723
  887NA      NA 3332   1.984   4.367   4.287
  888NA      NA 3333   3.134   5.169   4.866
  889NA      NA 3334   3.721   5.242   5.329
  890NA      NA 3335   2.864   4.520   4.962
  891NA      NA 3336   3.723   5.293   4.575
  892NA      NA 3337   3.286   3.938   4.836
  893NA      NA 3338   3.921   0.976   1.264
  894NA      NA 3339   4.715   0.410   1.242
  895NA      NA 3340   4.951   1.570   0.793
  896NA      NA 3341   4.949   0.325   0.449
  897NA      NA 3342   5.454   0.934   1.517
  898NA      NA 3343   5.479   0.607   2.093
  899NA      NA 3344   4.646   0.503   2.761
  900NA      NA 3345   4.704   1.116   3.581
  901NA      NA 3346   5.429   1.487   2.966
  902NA      NA 3347   4.059   1.435   4.785
  903NA      NA 3348   3.846   0.643   4.287
  904NA      NA 3349   3.837   0.737   5.321
  905NA      NA 3350   4.792   1.333   4.573
  906NA      NA 3351   5.228   1.607   3.768
  907NA      NA 3352   5.548   0.192   4.951
  908NA      NA 3353   5.271   2.084   1.729
  909NA      NA 3354   4.456   2.496   1.064
  910NA      NA 3355   5.346   2.229   0.374
  911NA      NA 3356   5.398   2.745   1.254
  912NA      NA 3357   4.583   3.236   0.016
  913NA      NA 3358   4.152   2.286   0.520
  914NA      NA 3359   5.362   2.961   2.941
  915NA      NA 3360   4.933   2.387   2.137
  916NA      NA 3361   5.086   3.006   4.269
  917NA      NA 3362   5.075   2.452   5.157
  918NA      NA 3363   4.646   2.365   4.623
  919NA      NA 3364   4.533   3.728   0.502
  920NA      NA 3365   4.732   5.180   0.477
  921NA      NA 3366   3.802   4.280   1.386
  922NA      NA 3367   4.078   5.234   1.329
  923NA      NA 3368   5.071   4.783   1.234
  924NA      NA 3369   5.184   5.229   3.201
  925NA      NA 3370   5.190   4.314   2.854
  926NA      NA 3371   3.854   5.518   3.713
  927NA      NA 3372   4.732   5.180   4.201
  928NA      NA 3373   4.788   5.071   5.064
  929NA      NA 3374   5.306   4.363   4.196
  930NA      NA 3375   4.807   4.708   3.811
  931CL      CL 3376   1.555   1.511   0.703
  932CL      CL 3377   1.594   0.114   1.480
  933CL      CL 3378   1.525   0.999   0.190
  934CL      CL 3379   1.187   1.792   1.616
  935CL      CL 3380   0.573   0.870   1.029
  936CL      CL 3381   1.360   0.862   1.045
  937CL      CL 3382   0.590   1.487   0.491
  938CL      CL 3383   0.973   0.890   3.434
  939CL      CL 3384   0.461   1.266   3.589
  940CL      CL 3385   0.464   1.743   2.185
  941CL      CL 3386   1.032   0.549   1.878
  942CL      CL 3387   1.280   0.927   2.534
  943CL      CL 3388   1.014   0.236   2.833
  944CL      CL 3389   0.076   0.811   4.513
  945CL      CL 3390   1.400   0.107   4.150
  946CL      CL 3391   0.037   1.310   5.006
  947CL      CL 3392   1.023   0.766   4.690
  948CL      CL 3393   1.424   0.214   4.836
  949CL      CL 3394   1.271   3.659   0.591
  950CL      CL 3395   0.561   2.084   1.147
  951CL      CL 3396   1.390   2.437   0.078
  952CL      CL 3397   0.688   3.524   3.578
  953CL      CL 3398   0.410   2.675   4.975
  954CL      CL 3399   0.064   3.426   5.055
  955CL      CL 3400   0.263   2.188   4.444
  956CL      CL 3401   0.075   2.207   3.757
  957CL      CL 3402   0.686   4.885   1.803
  958CL      CL 3403   0.307   3.937   1.231
  959CL      CL 3404   1.674   4.607   1.254
  960CL      CL 3405   0.768   4.868   2.885
  961CL      CL 3406   0.027   5.320   1.979
  962CL      CL 3407   1.525   4.723   2.052
  963CL      CL 3408   1.351   4.314   3.295
  964CL      CL 3409   0.539   3.788   2.374
  965CL      CL 3410   0.402   4.475   3.460
  966CL      CL 3411   1.859   5.242   3.467
  967CL      CL 3412   0.339   4.233   2.868
  968CL      CL 3413   0.221   5.038   3.706
  969CL      CL 3414   1.352   3.776   2.030
  970CL      CL 3415   1.300   4.177   2.553
  971CL      CL 3416   1.594   3.838   5.204
  972CL      CL 3417   0.539   3.788   4.236
  973CL      CL 3418   3.551   0.922   0.612
  974CL      CL 3419   1.975   0.737   1.597
  975CL      CL 3420   2.842   1.116   1.719
  976CL      CL 3421   1.926   1.564   1.331
  977CL      CL 3422   3.056   1.612   0.031
  978CL      CL 3423   1.937   0.345   0.033
  979CL      CL 3424   3.551   0.922   2.474
  980CL      CL 3425   2.669   0.605   3.327
  981CL      CL 3426   3.262   0.107   2.288
  982CL      CL 3427   2.244   0.700   2.342
  983CL      CL 3428   2.476   0.122   1.979
  984CL      CL 3429   2.475   1.365   4.450
  985CL      CL 3430   1.950   1.801   4.651
  986CL      CL 3431   2.778   0.910   4.015
  987CL      CL 3432   3.162   0.453   4.415
  988CL      CL 3433   2.534   3.478   0.154
  989CL      CL 3434   2.125   2.188   0.720
  990CL      CL 3435   1.940   2.418   5.110
  991CL      CL 3436   2.366   3.430   4.634
  992CL      CL 3437   2.534   2.065   5.213
  993CL      CL 3438   3.465   4.171   0.737
  994CL      CL 3439   2.234   5.012   1.490
  995CL      CL 3440   3.045   5.059   0.119
  996CL      CL 3441   3.657   4.790   2.735
  997CL      CL 3442   3.089   5.274   3.368
  998CL      CL 3443   2.092   5.158   4.262
  999CL      CL 3444   2.903   4.425   4.153
 1000CL      CL 3445   2.870   5.180   4.201
 1001CL      CL 3446   2.021   4.861   5.190
 1002CL      CL 3447   4.251   0.256   0.328
 1003CL      CL 3448   4.314   1.487   0.491
 1004CL      CL 3449   4.396   1.391   1.624
 1005CL      CL 3450   4.188   1.743   2.185
 1006CL      CL 3451   3.802   0.556   3.248
 1007CL      CL 3452   4.429   1.050   2.230
 1008CL      CL 3453   3.987   0.326   2.582
 1009CL      CL 3454   4.096   1.288   3.352
 1010CL      CL 3455   5.249   0.999   3.914
 1011CL      CL 3456   3.732   1.326   3.924
 1012CL      CL 3457   4.078   3.372   1.329
 1013CL      CL 3458   4.031   2.075   1.231
 1014CL      CL 3459   4.726   2.658   3.100
 1015CL      CL 3460   4.763   2.960   2.558
 1016CL      CL 3461   4.396   2.065   3.351
 1017CL      CL 3462   4.599   3.508   2.199
 1018CL      CL 3463   3.846   2.505   4.287
 1019CL      CL 3464   3.921   2.838   4.988
 1020CL      CL 3465   4.396   2.065   5.213
 1021CL      CL 3466   4.322   4.453   0.270
 1022CL      CL 3467   4.884   3.931   1.477
 1023CL      CL 3468   5.026   4.579   0.309
 1024CL      CL 3469   3.803   4.964   0.653
 1025CL      CL 3470   5.479   4.331   2.093
 1026CL      CL 3471   4.492   4.868   2.885
 1027CL      CL 3472   4.765   4.425   2.291
 1028CL      CL 3473   4.918   5.336   1.893
 1029CL      CL 3474   3.837   4.461   5.321
 1030CL      CL 3475   4.285   3.946   4.871
   5.50273   5.50273   5.50273
