Generic title in water
 3475
    1PET     C9    1   1.442   2.007   1.425 -0.1979 -0.0616 -0.2669
    1PET     H6    2   1.530   2.048   1.373  0.1119 -0.7875 -0.3336
    1PET     H7    3   1.457   1.899   1.436 -1.9257 -0.1728  1.5329
    1PET     O2    4   1.328   2.016   1.343  0.4200  0.1183 -0.3628
    1PET     C8    5   1.214   2.055   1.411  0.2263  0.2388  0.3546
    1PET     O1    6   1.209   2.054   1.534 -0.1413 -0.2973  0.0252
    1PET     C4    7   1.088   2.076   1.326  0.0704 -0.1236 -0.0809
    1PET     C5    8   0.980   2.148   1.385  0.0504  0.5319  0.6242
    1PET     C6    9   0.875   2.190   1.296  0.0726  0.4625  0.0455
    1PET     H4   10   0.791   2.240   1.345  0.5001 -1.0517  2.4820
    1PET     H3   11   0.965   2.176   1.488 -0.3120  3.0765 -0.0669
    1PET     C3   12   1.081   2.039   1.186 -0.2918 -0.3815 -0.2060
    1PET     H2   13   1.162   1.980   1.144  1.5653 -0.6539  3.3481
    1PET     C2   14   0.982   2.089   1.098  0.6123  0.8453  0.2169
    1PET     H1   15   0.996   2.057   0.995 -1.1532  0.7702 -0.0309
    1PET     C1   16   0.872   2.160   1.159 -0.0474  0.0398  0.2050
    1PET     C7   17   0.767   2.210   1.061  0.1124 -0.2044  0.0042
    1PET     O3   18   0.671   2.280   1.103 -0.4389  0.1162  0.3807
    1PET     O4   19   0.800   2.192   0.929 -0.0603 -0.2806  0.3420
    1PET    C10   20   0.704   2.237   0.835  0.5304 -0.7363  0.2307
    1PET     H8   21   0.604   2.227   0.877  0.2016  1.9554  0.2660
    1PET     H9   22   0.693   2.185   0.739  2.1728  1.4639 -1.2390
    1PET    C11   23   0.731   2.393   0.804  0.5202  0.3009 -0.5449
    1PET    H10   24   0.798   2.403   0.719  2.2444  1.5947  0.8843
    1PET    H11   25   0.788   2.432   0.889  1.0022  0.6893 -1.0387
    1PET    C12   26   0.603   2.475   0.781 -0.2440 -0.5190 -0.2478
    1PET    H13   27   0.549   2.424   0.701 -0.4134 -0.3530 -0.2402
    1PET    H14   28   0.643   2.560   0.725 -1.0284 -0.5582 -0.8779
    2PEO     C1   29   0.520   2.509   0.903 -0.1436 -0.3142 -0.6611
    2PEO     H3   30   0.493   2.415   0.954 -2.4419  0.0467 -1.1209
    2PEO     H4   31   0.429   2.552   0.860  0.8906  2.3567 -0.3519
    2PEO      O   32   0.582   2.606   0.987 -0.0308  0.2172  0.7217
    2PEO     C2   33   0.490   2.663   1.077  0.9067  0.6777 -0.4748
    2PEO     H5   34   0.389   2.676   1.036  0.0498  2.3604  1.9374
    2PEO     H6   35   0.524   2.763   1.109  0.8937  0.1423  1.3303
    2PEO     C3   36   0.477   2.576   1.202 -1.2988  0.1451  0.1000
    2PEO     H7   37   0.581   2.578   1.240 -1.8759 -2.0625  2.0525
    2PEO     H8   38   0.447   2.476   1.169 -1.9317  0.6353 -0.8351
    2PEO     O1   39   0.386   2.632   1.303  0.2229  0.6335 -0.0878
    2PEO     C4   40   0.250   2.648   1.264 -0.5721 -0.0608  0.1546
    2PEO     H9   41   0.245   2.715   1.178  1.5626  0.8739  0.6773
    2PEO    H10   42   0.208   2.697   1.353  1.1425 -1.2197  1.6835
    2PEO     C5   43   0.178   2.517   1.258  0.5282  0.1610  0.3163
    2PEO    H11   44   0.072   2.535   1.279  0.0264 -0.6000 -1.3432
    2PEO    H12   45   0.227   2.448   1.327 -0.2486 -0.3965  0.3273
    2PEO     O2   46   0.183   2.465   1.119 -0.3265  0.0318  0.1710
    2PEO     C6   47   0.140   2.325   1.118 -0.0537  0.2044  0.9923
    2PEO    H13   48   0.034   2.319   1.146 -0.2638  2.3886  0.8366
    2PEO    H14   49   0.194   2.253   1.181 -0.7329 -0.6710  0.6069
    2PEO     C7   50   0.146   2.265   0.976  0.5042 -0.5458 -0.4649
    2PEO    H15   51   0.104   2.349   0.919  3.3250  0.8211 -0.6881
    2PEO    H16   52   0.101   2.166   0.962  0.7578 -0.5555 -1.2672
    2PEO     O3   53   0.278   2.255   0.924  0.2620  0.3585 -0.0356
    2PEO     C8   54   0.292   2.243   0.784  0.1882  0.2585 -0.3483
    2PEO    H17   55   0.383   2.300   0.757 -0.3820  2.8038  2.5418
    2PEO    H18   56   0.211   2.289   0.726  0.8539  0.2287 -1.3479
    2PEO     C9   57   0.290   2.092   0.736  0.2031 -0.1120 -0.1159
    2PEO    H19   58   0.274   2.082   0.628 -0.0887  0.3299 -0.1155
    2PEO    H20   59   0.214   2.041   0.796  0.8098  1.4559  2.1228
    2PEO     O4   60   0.414   2.039   0.758 -0.6083 -0.0080  0.3135
    2PEO    C10   61   0.441   1.981   0.894  0.5463 -0.2634  0.4583
    2PEO    H21   62   0.412   2.045   0.978 -2.7170 -1.9712  0.7929
    2PEO    H22   63   0.545   1.953   0.911  0.5957  1.0347  2.6432
    3PET     C9   64   0.365   1.854   0.915  0.5869  0.5410 -0.1100
    3PET     H6   65   0.264   1.867   0.874  0.5469 -1.9578 -0.9543
    3PET     H7   66   0.359   1.831   1.022  0.1388  0.0887 -0.2276
    3PET     O2   67   0.435   1.749   0.847 -0.3670  0.1510 -0.0407
    3PET     C8   68   0.379   1.628   0.847  0.4555  0.2388  0.0778
    3PET     O1   69   0.265   1.604   0.891 -0.6900  0.0225  0.2546
    3PET     C4   70   0.455   1.516   0.768 -0.8542  0.3686  0.2457
    3PET     C5   71   0.400   1.383   0.760 -0.7182  0.4010 -0.2110
    3PET     C6   72   0.459   1.280   0.691  0.0981  0.4188  0.4612
    3PET     H4   73   0.417   1.180   0.691  2.8796 -0.8597  1.3275
    3PET     H3   74   0.312   1.354   0.817 -0.8597 -1.7037 -1.4061
    3PET     C3   75   0.564   1.549   0.682 -0.4482 -0.3448  0.5556
    3PET     H2   76   0.600   1.652   0.681 -0.7380 -0.2345 -1.2452
    3PET     C2   77   0.635   1.443   0.616  0.4290 -0.1211 -0.4279
    3PET     H1   78   0.723   1.459   0.554 -0.4581  1.7204 -1.2879
    3PET     C1   79   0.582   1.307   0.630 -0.1388  0.1668  0.0605
    3PET     C7   80   0.649   1.190   0.565  0.1165 -0.0978  0.7035
    3PET     O3   81   0.595   1.082   0.543  0.0438 -0.1658  0.4316
    3PET     O4   82   0.771   1.225   0.512  0.1657 -0.4815  0.4612
    3PET    C10   83   0.837   1.130   0.431 -0.7325  0.5380 -0.3861
    3PET     H8   84   0.900   1.174   0.352  0.5025 -1.6815 -0.7105
    3PET     H9   85   0.767   1.068   0.374 -0.9379  0.3822  0.0351
    3PET    C11   86   0.927   1.042   0.521 -0.1844  0.3545 -0.1980
    3PET    H10   87   0.893   1.031   0.624 -0.8041  0.4908 -0.3866
    3PET    H11   88   1.025   1.093   0.518  0.6887 -1.2779 -0.9611
    3PET    C12   89   0.964   0.900   0.465 -0.4156  0.0974  0.2762
    3PET    H13   90   1.008   0.918   0.366 -2.3471  1.2439 -0.4256
    3PET    H14   91   0.871   0.845   0.446 -0.4727 -1.1062  3.4967
    4PET     C9   92   1.061   0.814   0.553  0.1378 -0.7177  0.0613
    4PET     H6   93   1.146   0.869   0.598 -2.4722  1.6252  2.5770
    4PET     H7   94   1.108   0.739   0.488  1.7992 -0.4820  0.9136
    4PET     O2   95   0.988   0.757   0.654 -0.0085 -0.2788 -0.4785
    4PET     C8   96   0.986   0.810   0.779  0.9379 -0.0740 -0.0559
    4PET     O1   97   1.040   0.916   0.806 -0.0283  0.6228 -0.1277
    4PET     C4   98   0.909   0.723   0.881  0.2243  0.0478 -0.2512
    4PET     C5   99   0.908   0.754   1.018  0.1028 -0.7275 -0.6453
    4PET     C6  100   0.857   0.672   1.117  0.2664  0.0849 -0.6273
    4PET     H4  101   0.861   0.701   1.222 -0.0389  1.2515 -0.9160
    4PET     H3  102   0.941   0.851   1.054 -1.3813 -0.2383 -0.5194
    4PET     C3  103   0.853   0.600   0.847  0.1721  0.5637  0.5492
    4PET     H2  104   0.847   0.568   0.743  0.7852 -1.2244  1.0173
    4PET     C2  105   0.801   0.512   0.941  0.1736  0.4677 -0.2181
    4PET     H1  106   0.753   0.418   0.917 -0.8177  1.5887 -3.0198
    4PET     C1  107   0.802   0.547   1.084  0.0674 -0.2739  0.6912
    4PET     C7  108   0.753   0.451   1.189 -0.1453 -0.6569  0.6004
    4PET     O3  109   0.745   0.333   1.169 -0.5451  0.5065  0.2440
    4PET     O4  110   0.705   0.511   1.302  0.0599  0.4439  0.7314
    4PET    C10  111   0.691   0.429   1.415  0.9878 -0.2817  0.6935
    4PET     H8  112   0.791   0.387   1.434  1.2101 -0.0404  0.0854
    4PET     H9  113   0.623   0.344   1.396  1.1049 -0.5879  1.5610
    4PET    C11  114   0.637   0.521   1.525  0.1317  0.2128 -0.0880
    4PET    H10  115   0.531   0.531   1.497  0.9842  0.6424 -3.6329
    4PET    H11  116   0.675   0.623   1.513  1.2761 -0.2005 -0.0799
    4PET    C12  117   0.654   0.475   1.672 -0.3651  0.4210 -0.0578
    4PET    H13  118   0.623   0.372   1.690  1.5279  0.2636  3.0261
    4PET    H14  119   0.596   0.551   1.726 -0.6750  0.9188 -1.0530
    5PET     C9  120   0.798   0.476   1.743  0.0605  0.3328  0.4183
    5PET     H6  121   0.788   0.475   1.853 -0.1484 -0.9070  0.3950
    5PET     H7  122   0.856   0.568   1.725  0.0350  0.0971 -0.9711
    5PET     O2  123   0.870   0.359   1.695 -0.2964  0.3727  0.1388
    5PET     C8  124   1.009   0.361   1.706 -0.3451 -0.0138  0.2459
    5PET     O1  125   1.075   0.459   1.735  0.2134  0.0601 -0.4778
    5PET     C4  126   1.079   0.232   1.669 -0.1160 -0.3062 -0.5103
    5PET     C5  127   0.996   0.128   1.626 -0.1348  0.4145  0.1623
    5PET     C6  128   1.044  -0.008   1.597  0.2802  0.8917 -0.5217
    5PET     H4  129   0.970  -0.080   1.562  0.1241  2.0029 -2.6083
    5PET     H3  130   0.889   0.141   1.620 -0.9017 -1.7842  4.8449
    5PET     C3  131   1.216   0.208   1.691 -0.6470 -0.2788  0.5246
    5PET     H2  132   1.271   0.289   1.739 -1.3671  0.8509 -0.5008
    5PET     C2  133   1.263   0.081   1.654 -0.5934  0.0146 -0.1932
    5PET     H1  134   1.372   0.077   1.651 -0.5082  1.8454 -0.5206
    5PET     C1  135   1.184  -0.030   1.604 -0.9414  0.2109 -0.5772
    5PET     C7  136   1.254  -0.154   1.561  0.1905 -0.0124  0.4129
    5PET     O3  137   1.363  -0.189   1.604 -0.2242  0.1404  0.4119
    5PET     O4  138   1.193  -0.214   1.455 -0.2141 -0.5196  0.0567
    5PET    C10  139   1.241  -0.342   1.399 -0.0157  0.5046 -0.1086
    5PET     H8  140   1.342  -0.331   1.358 -0.6776  1.2126 -1.6659
    5PET     H9  141   1.183  -0.380   1.314 -1.0797  1.4903  0.1476
    5PET    C11  142   1.237  -0.455   1.506  0.2753 -0.3892 -0.2235
    5PET    H10  143   1.270  -0.425   1.607  0.5038 -1.9792  0.1995
    5PET    H11  144   1.300  -0.533   1.462 -0.5634 -1.0669 -0.2568
    5PET    C12  145   1.092  -0.508   1.541 -0.1115  0.3114 -0.1592
    5PET    H13  146   1.053  -0.557   1.451 -1.8791  1.2581  0.0536
    5PET    H14  147   1.022  -0.429   1.569 -1.3393 -1.8822  3.7766
    6PEO     C1  148   1.085  -0.599   1.665 -0.3123 -0.1290  1.0155
    6PEO     H3  149   0.986  -0.646   1.665  0.4117 -1.8086 -1.4803
    6PEO     H4  150   1.094  -0.537   1.756  0.6855 -2.0027  2.2803
    6PEO      O  151   1.187  -0.689   1.657 -0.3574 -0.5417  0.0590
    6PEO     C2  152   1.152  -0.799   1.582 -0.3047  0.1474  0.0125
    6PEO     H5  153   1.168  -0.780   1.475  1.8243 -2.0668 -0.1320
    6PEO     H6  154   1.048  -0.833   1.598 -1.3351  3.1806  0.3276
    6PEO     C3  155   1.234  -0.916   1.635 -0.5291 -0.1123  0.1033
    6PEO     H7  156   1.207  -1.008   1.583 -0.3700 -0.2557  0.2748
    6PEO     H8  157   1.200  -0.935   1.737 -0.4709  0.9246  0.3327
    6PEO     O1  158   1.380  -0.881   1.629  0.0319  0.6501 -0.3731
    6PEO     C4  159   1.439  -0.875   1.496 -0.0492 -0.1478 -0.3046
    6PEO     H9  160   1.547  -0.858   1.508  0.3970 -0.5095 -3.1456
    6PEO    H10  161   1.404  -0.790   1.436  2.1765  0.4505 -0.8262
    6PEO     C5  162   1.417  -1.009   1.417  0.0559 -0.0219  0.6843
    6PEO    H11  163   1.427  -1.096   1.484  0.7499 -1.1478 -0.8265
    6PEO    H12  164   1.496  -1.008   1.340 -0.5049 -0.4868  0.0932
    6PEO     O2  165   1.286  -1.019   1.345 -0.1187 -0.0890  0.2318
    6PEO     C6  166   1.264  -0.927   1.233 -0.3899  0.1517  1.0057
    6PEO    H13  167   1.330  -0.970   1.157  0.7692 -1.6985  2.9483
    6PEO    H14  168   1.288  -0.821   1.248 -0.6291  0.4763 -0.7173
    6PEO     C7  169   1.121  -0.938   1.186  0.6425 -0.3356  0.6187
    6PEO    H15  170   1.075  -1.033   1.217  1.7283 -0.6919  1.2084
    6PEO    H16  171   1.118  -0.947   1.077  0.5000 -1.4916  0.7005
    6PEO     O3  172   1.050  -0.825   1.242 -0.1636 -0.2360 -0.2971
    6PEO     C8  173   0.925  -0.795   1.189  0.5005 -0.2634 -0.1825
    6PEO    H17  174   0.859  -0.883   1.189 -0.5714  0.5081 -0.7191
    6PEO    H18  175   0.935  -0.763   1.084  3.0173  0.3766  0.1956
    6PEO     C9  176   0.861  -0.684   1.273  0.2231 -0.1206  0.4151
    6PEO    H19  177   0.873  -0.701   1.381 -2.3483  0.5955  0.8812
    6PEO    H20  178   0.752  -0.692   1.258  0.1922  0.6600  0.2136
    6PEO     O4  179   0.910  -0.551   1.239  0.1218  0.5313  0.5902
    6PEO    C10  180   0.862  -0.500   1.112  0.1680  0.1433  0.0213
    6PEO    H21  181   0.767  -0.545   1.079 -0.2350  1.1661 -0.2552
    6PEO    H22  182   0.935  -0.498   1.030 -0.3905  1.4586 -0.4875
    7PET     C9  183   0.804  -0.359   1.139  0.1927  0.3100 -0.4154
    7PET     H6  184   0.752  -0.366   1.236  2.2235 -0.4986  0.6676
    7PET     H7  185   0.738  -0.328   1.057  2.0508  1.1922 -1.6630
    7PET     O2  186   0.906  -0.266   1.175  0.0390 -0.5259  0.3825
    7PET     C8  187   0.983  -0.220   1.075 -0.2060  0.7139 -0.0346
    7PET     O1  188   0.961  -0.254   0.961 -0.3480 -0.5301 -0.5905
    7PET     C4  189   1.090  -0.120   1.114 -0.3352  0.2803 -0.4898
    7PET     C5  190   1.082  -0.044   1.237  0.1406  0.0396  0.2113
    7PET     C6  191   1.184   0.050   1.269 -0.4619 -0.1478 -0.0384
    7PET     H4  192   1.193   0.108   1.361  2.8698 -0.3738 -0.0704
    7PET     H3  193   1.004  -0.058   1.310 -1.3750  3.5474 -0.5610
    7PET     C3  194   1.195  -0.086   1.023  0.3208  0.3239  0.2950
    7PET     H2  195   1.190  -0.136   0.926  0.7546 -0.2443  0.5573
    7PET     C2  196   1.292   0.007   1.057  0.4926 -0.2480 -0.0815
    7PET     H1  197   1.363   0.040   0.981  1.8125  0.1178  1.2777
    7PET     C1  198   1.284   0.078   1.174  0.4508  0.2786 -0.3563
    7PET     C7  199   1.393   0.183   1.191  0.0247  0.4317 -0.1368
    7PET     O3  200   1.459   0.221   1.100 -0.0666 -0.2965 -0.2053
    7PET     O4  201   1.404   0.230   1.317  0.0678 -0.0638  0.6774
    7PET    C10  202   1.499   0.337   1.334  0.7246 -0.5494 -0.1351
    7PET     H8  203   1.469   0.420   1.269 -0.0234 -0.8508 -0.1819
    7PET     H9  204   1.602   0.302   1.321  0.5956 -0.5394 -1.3955
    7PET    C11  205   1.481   0.393   1.477 -0.4062  0.3448  0.6645
    7PET    H10  206   1.575   0.428   1.521  1.2565 -1.5680 -1.1693
    7PET    H11  207   1.454   0.309   1.541 -0.0048 -1.6538 -1.6521
    7PET    C12  208   1.377   0.508   1.494 -0.4717 -0.5869 -1.3286
    7PET    H13  209   1.412   0.591   1.431  1.9873 -1.2373 -0.8914
    7PET    H14  210   1.378   0.536   1.600 -1.7482 -1.8092 -0.9480
    8PET     C9  211   1.236   0.465   1.455  0.8745  0.4282 -0.9082
    8PET     H6  212   1.169   0.534   1.508  1.1009 -0.4514  0.5842
    8PET     H7  213   1.230   0.362   1.491  0.3651  1.0735  1.0182
    8PET     O2  214   1.228   0.474   1.306 -0.0465  0.2658 -0.6521
    8PET     C8  215   1.133   0.399   1.248  0.2674  0.0453  0.0155
    8PET     O1  216   1.050   0.332   1.307 -0.8567 -0.0325  0.2782
    8PET     C4  217   1.137   0.411   1.099 -0.5607 -0.6149  0.1308
    8PET     C5  218   1.212   0.515   1.039  0.9232  0.0758 -0.1332
    8PET     C6  219   1.225   0.526   0.894  0.2094  0.8924 -0.1732
    8PET     H4  220   1.285   0.608   0.853  0.9631  0.0075 -0.8834
    8PET     H3  221   1.263   0.594   1.093  0.9874  0.3525 -0.5924
    8PET     C3  222   1.071   0.321   1.017  0.1480 -0.1601 -0.8350
    8PET     H2  223   1.009   0.244   1.061  0.4147 -0.2579 -0.6273
    8PET     C2  224   1.084   0.331   0.867 -0.0841  0.6242  0.2109
    8PET     H1  225   1.030   0.261   0.804  0.0968  0.1694  0.5502
    8PET     C1  226   1.157   0.436   0.805 -0.3545 -1.1490 -0.2095
    8PET     C7  227   1.154   0.458   0.658 -0.3474 -0.3540  0.2131
    8PET     O3  228   1.254   0.509   0.601 -0.1106 -0.0448  0.2189
    8PET     O4  229   1.042   0.402   0.597  0.1122  0.2146 -0.0223
    8PET    C10  230   1.020   0.442   0.459  0.5011  0.4250  0.9381
    8PET     H8  231   1.060   0.363   0.395 -0.2423 -0.0211  1.0060
    8PET     H9  232   1.076   0.531   0.429  1.9513 -0.8745 -0.3685
    8PET    C11  233   0.873   0.481   0.428  0.4762  0.3150  0.4467
    8PET    H10  234   0.840   0.547   0.509  1.4679  2.1603 -0.6051
    8PET    H11  235   0.811   0.391   0.416 -0.1034  0.9528 -1.9154
    8PET    C12  236   0.846   0.562   0.296 -0.2576 -0.2067 -0.3843
    8PET    H13  237   0.877   0.505   0.207  1.7590 -1.6929  1.1720
    8PET    H14  238   0.912   0.649   0.290 -1.3915  0.7004  0.0080
    9PET     C9  239   0.701   0.609   0.286 -1.0198 -0.2349 -0.0493
    9PET     H6  240   0.646   0.517   0.260  0.0428 -0.9464  0.1538
    9PET     H7  241   0.693   0.687   0.209  0.1190  1.2460  1.2691
    9PET     O2  242   0.651   0.667   0.409 -0.1543 -0.2802 -0.1296
    9PET     C8  243   0.578   0.595   0.507 -0.3843  0.5585  0.6008
    9PET     O1  244   0.542   0.480   0.479 -0.0865  0.2623  0.3899
    9PET     C4  245   0.577   0.650   0.643  0.1550 -0.3008 -0.4231
    9PET     C5  246   0.520   0.568   0.746 -1.0309 -0.0723  0.4416
    9PET     C6  247   0.516   0.610   0.878  0.2709 -0.0944  0.3878
    9PET     H4  248   0.468   0.547   0.953 -1.3564 -0.6577 -1.0465
    9PET     H3  249   0.494   0.465   0.724 -0.5752 -0.8739  3.2868
    9PET     C3  250   0.606   0.785   0.681 -0.3479  0.2433  0.7390
    9PET     H2  251   0.618   0.863   0.606 -3.5976  1.5023  1.3383
    9PET     C2  252   0.586   0.827   0.815 -0.4905 -0.3187 -0.7481
    9PET     H1  253   0.621   0.924   0.848  3.0993 -0.5284 -3.2604
    9PET     C1  254   0.544   0.738   0.914 -0.3517 -0.5510 -0.3582
    9PET     C7  255   0.537   0.784   1.059 -0.2346 -0.1724  0.0340
    9PET     O3  256   0.487   0.708   1.141 -0.2912 -0.5362  0.1262
    9PET     O4  257   0.588   0.909   1.088 -0.8169  0.4347  0.0843
    9PET    C10  258   0.564   0.965   1.217 -0.7270 -0.6300 -0.2468
    9PET     H8  259   0.455   0.964   1.232 -0.5988 -1.8642  0.6980
    9PET     H9  260   0.600   1.068   1.220 -0.3005 -0.6872 -1.9192
    9PET    C11  261   0.632   0.882   1.337 -0.1771 -0.9283  0.3755
    9PET    H10  262   0.739   0.880   1.314 -0.1306  1.6617  0.1369
    9PET    H11  263   0.598   0.778   1.351 -0.7806 -0.7679  0.1347
    9PET    C12  264   0.604   0.942   1.473 -0.0929  0.0377 -0.3981
    9PET    H13  265   0.630   1.048   1.477  0.5167 -0.1258  0.3517
    9PET    H14  266   0.673   0.894   1.543  0.1192 -0.1247 -0.7176
   10PET     C9  267   0.463   0.914   1.516  0.3947 -0.2428  0.2908
   10PET     H6  268   0.466   0.828   1.584  2.4550 -0.1312  0.3990
   10PET     H7  269   0.411   0.884   1.425  0.7678 -2.0148  0.6239
   10PET     O2  270   0.409   1.024   1.586 -0.5468  0.0757  0.3366
   10PET     C8  271   0.352   1.126   1.516 -0.3486 -0.0348  0.4091
   10PET     O1  272   0.356   1.137   1.392  0.6757  0.0508 -0.4209
   10PET     C4  273   0.277   1.224   1.610 -0.0572  0.2598  0.0650
   10PET     C5  274   0.213   1.182   1.730 -0.0524 -0.0025 -0.1997
   10PET     C6  275   0.136   1.270   1.798 -0.1861 -0.2071  0.2750
   10PET     H4  276   0.083   1.242   1.889  2.0595  0.4221  1.8770
   10PET     H3  277   0.223   1.080   1.766  1.7307  0.7005  1.4858
   10PET     C3  278   0.271   1.359   1.571  0.3814 -0.1650  0.6755
   10PET     H2  279   0.312   1.393   1.477 -0.2683 -1.7933 -0.2314
   10PET     C2  280   0.186   1.445   1.644  0.2792  0.4233  0.3235
   10PET     H1  281   0.161   1.543   1.606 -1.2335 -0.9167 -2.4243
   10PET     C1  282   0.110   1.398   1.755  1.0306  0.3000  0.2904
   10PET     C7  283   0.003   1.490   1.815 -0.0226  0.6701 -0.2376
   10PET     O3  284  -0.022   1.607   1.784  0.2410 -0.2127  0.1592
   10PET     O4  285  -0.077   1.425   1.903 -0.2775  0.6043  0.5975
   10PET    C10  286  -0.173   1.498   1.976  0.4087 -0.2994  0.0386
   10PET     H8  287  -0.249   1.431   2.017  0.5581 -0.2575  0.3905
   10PET     H9  288  -0.238   1.561   1.914  0.5511 -1.9328 -1.8625
   10PET    C11  289  -0.092   1.587   2.085 -0.2257  0.5904  0.2053
   10PET    H10  290  -0.144   1.681   2.105 -3.0348 -0.3890 -1.8228
   10PET    H11  291   0.008   1.610   2.047  0.5180 -0.5367  1.4150
   10PET    C12  292  -0.076   1.512   2.218 -0.1487 -0.5579  0.2637
   10PET    H13  293   0.001   1.560   2.279 -0.3023 -1.4700  1.2047
   10PET    H14  294  -0.034   1.412   2.198  1.0783 -0.2308  1.1229
   11PET     C9  295  -0.209   1.502   2.304 -0.8415  0.0625 -0.2892
   11PET     H6  296  -0.264   1.415   2.266  2.3102 -2.5650  0.6453
   11PET     H7  297  -0.266   1.595   2.293 -0.8471 -0.0287 -1.0781
   11PET     O2  298  -0.168   1.498   2.444  0.3988  0.3553  0.4049
   11PET     C8  299  -0.137   1.375   2.497 -1.0240  0.0813  0.7400
   11PET     O1  300  -0.139   1.277   2.425 -0.2497 -0.8141  0.0478
   11PET     C4  301  -0.090   1.371   2.635  0.1622  0.6320 -0.0846
   11PET     C5  302  -0.031   1.480   2.702  0.0785 -0.0296  0.3243
   11PET     C6  303   0.001   1.465   2.836  0.1637  0.8099 -0.1644
   11PET     H4  304   0.052   1.541   2.894 -0.6547 -0.1425  1.9063
   11PET     H3  305  -0.025   1.577   2.653  0.1542  0.3715  1.1228
   11PET     C3  306  -0.123   1.253   2.706 -0.1748  0.0153  0.0234
   11PET     H2  307  -0.178   1.170   2.663  2.0137 -0.4023 -2.1911
   11PET     C2  308  -0.090   1.240   2.844  0.1984 -0.6155 -1.1576
   11PET     H1  309  -0.118   1.149   2.897 -1.8918 -0.7688 -2.3884
   11PET     C1  310  -0.019   1.346   2.907 -0.3286 -0.4341  0.1945
   11PET     C7  311   0.029   1.339   3.052 -0.6393  0.2333  0.8170
   11PET     O3  312   0.005   1.428   3.131  0.0378 -0.7025  0.0691
   11PET     O4  313   0.095   1.223   3.081 -0.2267  0.0027  0.4506
   11PET    C10  314   0.155   1.219   3.206 -0.0134 -0.2045  0.1576
   11PET     H8  315   0.184   1.117   3.234  0.4934  0.1470  0.9678
   11PET     H9  316   0.080   1.248   3.281  0.2934  0.7034  0.1262
   11PET    C11  317   0.288   1.298   3.191  0.4631 -0.2664  0.2676
   11PET    H10  318   0.339   1.300   3.288 -0.3841 -0.8873  0.7304
   11PET    H11  319   0.258   1.394   3.148 -0.2616 -0.4179  0.4320
   11PET    C12  320   0.386   1.236   3.095  0.4894 -0.0723  0.4368
   11PET    H13  321   0.343   1.225   2.994 -1.7144  1.1249  1.1817
   11PET    H14  322   0.416   1.138   3.133  0.2823 -0.6270 -0.7875
   12PET     C9  323   0.505   1.328   3.083  0.3472  0.2025 -0.4266
   12PET     H6  324   0.547   1.338   3.184  1.6347 -0.0660 -0.9197
   12PET     H7  325   0.475   1.430   3.054  1.4669  0.8133  0.4672
   12PET     O2  326   0.603   1.270   2.996  0.3307  0.6109  0.1017
   12PET     C8  327   0.590   1.298   2.861  0.2103 -0.2096 -0.0337
   12PET     O1  328   0.502   1.369   2.815  0.3740  0.1353  0.8346
   12PET     C4  329   0.706   1.231   2.786  0.6662  0.2965  0.0318
   12PET     C5  330   0.803   1.155   2.851 -0.4801  0.5249  0.5305
   12PET     C6  331   0.919   1.120   2.781  0.2578  0.3199  0.4691
   12PET     H4  332   1.000   1.078   2.839  0.5598  1.8039  1.1589
   12PET     H3  333   0.810   1.135   2.958 -0.6753 -1.8645  0.1623
   12PET     C3  334   0.722   1.254   2.645  0.3015  0.9050  0.1198
   12PET     H2  335   0.646   1.310   2.590  0.3976  0.2412 -0.6981
   12PET     C2  336   0.834   1.220   2.575  0.0788  0.5452 -0.9865
   12PET     H1  337   0.847   1.256   2.473  1.7999  3.2695  0.0816
   12PET     C1  338   0.930   1.142   2.642 -0.0957 -0.4701  0.2898
   12PET     C7  339   1.061   1.104   2.576  0.0119 -0.2485  0.3173
   12PET     O3  340   1.111   0.995   2.598 -0.7715 -0.0081 -0.3563
   12PET     O4  341   1.106   1.200   2.480  0.6495 -0.3649 -0.0744
   12PET    C10  342   1.235   1.177   2.411  0.0924 -0.2489  0.2696
   12PET     H8  343   1.227   1.078   2.364  2.3677 -0.5152  0.3205
   12PET     H9  344   1.316   1.174   2.485 -0.5019  2.2676  1.1006
   12PET    C11  345   1.255   1.282   2.305 -0.0026 -0.5927 -0.1102
   12PET    H10  346   1.356   1.271   2.265 -0.3146 -0.7467 -0.8720
   12PET    H11  347   1.247   1.378   2.357 -1.6536 -0.3021 -0.8294
   12PET    C12  348   1.150   1.283   2.189 -0.2338 -1.1973  0.1982
   12PET    H13  349   1.048   1.298   2.226  0.3400 -0.1765  1.4268
   12PET    H14  350   1.148   1.190   2.131  0.3549 -1.0979  0.0077
   13PET     C9  351   1.185   1.394   2.088 -0.2308 -0.4888  0.2873
   13PET     H6  352   1.145   1.378   1.987 -1.9894  2.2059  0.4367
   13PET     H7  353   1.293   1.398   2.074 -0.0868  1.9098  1.4860
   13PET     O2  354   1.153   1.513   2.151 -0.7049 -0.1442 -0.1409
   13PET     C8  355   1.178   1.628   2.074  0.2851 -0.0386  0.8311
   13PET     O1  356   1.190   1.628   1.951 -0.2776 -1.1415 -0.1754
   13PET     C4  357   1.172   1.748   2.159 -0.5537 -0.8166  0.0194
   13PET     C5  358   1.195   1.874   2.103 -0.2801 -0.1405  0.4024
   13PET     C6  359   1.191   1.994   2.184 -0.5650 -0.4290  0.3437
   13PET     H4  360   1.203   2.090   2.134  0.2385 -0.1324  1.0601
   13PET     H3  361   1.195   1.880   1.994  1.8388  3.0621  0.4666
   13PET     C3  362   1.161   1.744   2.299 -0.0673  0.7327  0.3730
   13PET     H2  363   1.167   1.646   2.345 -2.2446  0.5032  0.2733
   13PET     C2  364   1.171   1.860   2.379  0.6712  0.2718  0.4491
   13PET     H1  365   1.179   1.852   2.487  0.2426 -0.5246  0.4344
   13PET     C1  366   1.178   1.986   2.324 -0.0667  0.6786 -0.5899
   13PET     C7  367   1.185   2.109   2.413  0.2079 -0.3989 -0.4077
   13PET     O3  368   1.186   2.100   2.535  0.2340 -0.4728 -0.5754
   13PET     O4  369   1.205   2.224   2.345  0.0719 -0.6659  0.6998
   13PET    C10  370   1.230   2.343   2.424  0.5928 -0.7825 -0.4346
   13PET     H8  371   1.274   2.426   2.366 -0.8361  1.0833  1.0363
   13PET     H9  372   1.283   2.314   2.516 -0.8572 -1.7012  0.1456
   13PET    C11  373   1.089   2.400   2.473 -0.8274 -0.2500  0.1081
   13PET    H10  374   1.097   2.479   2.549 -0.5354 -1.2742  1.1686
   13PET    H11  375   1.037   2.321   2.528  1.9267 -1.1371  1.6485
   13PET    C12  376   0.996   2.480   2.373  0.3805  0.2669 -0.2124
   13PET    H13  377   1.039   2.572   2.331 -0.6659  0.3866 -1.0643
   13PET    H14  378   0.917   2.520   2.438  1.6535  0.3567  1.3507
   14PET     C9  379   0.941   2.396   2.261  0.0974  0.2320  0.6848
   14PET     H6  380   1.027   2.376   2.196  0.5435 -0.2162  1.3978
   14PET     H7  381   0.865   2.457   2.210  1.3233  0.6300 -0.7199
   14PET     O2  382   0.884   2.282   2.322 -0.8563  0.2453 -0.4038
   14PET     C8  383   0.869   2.171   2.242  0.6986 -0.3328 -0.7311
   14PET     O1  384   0.866   2.176   2.122 -0.0933  0.0914 -0.1934
   14PET     C4  385   0.855   2.044   2.325 -0.7039  0.7334  0.0798
   14PET     C5  386   0.828   2.049   2.464  0.0739 -0.0171  0.2013
   14PET     C6  387   0.793   1.926   2.533 -0.4516 -0.6334  0.0878
   14PET     H4  388   0.789   1.936   2.641  0.8072  0.4710  0.0576
   14PET     H3  389   0.819   2.143   2.517  0.0962  1.6176 -2.5032
   14PET     C3  390   0.847   1.917   2.262  0.5235 -0.5314 -0.6280
   14PET     H2  391   0.869   1.917   2.156 -0.8421 -2.0430 -0.9427
   14PET     C2  392   0.809   1.801   2.336 -0.1133 -0.1625  0.3194
   14PET     H1  393   0.816   1.705   2.286 -0.4428  0.3166 -0.6761
   14PET     C1  394   0.784   1.806   2.474  0.1479  0.1591  0.3230
   14PET     C7  395   0.779   1.680   2.559  0.3857 -0.1911  0.0044
   14PET     O3  396   0.764   1.573   2.504  0.5100 -0.2845 -0.5193
   14PET     O4  397   0.772   1.699   2.692  0.0589  0.2160  0.0533
   14PET    C10  398   0.753   1.592   2.780 -0.3818 -0.4987  0.6375
   14PET     H8  399   0.852   1.544   2.785  0.9156  1.7492 -1.3576
   14PET     H9  400   0.679   1.525   2.734 -1.2512  1.6726 -1.3321
   14PET    C11  401   0.711   1.641   2.917  0.3535 -1.0507  0.2994
   14PET    H10  402   0.750   1.575   2.996 -0.7248  1.5072  3.1710
   14PET    H11  403   0.602   1.630   2.924  0.3971 -0.4776  2.8257
   14PET    C12  404   0.747   1.789   2.959  0.3116  0.6266  0.1107
   14PET    H13  405   0.847   1.814   2.923  0.5984 -0.4425  0.1396
   14PET    H14  406   0.753   1.788   3.069 -3.3633 -1.8197  0.4851
   15PET     C9  407   0.641   1.890   2.925  0.1642  0.6069 -0.1683
   15PET     H6  408   0.619   1.901   2.818  1.2862  2.1109 -0.2760
   15PET     H7  409   0.673   1.989   2.958  1.5651  0.9262 -2.2700
   15PET     O2  410   0.529   1.850   3.002 -0.2676 -0.4047 -0.3024
   15PET     C8  411   0.418   1.927   3.012 -0.0483  0.3347 -0.6930
   15PET     O1  412   0.406   2.035   2.962 -0.0500 -0.2902 -0.1356
   15PET     C4  413   0.312   1.875   3.111  0.0419 -0.5796  0.4493
   15PET     C5  414   0.323   1.747   3.164  0.2231 -0.3330  0.4523
   15PET     C6  415   0.228   1.700   3.256  1.0974  0.0150  0.4236
   15PET     H4  416   0.239   1.598   3.292  1.3533 -1.0194 -2.3926
   15PET     H3  417   0.393   1.679   3.117 -0.0923  0.2641 -0.9522
   15PET     C3  418   0.206   1.959   3.150 -1.1934  0.5821  0.4803
   15PET     H2  419   0.204   2.060   3.111  0.2638  0.4159 -0.0877
   15PET     C2  420   0.106   1.916   3.240 -0.6572 -1.0680  0.5336
   15PET     H1  421   0.021   1.979   3.267 -0.2608 -1.1240  2.0295
   15PET     C1  422   0.125   1.789   3.305  0.1211 -0.3354  0.0062
   15PET     C7  423   0.025   1.738   3.400  0.1941 -0.6054  0.2136
   15PET     O3  424   0.043   1.638   3.466 -0.0775 -0.4889  0.4576
   15PET     O4  425  -0.081   1.827   3.425  0.5265  0.0054  0.5082
   15PET    C10  426  -0.182   1.800   3.518  0.8456  0.3852 -0.4231
   15PET     H8  427  -0.218   1.696   3.513  0.2815  0.6217 -1.7644
   15PET     H9  428  -0.273   1.857   3.497  0.1976  0.2201  1.6611
   15PET    C11  429  -0.132   1.864   3.655 -0.4968 -0.3670 -0.2372
   15PET    H10  430  -0.024   1.848   3.664 -0.8714 -2.5684  0.9109
   15PET    H11  431  -0.182   1.815   3.739  0.4788 -2.8003 -0.9737
   15PET    C12  432  -0.146   2.025   3.669 -0.4690 -0.1886 -0.3491
   15PET    H13  433  -0.097   2.050   3.764 -1.6971  0.0438  0.2299
   15PET    H14  434  -0.249   2.047   3.697 -0.0926 -0.4668  1.3945
   16PET     C9  435  -0.104   2.120   3.557  0.2672 -0.4587 -0.0394
   16PET     H6  436  -0.003   2.092   3.525  1.1365  2.5876 -0.2587
   16PET     H7  437  -0.098   2.226   3.585  0.9045 -0.3066 -0.7299
   16PET     O2  438  -0.207   2.100   3.458 -0.6942 -0.1731  0.1631
   16PET     C8  439  -0.170   2.147   3.333  0.3897 -0.2598 -0.2900
   16PET     O1  440  -0.074   2.218   3.313 -0.0169 -0.1001  0.1173
   16PET     C4  441  -0.261   2.097   3.225 -0.1104 -0.0788 -0.3775
   16PET     C5  442  -0.374   2.019   3.249 -0.6128 -0.0566 -0.1374
   16PET     C6  443  -0.452   1.968   3.146 -0.0834 -0.1901  0.1014
   16PET     H4  444  -0.531   1.898   3.172 -1.6513  1.7119  0.6937
   16PET     H3  445  -0.392   1.983   3.350  0.4947  0.8995  0.4277
   16PET     C3  446  -0.249   2.149   3.091  0.5387  0.1914  0.0481
   16PET     H2  447  -0.175   2.226   3.076  0.4546 -0.2655 -3.5885
   16PET     C2  448  -0.341   2.118   2.992 -0.4288  0.6450 -0.4437
   16PET     H1  449  -0.316   2.158   2.894 -0.8031  0.3744 -0.6539
   16PET     C1  450  -0.440   2.018   3.014 -0.6189  0.0293 -0.6643
   16PET     C7  451  -0.506   1.950   2.903  0.2251  0.1554 -0.0288
   16PET     O3  452  -0.492   1.992   2.791  0.1962 -0.6614 -0.1669
   16PET     O4  453  -0.579   1.839   2.934 -0.6925  0.5025  0.6653
   16PET    C10  454  -0.636   1.779   2.818  0.6660 -0.4483 -0.2093
   16PET     H8  455  -0.552   1.736   2.763  1.6406  0.5021  0.5003
   16PET     H9  456  -0.687   1.852   2.753 -0.5065  0.3851  1.5582
   16PET    C11  457  -0.735   1.670   2.863  0.3933 -0.1580  0.1922
   16PET    H10  458  -0.797   1.707   2.945 -0.0720  0.6488 -0.5167
   16PET    H11  459  -0.668   1.596   2.910 -1.4820 -1.9647  0.1894
   16PET    C12  460  -0.808   1.605   2.740 -0.1632  0.9127 -0.9308
   16PET    H13  461  -0.843   1.505   2.770 -0.9265  2.0183  2.2934
   16PET    H14  462  -0.739   1.589   2.656 -0.6955  1.7204 -1.5255
   17PET     C9  463  -0.922   1.691   2.689 -0.2220 -0.1538 -0.2979
   17PET     H6  464  -0.883   1.791   2.669 -0.3306 -0.5192 -2.6211
   17PET     H7  465  -1.003   1.697   2.763  0.0794  0.9384 -0.0493
   17PET     O2  466  -0.967   1.627   2.569  0.7579  0.6584 -0.1977
   17PET     C8  467  -1.048   1.702   2.491  0.0781 -1.0035 -0.2778
   17PET     O1  468  -1.092   1.811   2.528  0.1135 -0.1500 -0.5833
   17PET     C4  469  -1.085   1.639   2.362  0.3903  0.4199  0.1442
   17PET     C5  470  -1.007   1.525   2.311  0.2271 -0.1494  0.2386
   17PET     C6  471  -1.039   1.469   2.183 -0.4694 -0.5677 -1.0852
   17PET     H4  472  -0.991   1.377   2.151 -2.2902 -1.4003 -1.5302
   17PET     H3  473  -0.934   1.481   2.377  0.3653  0.5827  0.5895
   17PET     C3  474  -1.174   1.702   2.276 -0.8560  0.1190  0.0655
   17PET     H2  475  -1.217   1.799   2.300 -0.4356  1.3722 -3.6057
   17PET     C2  476  -1.211   1.643   2.160 -0.5517  0.1413  0.1405
   17PET     H1  477  -1.293   1.687   2.105 -0.1210  1.5285  0.5716
   17PET     C1  478  -1.138   1.530   2.110  0.9587 -0.7068  0.7747
   17PET     C7  479  -1.173   1.478   1.977  0.2552 -0.1523 -0.6196
   17PET     O3  480  -1.221   1.548   1.893  0.0547  0.4965 -0.1241
   17PET     O4  481  -1.128   1.354   1.954  0.6292  0.2215 -0.3766
   17PET    C10  482  -1.137   1.295   1.823  0.1587  0.1719  0.4299
   17PET     H8  483  -1.240   1.298   1.785 -0.9266 -0.3238  3.1269
   17PET     H9  484  -1.117   1.187   1.819 -0.5439  0.0257  0.6440
   17PET    C11  485  -1.031   1.360   1.735  0.4467 -1.0975 -0.3843
   17PET    H10  486  -1.061   1.458   1.696  0.1380 -1.5348 -1.2465
   17PET    H11  487  -1.015   1.303   1.644 -1.0028  0.4899 -1.7198
   17PET    C12  488  -0.888   1.344   1.799 -0.4336  0.4092  1.0630
   17PET    H13  489  -0.859   1.239   1.784 -1.2921  0.3038  0.0355
   17PET    H14  490  -0.897   1.367   1.906 -0.3305  3.8431  0.4305
   18PET     C9  491  -0.779   1.419   1.727 -0.2383 -0.1034 -0.0322
   18PET     H6  492  -0.762   1.361   1.636  1.6493  0.4403 -0.0597
   18PET     H7  493  -0.692   1.414   1.793 -0.4710 -0.4757  0.2517
   18PET     O2  494  -0.822   1.556   1.708  0.2866  0.2248  0.0673
   18PET     C8  495  -0.737   1.628   1.626  0.5031  0.2901  0.6584
   18PET     O1  496  -0.629   1.582   1.585  0.0868  0.1974  0.2552
   18PET     C4  497  -0.780   1.778   1.615  0.0749  0.3422 -0.2909
   18PET     C5  498  -0.689   1.879   1.573 -0.0753  1.2370  0.0030
   18PET     C6  499  -0.731   2.013   1.573  0.6537 -0.1552  0.0530
   18PET     H4  500  -0.658   2.090   1.549  2.3328 -0.8262  2.5736
   18PET     H3  501  -0.585   1.857   1.553  0.0868  1.1297  0.9245
   18PET     C3  502  -0.912   1.813   1.643 -0.0771 -0.4616 -1.0619
   18PET     H2  503  -0.986   1.736   1.663 -0.7453  0.5569  0.5756
   18PET     C2  504  -0.953   1.946   1.634  0.1677  0.0038  0.6001
   18PET     H1  505  -1.056   1.961   1.667 -0.5341 -1.4182 -0.7705
   18PET     C1  506  -0.867   2.050   1.594  0.4558 -0.5847 -0.9773
   18PET     C7  507  -0.922   2.193   1.580 -0.3912  0.4514  0.3314
   18PET     O3  508  -1.041   2.220   1.573  0.3164  0.0006  0.1616
   18PET     O4  509  -0.822   2.286   1.578  0.2016 -0.6368  0.1153
   18PET    C10  510  -0.857   2.417   1.626 -0.0983 -0.0775  0.0255
   18PET     H8  511  -0.957   2.445   1.591 -1.2302 -0.1526  2.8848
   18PET     H9  512  -0.786   2.490   1.587 -2.0180  1.5692 -0.5936
   18PET    C11  513  -0.845   2.414   1.779 -0.5727 -0.0159  0.1413
   18PET    H10  514  -0.809   2.511   1.814  1.4226 -0.4601 -0.5546
   18PET    H11  515  -0.767   2.341   1.804 -1.6308 -1.6674 -1.1674
   18PET    C12  516  -0.973   2.366   1.846 -0.2060 -0.1908  0.8011
   18PET    H13  517  -1.025   2.284   1.797  0.3974 -0.2427  0.2308
   18PET    H14  518  -1.044   2.449   1.839 -0.8969 -0.9141 -2.2877
   19PET     C9  519  -0.939   2.320   1.987  0.0633  0.1875  0.0332
   19PET     H6  520  -1.040   2.303   2.027  0.1741 -0.8000 -0.0746
   19PET     H7  521  -0.899   2.410   2.033  0.7288 -0.0947  0.0146
   19PET     O2  522  -0.865   2.204   1.996  0.1370  0.1180 -1.0172
   19PET     C8  523  -0.935   2.084   1.972 -0.2537  0.0902 -0.6011
   19PET     O1  524  -1.048   2.078   1.940  0.0729  0.2052  0.2255
   19PET     C4  525  -0.845   1.959   1.995  0.3434  0.0736  0.2671
   19PET     C5  526  -0.895   1.829   1.969  0.3152  1.0582 -0.2068
   19PET     C6  527  -0.813   1.718   1.993  0.5873 -0.0613 -0.4556
   19PET     H4  528  -0.862   1.621   1.984  0.7341  0.0342 -3.9701
   19PET     H3  529  -0.998   1.813   1.939  0.4033 -2.1608  0.7914
   19PET     C3  530  -0.709   1.975   2.038 -0.7302  0.5993 -0.7044
   19PET     H2  531  -0.672   2.075   2.060  0.5789 -0.3827  2.0961
   19PET     C2  532  -0.619   1.864   2.041 -0.3406  0.4415 -0.5021
   19PET     H1  533  -0.519   1.888   2.076 -0.4148  0.6626 -0.4378
   19PET     C1  534  -0.673   1.733   2.022 -0.1835  0.1991  0.4680
   19PET     C7  535  -0.590   1.606   2.049  0.2687 -0.0474  0.3191
   19PET     O3  536  -0.473   1.620   2.070  0.8990  0.5891 -0.0428
   19PET     O4  537  -0.661   1.491   2.039  0.0532  0.6042  0.1268
   19PET    C10  538  -0.605   1.359   2.066  0.7666 -0.0659 -0.0596
   19PET     H8  539  -0.512   1.347   2.008 -0.0996  0.4288 -1.6346
   19PET     H9  540  -0.675   1.282   2.032  0.6385 -1.0777  2.3642
   19PET    C11  541  -0.569   1.336   2.216 -0.4937  0.5723  0.4110
   19PET    H10  542  -0.485   1.397   2.250  0.4019 -0.2161 -0.3280
   19PET    H11  543  -0.522   1.237   2.222  0.0642  0.7057 -1.1682
   19PET    C12  544  -0.696   1.346   2.307  0.2614 -0.3580 -0.1834
   19PET    H13  545  -0.775   1.299   2.246  0.4369 -2.4253  1.0847
   19PET    H14  546  -0.719   1.452   2.316  0.9749 -0.1125 -1.0964
   20PET     C9  547  -0.696   1.277   2.443  0.2973  0.2112  0.1824
   20PET     H6  548  -0.674   1.173   2.416  0.6318  0.8343 -2.1685
   20PET     H7  549  -0.795   1.285   2.489  0.1283  0.1171 -0.1594
   20PET     O2  550  -0.599   1.344   2.519 -0.3253  0.3337 -0.9551
   20PET     C8  551  -0.565   1.298   2.644 -0.2690 -0.0997  0.0731
   20PET     O1  552  -0.603   1.188   2.678  0.0550 -0.0889  0.0566
   20PET     C4  553  -0.485   1.403   2.724 -0.5128  0.1038 -0.3820
   20PET     C5  554  -0.463   1.393   2.862 -0.3865  0.1107  0.2637
   20PET     C6  555  -0.376   1.472   2.930 -0.3795 -0.2112 -0.8752
   20PET     H4  556  -0.376   1.451   3.037 -1.5938 -4.9179 -1.5704
   20PET     H3  557  -0.528   1.322   2.912 -0.9246  0.6931  0.4087
   20PET     C3  558  -0.413   1.500   2.654 -0.0243 -0.0928 -0.3480
   20PET     H2  559  -0.410   1.495   2.545  1.1400  2.0502 -0.4846
   20PET     C2  560  -0.328   1.588   2.729  0.0287  0.3684 -0.0590
   20PET     H1  561  -0.262   1.653   2.672 -2.8465  1.1162 -2.7559
   20PET     C1  562  -0.319   1.581   2.871 -0.5147  0.6908 -0.0131
   20PET     C7  563  -0.222   1.664   2.951  0.1530  0.1751  0.3106
   20PET     O3  564  -0.217   1.664   3.068  0.1681 -0.5922 -0.3238
   20PET     O4  565  -0.143   1.741   2.874  0.0416  0.1258 -0.0472
   20PET    C10  566  -0.042   1.825   2.941 -0.6789 -0.4595  0.0512
   20PET     H8  567   0.036   1.764   2.989  1.1732  2.6165  1.2850
   20PET     H9  568  -0.088   1.897   3.009  1.2400  2.4028 -1.4639
   20PET    C11  569   0.043   1.914   2.848 -0.0336  0.1972  0.2912
   20PET    H10  570   0.084   1.846   2.773  1.3295 -2.7758  3.4510
   20PET    H11  571   0.124   1.945   2.915  0.4069  0.3816 -0.3221
   20PET    C12  572  -0.033   2.041   2.788 -0.0920 -0.0545 -0.1175
   20PET    H13  573  -0.073   2.110   2.863 -0.8325 -0.7587  0.1437
   20PET    H14  574  -0.119   2.008   2.727  0.0520 -1.4558  0.3974
   21PET     C9  575   0.064   2.123   2.704  0.6718  0.5034 -0.2035
   21PET     H6  576   0.166   2.134   2.744  0.7395 -0.3436 -0.1225
   21PET     H7  577   0.017   2.222   2.707  0.1730  0.3364 -1.5244
   21PET     O2  578   0.068   2.068   2.572  0.0401 -0.0557  0.3394
   21PET     C8  579   0.116   2.144   2.462 -0.4570 -0.4126  0.3553
   21PET     O1  580   0.120   2.264   2.473  0.2387 -0.0712  0.3887
   21PET     C4  581   0.156   2.064   2.346  0.0126  0.1011  0.3465
   21PET     C5  582   0.191   2.133   2.223  0.3848  0.3125 -0.8906
   21PET     C6  583   0.240   2.054   2.119 -0.0805 -0.0367  0.0927
   21PET     H4  584   0.279   2.103   2.030 -0.4474  0.4342  0.1875
   21PET     H3  585   0.189   2.242   2.220  0.7607  0.4386  1.5233
   21PET     C3  586   0.168   1.927   2.362 -0.0714  0.4847  0.4099
   21PET     H2  587   0.144   1.879   2.457 -0.2595  0.3803  0.3106
   21PET     C2  588   0.202   1.855   2.248 -0.7744 -0.3629  0.1570
   21PET     H1  589   0.199   1.747   2.249 -1.8690 -0.3394 -0.0923
   21PET     C1  590   0.242   1.910   2.125  0.1254 -0.1889 -0.1779
   21PET     C7  591   0.286   1.821   2.012 -0.4308 -0.1932 -0.9246
   21PET     O3  592   0.297   1.700   2.032 -0.3895 -0.4911  0.1275
   21PET     O4  593   0.308   1.883   1.889 -0.4847  0.4658 -0.1290
   21PET    C10  594   0.374   1.825   1.790 -0.4929 -0.0515  0.3908
   21PET     H8  595   0.366   1.715   1.797 -0.5257  0.0553  2.8249
   21PET     H9  596   0.481   1.848   1.785 -0.6213  0.4595 -0.1449
   21PET    C11  597   0.318   1.879   1.648  0.1173  0.0980  0.0156
   21PET    H10  598   0.322   1.987   1.636 -1.2834 -0.0402 -2.8664
   21PET    H11  599   0.209   1.865   1.645 -0.4133  3.2636  1.5273
   21PET    C12  600   0.390   1.806   1.534 -0.5476 -0.3386 -0.1406
   21PET    H13  601   0.365   1.699   1.534 -0.9765 -0.3134  2.6505
   21PET    H14  602   0.495   1.827   1.555 -0.6841 -1.1949  1.6061
   22PET     C9  603   0.350   1.849   1.388 -0.0352  0.0848  0.1262
   22PET     H6  604   0.405   1.944   1.379 -0.5708  0.5517  1.5519
   22PET     H7  605   0.244   1.873   1.385  0.2647  1.4479 -0.3216
   22PET     O2  606   0.403   1.757   1.291 -0.0879 -0.0501 -0.0611
   22PET     C8  607   0.363   1.627   1.293 -0.2657  0.3295  0.1094
   22PET     O1  608   0.261   1.586   1.348  0.4315 -0.0416  0.4392
   22PET     C4  609   0.443   1.537   1.202 -0.4579 -0.1203  0.0694
   22PET     C5  610   0.550   1.589   1.125  0.0723  0.6144  0.0938
   22PET     C6  611   0.630   1.502   1.048 -0.8186 -0.2222 -0.1319
   22PET     H4  612   0.718   1.540   0.997  0.1818 -1.2312  0.7772
   22PET     H3  613   0.560   1.697   1.122 -0.2980  0.6312 -0.6670
   22PET     C3  614   0.412   1.397   1.194  0.0168 -0.6893 -0.0810
   22PET     H2  615   0.323   1.358   1.243  0.7361 -1.6206  0.5272
   22PET     C2  616   0.488   1.312   1.117  0.4445  0.0505  0.0793
   22PET     H1  617   0.451   1.211   1.101 -2.3606  1.3512 -2.5727
   22PET     C1  618   0.599   1.361   1.044 -0.5900 -0.2810 -0.0439
   22PET     C7  619   0.687   1.272   0.961 -0.1144  0.4371 -0.1243
   22PET     O3  620   0.636   1.176   0.899  0.0177 -0.1998 -0.1704
   22PET     O4  621   0.817   1.309   0.950  0.1035  0.1657 -0.1939
   22PET    C10  622   0.912   1.232   0.874  0.6600  0.5582 -0.3772
   22PET     H8  623   0.863   1.196   0.783  0.6771 -1.7925  0.4912
   22PET     H9  624   0.936   1.138   0.925 -0.5263  0.3792 -0.1171
   22PET    C11  625   1.029   1.324   0.839  0.5182  0.0237  0.1950
   22PET    H10  626   1.108   1.251   0.822  0.2316 -0.0540 -0.9417
   22PET    H11  627   1.055   1.386   0.926  0.8753 -0.3673  0.3690
   22PET    C12  628   0.998   1.414   0.712  0.0035  0.2198  0.7974
   22PET    H13  629   0.892   1.444   0.721  0.3638  1.5903  0.6966
   22PET    H14  630   1.022   1.350   0.627  2.9805  2.1976  0.0262
   23PET     C9  631   1.089   1.528   0.690 -0.0834  0.7085 -0.1023
   23PET     H6  632   1.059   1.585   0.601 -2.3876  0.4208  0.4278
   23PET     H7  633   1.192   1.492   0.683  0.1814  1.3796  0.2637
   23PET     O2  634   1.076   1.614   0.806 -0.1583  0.9826 -0.1855
   23PET     C8  635   0.957   1.677   0.815  0.9926  0.3505 -0.0944
   23PET     O1  636   0.874   1.689   0.725  0.4315  0.0780  0.1085
   23PET     C4  637   0.927   1.728   0.946 -0.5649 -0.0236 -0.2259
   23PET     C5  638   0.824   1.827   0.963  1.1584  0.0524  0.5616
   23PET     C6  639   0.779   1.862   1.090  0.5129  0.5919 -0.1958
   23PET     H4  640   0.699   1.935   1.098  0.4966  0.6422 -0.8037
   23PET     H3  641   0.773   1.865   0.875  0.0985 -0.5509  0.9031
   23PET     C3  642   0.989   1.675   1.060 -0.5010  0.4877 -0.0521
   23PET     H2  643   1.056   1.590   1.053  1.3028  1.7304  1.1284
   23PET     C2  644   0.946   1.711   1.185  0.5689  0.3518 -0.9064
   23PET     H1  645   0.994   1.669   1.274 -2.4918  0.0347  0.7323
   23PET     C1  646   0.838   1.801   1.201  0.4108  0.2115  0.3182
   23PET     C7  647   0.777   1.838   1.333 -0.4410  0.2759  0.4146
   23PET     O3  648   0.678   1.909   1.337  0.0403 -0.6158  0.2676
   23PET     O4  649   0.837   1.778   1.446 -0.7743  0.0399 -0.2138
   23PET    C10  650   0.793   1.813   1.569 -0.1792 -0.5533 -0.2468
   23PET     H8  651   0.719   1.741   1.607  0.0237 -1.1773 -1.0071
   23PET     H9  652   0.745   1.911   1.578 -2.4503 -1.7903  3.5195
   23PET    C11  653   0.918   1.814   1.654 -0.4093 -0.1091  0.4362
   23PET    H10  654   1.005   1.840   1.592 -1.8164  1.0834 -1.1477
   23PET    H11  655   0.936   1.714   1.695  0.7126  0.5176  1.5514
   23PET    C12  656   0.905   1.920   1.765 -0.0960 -0.4416  0.0133
   23PET    H13  657   0.914   2.020   1.721 -1.2184 -0.0840  0.5623
   23PET    H14  658   0.988   1.913   1.836 -0.9603 -1.6789  0.9500
   24PET     C9  659   0.777   1.904   1.855 -0.0365  0.0053  0.2248
   24PET     H6  660   0.676   1.920   1.815  0.7802  2.0243 -1.2025
   24PET     H7  661   0.774   1.974   1.940 -1.6396  1.4596 -0.9577
   24PET     O2  662   0.779   1.775   1.902 -0.4741  0.7015  0.5754
   24PET     C8  663   0.680   1.730   1.987  0.3901 -0.4102  0.3279
   24PET     O1  664   0.585   1.805   2.008 -0.1637  0.2492 -0.2460
   24PET     C4  665   0.686   1.585   2.042  0.3190 -0.1725  0.1658
   24PET     C5  666   0.767   1.483   1.984 -0.3342  0.0242 -0.6369
   24PET     C6  667   0.775   1.356   2.038  0.0631  0.9860 -0.1480
   24PET     H4  668   0.844   1.287   1.990  1.8452  1.1822  1.9471
   24PET     H3  669   0.829   1.504   1.898 -0.0356 -1.9521 -0.9546
   24PET     C3  670   0.599   1.542   2.139 -0.0796 -0.1029  0.7118
   24PET     H2  671   0.513   1.605   2.158 -1.4760 -2.1206  1.3410
   24PET     C2  672   0.611   1.416   2.198  0.8822  0.8126  0.0722
   24PET     H1  673   0.548   1.378   2.278  2.7039  0.5984  1.4653
   24PET     C1  674   0.701   1.322   2.151 -0.0920 -0.2196 -0.1089
   24PET     C7  675   0.695   1.185   2.195 -0.1885  0.5870 -1.0911
   24PET     O3  676   0.614   1.148   2.280 -0.7165  0.2439 -0.4728
   24PET     O4  677   0.789   1.103   2.140 -0.2025  0.1094  0.4321
   24PET    C10  678   0.792   0.965   2.167  0.0326  0.3594 -0.2010
   24PET     H8  679   0.692   0.921   2.179  0.3980 -0.6464 -0.6890
   24PET     H9  680   0.845   0.957   2.263 -3.5245 -1.3755  1.8219
   24PET    C11  681   0.870   0.888   2.057  0.0570 -0.1696 -0.8068
   24PET    H10  682   0.805   0.889   1.969 -1.8270  0.1928  0.5182
   24PET    H11  683   0.894   0.783   2.077  0.3651 -0.3596 -2.1153
   24PET    C12  684   1.011   0.947   2.025  0.7674  0.3108  0.1761
   24PET    H13  685   1.080   0.939   2.110  1.1549 -1.9567 -0.2867
   24PET    H14  686   1.001   1.055   2.008  0.4461  0.3808  0.7908
   25PEO     C1  687   1.084   0.882   1.908  0.9893 -0.6048 -0.1354
   25PEO     H3  688   1.039   0.785   1.882  0.9083 -0.0328 -2.2804
   25PEO     H4  689   1.189   0.865   1.936  0.6257 -1.6925  0.6479
   25PEO      O  690   1.082   0.976   1.802 -0.0269 -0.3185  0.6168
   25PEO     C2  691   0.955   0.983   1.734 -0.1063 -0.3846 -0.2241
   25PEO     H5  692   0.883   1.050   1.783 -1.3744 -0.9957 -1.1761
   25PEO     H6  693   0.897   0.890   1.724  1.0064 -1.0748 -0.5120
   25PEO     C3  694   0.978   1.041   1.595  0.2645  0.0110  0.2410
   25PEO     H7  695   1.057   1.117   1.594  1.3521 -1.0464 -1.9149
   25PEO     H8  696   0.884   1.089   1.566  1.8432  2.0239 -1.9421
   25PEO     O1  697   1.007   0.940   1.497  0.4504  0.1882 -0.1332
   25PEO     C4  698   1.134   0.892   1.491  0.0198 -0.7425  0.0836
   25PEO     H9  699   1.172   0.842   1.581  3.3909  1.9315  0.3945
   25PEO    H10  700   1.203   0.977   1.486 -1.6166  0.6419 -0.0058
   25PEO     C5  701   1.154   0.824   1.358  0.5636  0.1492 -0.3462
   25PEO    H11  702   1.095   0.732   1.359  2.1244 -0.9047  1.0087
   25PEO    H12  703   1.260   0.797   1.350  0.1476 -1.2352 -1.3577
   25PEO     O2  704   1.114   0.905   1.243  0.3033 -0.3766  0.4674
   25PEO     C6  705   1.212   1.007   1.198  0.8091 -0.0063  0.4601
   25PEO    H13  706   1.304   0.965   1.155 -1.0098 -1.2644 -2.5633
   25PEO    H14  707   1.240   1.068   1.285  1.4585 -0.1345  0.3397
   25PEO     C7  708   1.154   1.097   1.091  0.1261 -0.8826  0.1092
   25PEO    H15  709   1.085   1.048   1.021 -0.0656 -1.3768  0.6431
   25PEO    H16  710   1.231   1.127   1.018  0.7390 -2.3009  0.1594
   25PEO     O3  711   1.094   1.213   1.149 -0.0583 -0.1957  0.0923
   25PEO     C8  712   0.991   1.198   1.246  0.0172 -0.3917 -0.1828
   25PEO    H17  713   1.024   1.154   1.341 -1.9069 -0.8186  0.3480
   25PEO    H18  714   0.910   1.135   1.206 -0.8557 -0.1770  1.1784
   25PEO     C9  715   0.920   1.337   1.291  0.1110 -0.0856  0.2542
   25PEO    H19  716   0.908   1.405   1.205  1.5751  0.2926  0.3221
   25PEO    H20  717   0.997   1.394   1.345  0.3179 -0.3274  0.2164
   25PEO     O4  718   0.799   1.314   1.365  0.2087  0.0851  0.2763
   25PEO    C10  719   0.756   1.430   1.431  0.7354 -0.5060 -0.5179
   25PEO    H21  720   0.647   1.442   1.421  0.8489 -0.2344 -1.5708
   25PEO    H22  721   0.791   1.520   1.380  1.2274  0.4896  1.4873
   26PET     C9  722   0.808   1.434   1.583  0.2116 -0.4659 -0.4213
   26PET     H6  723   0.827   1.533   1.627 -1.4678 -0.5167  0.4893
   26PET     H7  724   0.908   1.388   1.583 -0.0156 -0.9666 -0.5633
   26PET     O2  725   0.718   1.369   1.672 -0.1525 -0.0450 -0.0689
   26PET     C8  726   0.609   1.426   1.719 -0.1225  0.1619 -0.1802
   26PET     O1  727   0.566   1.533   1.684  0.0885  0.1607  0.2634
   26PET     C4  728   0.531   1.335   1.816 -0.0704 -0.8364 -0.4635
   26PET     C5  729   0.560   1.201   1.849 -0.5495  1.1582 -0.3345
   26PET     C6  730   0.492   1.135   1.948 -0.5459 -0.3040  0.0574
   26PET     H4  731   0.522   1.035   1.977 -0.4057 -0.1017  0.6127
   26PET     H3  732   0.631   1.138   1.796 -1.8729 -1.1138  0.4640
   26PET     C3  733   0.435   1.408   1.896 -0.0839  0.7682  0.1866
   26PET     H2  734   0.437   1.515   1.880  1.2094  0.5416 -1.4150
   26PET     C2  735   0.358   1.345   1.989  0.6035 -0.2629 -0.2296
   26PET     H1  736   0.277   1.405   2.029 -1.0062 -1.9876 -0.7749
   26PET     C1  737   0.387   1.206   2.018 -0.1531 -0.4046 -0.3570
   26PET     C7  738   0.307   1.144   2.127  0.6653 -0.5569 -0.7788
   26PET     O3  739   0.318   1.028   2.152  0.3751  0.1096  0.3157
   26PET     O4  740   0.246   1.236   2.209 -0.3655  0.5107 -0.0763
   26PET    C10  741   0.208   1.212   2.340 -0.2390  0.1865  0.0448
   26PET     H8  742   0.200   1.106   2.366 -1.2532  0.0600 -0.7476
   26PET     H9  743   0.106   1.250   2.357 -0.1081  0.2938  0.6332
   26PET    C11  744   0.299   1.292   2.440  0.0093  0.1559  0.4078
   26PET    H10  745   0.401   1.252   2.439 -0.2350 -0.4860 -1.2917
   26PET    H11  746   0.261   1.272   2.541 -0.2037  2.1175  0.7418
   26PET    C12  747   0.306   1.445   2.421  0.0597  0.0374 -0.0077
   26PET    H13  748   0.203   1.482   2.408  0.7693  1.1719 -3.4869
   26PET    H14  749   0.361   1.469   2.329 -1.6886  0.6423 -0.9431
   27PET     C9  750   0.371   1.511   2.542 -0.1749  0.5122  0.0105
   27PET     H6  751   0.461   1.455   2.573 -0.8882 -0.2412  0.8016
   27PET     H7  752   0.308   1.519   2.632  1.0023  1.0935  0.8204
   27PET     O2  753   0.408   1.639   2.496 -0.1204 -0.5197  0.1109
   27PET     C8  754   0.427   1.743   2.585  0.1653  0.2917  0.4130
   27PET     O1  755   0.415   1.735   2.712 -0.2377  0.8189  0.5661
   27PET     C4  756   0.460   1.869   2.515 -0.4677  0.2627 -0.1644
   27PET     C5  757   0.493   1.871   2.376  0.4434  0.5084  0.1039
   27PET     C6  758   0.513   1.994   2.311  0.1621 -0.0356 -0.1730
   27PET     H4  759   0.527   1.995   2.203 -0.4381  0.5194 -0.2550
   27PET     H3  760   0.489   1.777   2.322  0.2402  2.2473 -3.2037
   27PET     C3  761   0.449   1.994   2.585 -0.0007  0.0419  0.1223
   27PET     H2  762   0.427   2.000   2.691  0.0906  0.2915  0.1261
   27PET     C2  763   0.462   2.118   2.518 -0.2446 -0.1851 -0.7230
   27PET     H1  764   0.455   2.209   2.577 -1.0685 -0.3821 -0.4931
   27PET     C1  765   0.487   2.121   2.383 -0.3572  0.3601 -0.2927
   27PET     C7  766   0.494   2.248   2.300  0.6862  1.3109  0.7978
   27PET     O3  767   0.492   2.357   2.352 -0.2927 -0.0283  0.6015
   27PET     O4  768   0.513   2.230   2.167  0.0332  0.4025  0.2551
   27PET    C10  769   0.531   2.342   2.090  0.7708 -0.0506  0.4283
   27PET     H8  770   0.631   2.386   2.101  0.2925  2.2013 -2.6364
   27PET     H9  771   0.459   2.419   2.118 -2.1228 -2.3428 -0.2190
   27PET    C11  772   0.507   2.309   1.936 -0.1027 -0.1642 -0.5355
   27PET    H10  773   0.457   2.400   1.900 -2.2899 -0.6208  1.0835
   27PET    H11  774   0.441   2.222   1.933 -0.7492  0.3480 -3.3983
   27PET    C12  775   0.642   2.273   1.870  0.1011  0.8273  0.4853
   27PET    H13  776   0.679   2.192   1.934  0.7203  1.1094  0.4920
   27PET    H14  777   0.712   2.355   1.888 -1.4922  1.9186  2.1198
   28PEO     C1  778   0.641   2.216   1.721 -0.1646 -0.0563 -0.7198
   28PEO     H3  779   0.550   2.156   1.711  0.0218 -0.9688  2.0596
   28PEO     H4  780   0.725   2.145   1.718 -1.1569 -1.2194 -1.5912
   28PEO      O  781   0.661   2.316   1.618  0.7558 -0.0665 -0.2629
   28PEO     C2  782   0.565   2.425   1.629 -0.0205  0.1327  0.5381
   28PEO     H5  783   0.600   2.515   1.575 -0.6472  1.5692  2.4119
   28PEO     H6  784   0.552   2.451   1.734 -3.6245 -2.9811  1.0572
   28PEO     C3  785   0.433   2.392   1.558  0.1122  0.2178  0.1924
   28PEO     H7  786   0.464   2.358   1.458  0.0542  0.3835  0.1176
   28PEO     H8  787   0.381   2.487   1.542  1.0056  0.4488 -1.5866
   28PEO     O1  788   0.348   2.302   1.638 -0.0265 -0.0427  0.1191
   28PEO     C4  789   0.218   2.275   1.588  0.0906 -0.4677  0.3015
   28PEO     H9  790   0.227   2.210   1.500  0.0231 -0.5711  0.3715
   28PEO    H10  791   0.174   2.372   1.561  0.9150 -0.8266 -2.8289
   28PEO     C5  792   0.133   2.213   1.707 -0.4305 -0.4818 -0.0172
   28PEO    H11  793   0.201   2.167   1.779  0.8834  0.1245 -0.8447
   28PEO    H12  794   0.061   2.133   1.682 -1.9464  0.4515  1.1715
   28PEO     O2  795   0.071   2.322   1.780  0.6389  0.1134 -0.2008
   28PEO     C6  796   0.150   2.417   1.857  0.3417 -0.1177  0.3490
   28PEO    H13  797   0.214   2.475   1.790 -0.7068  1.5348  0.7125
   28PEO    H14  798   0.217   2.374   1.932 -0.6819  0.3209  1.5451
   28PEO     C7  799   0.048   2.514   1.926 -0.4368 -0.7122  0.1297
   28PEO    H15  800  -0.008   2.568   1.849 -1.2217 -1.4314  0.1777
   28PEO    H16  801   0.113   2.576   1.989 -0.3337 -2.4475  1.8023
   28PEO     O3  802  -0.046   2.437   2.013 -0.1243 -0.3335  0.4270
   28PEO     C8  803  -0.119   2.523   2.105 -0.2051 -0.5822  0.1977
   28PEO    H17  804  -0.053   2.595   2.155 -0.6765  1.1333 -1.5327
   28PEO    H18  805  -0.170   2.465   2.183 -0.6826  0.7990  0.9617
   28PEO     C9  806  -0.229   2.612   2.035  0.0232  0.2581  0.1818
   28PEO    H19  807  -0.183   2.674   1.957  1.5108 -2.7868 -1.5215
   28PEO    H20  808  -0.263   2.682   2.113 -0.1922 -2.0627  2.3058
   28PEO     O4  809  -0.337   2.532   1.974  0.0842  0.2717 -0.4272
   28PEO    C10  810  -0.424   2.460   2.061 -0.6647  0.6198 -0.2062
   28PEO    H21  811  -0.481   2.525   2.129 -2.3557  0.6472 -1.5717
   28PEO    H22  812  -0.372   2.382   2.119 -1.1021  0.7103  0.3193
   29PEO     C1  813  -0.530   2.390   1.974  0.1738  0.2153 -0.2290
   29PEO     H3  814  -0.583   2.465   1.913  0.3786  2.0319  1.7029
   29PEO     H4  815  -0.606   2.340   2.036  0.2846 -1.8970 -1.7040
   29PEO      O  816  -0.462   2.280   1.906 -0.2981 -0.4993 -0.1035
   29PEO     C2  817  -0.523   2.221   1.793  0.3719  0.5232  0.2303
   29PEO     H5  818  -0.531   2.291   1.709 -0.1534  0.8949  0.5822
   29PEO     H6  819  -0.623   2.184   1.822  1.2022 -0.1578  2.3964
   29PEO     C3  820  -0.445   2.093   1.749 -0.0458  0.3116  0.6209
   29PEO     H7  821  -0.344   2.114   1.711 -1.1664  3.0229 -1.1170
   29PEO     H8  822  -0.500   2.050   1.664 -2.1238  3.3806  0.2371
   29PEO     O1  823  -0.446   1.998   1.859 -0.4092  0.0165  0.1956
   29PEO     C4  824  -0.340   1.899   1.835  0.3372 -0.6424 -0.2916
   29PEO     H9  825  -0.348   1.858   1.733  1.6892  0.6733 -0.9533
   29PEO    H10  826  -0.360   1.814   1.903  1.1480 -0.7651 -0.1995
   29PEO     C5  827  -0.199   1.962   1.869  0.1551 -0.0980 -0.3679
   29PEO    H11  828  -0.173   2.044   1.801  0.3759 -0.2772 -0.5022
   29PEO    H12  829  -0.128   1.882   1.843 -1.4315 -1.2333 -1.3582
   29PEO     O2  830  -0.180   1.986   2.009 -0.1655  0.5683  0.3191
   29PEO     C6  831  -0.256   2.104   2.061 -0.0494  0.3250  0.5676
   29PEO    H13  832  -0.364   2.086   2.075  0.0690  0.5241  1.8660
   29PEO    H14  833  -0.249   2.192   1.996 -1.3593  0.2483  0.2888
   29PEO     C7  834  -0.197   2.141   2.199 -0.0942  0.7410 -0.9350
   29PEO    H15  835  -0.215   2.249   2.210  1.1575  0.9305 -0.4951
   29PEO    H16  836  -0.088   2.127   2.209 -0.2510 -0.4585 -0.7881
   29PEO     O3  837  -0.262   2.065   2.296  0.2571 -0.1827 -1.1354
   29PEO     C8  838  -0.215   1.923   2.307  0.0316  0.1352 -0.3663
   29PEO    H17  839  -0.106   1.924   2.310  0.0307  1.9174  0.6481
   29PEO    H18  840  -0.249   1.855   2.228  1.0115 -0.7411 -0.0434
   29PEO     C9  841  -0.259   1.864   2.445 -0.7294  0.1957 -0.0823
   29PEO    H19  842  -0.267   1.945   2.520 -0.1550 -1.0121  1.3398
   29PEO    H20  843  -0.184   1.790   2.476 -0.8784 -1.4972 -3.3722
   29PEO     O4  844  -0.381   1.795   2.432  0.2100  0.0490 -0.4053
   29PEO    C10  845  -0.493   1.875   2.395  0.1730 -1.0006  0.8061
   29PEO    H21  846  -0.498   1.902   2.289  0.8040 -1.0452  0.7576
   29PEO    H22  847  -0.484   1.972   2.446  0.9661  1.4567 -3.4742
   30PET     C9  848  -0.623   1.797   2.430  0.7359 -0.1635 -0.3636
   30PET     H6  849  -0.634   1.779   2.538  1.6794 -0.5220 -0.3220
   30PET     H7  850  -0.615   1.699   2.382  3.5260  0.2355 -0.8875
   30PET     O2  851  -0.742   1.870   2.382 -0.1655 -0.1581  0.1255
   30PET     C8  852  -0.787   1.979   2.453  0.4014 -0.7971 -0.7498
   30PET     O1  853  -0.736   2.013   2.562 -0.3221  0.0468  0.2876
   30PET     C4  854  -0.911   2.044   2.397 -0.6028  0.1603 -0.0769
   30PET     C5  855  -0.987   1.993   2.292  0.2837  0.3180  0.3808
   30PET     C6  856  -1.101   2.063   2.246  0.5643  0.1678  0.7442
   30PET     H4  857  -1.167   2.022   2.169  0.4205 -0.0355  0.9762
   30PET     H3  858  -0.955   1.899   2.248 -0.1011 -1.6307  3.8867
   30PET     C3  859  -0.955   2.161   2.465 -0.1110  0.9547  0.3105
   30PET     H2  860  -0.901   2.197   2.552  3.3837 -0.0790 -1.2519
   30PET     C2  861  -1.056   2.243   2.407 -0.3211  0.7203  0.8096
   30PET     H1  862  -1.083   2.336   2.456 -1.8377  0.8425 -0.1651
   30PET     C1  863  -1.140   2.191   2.301  0.1353  0.4019  0.2545
   30PET     C7  864  -1.264   2.260   2.243  0.0135  0.3219  0.5068
   30PET     O3  865  -1.309   2.365   2.290  0.7050 -0.1230 -0.4128
   30PET     O4  866  -1.307   2.209   2.125  0.0724 -0.2953  0.6802
   30PET    C10  867  -1.418   2.261   2.058  0.7750  0.6111 -0.0766
   30PET     H8  868  -1.471   2.336   2.118 -1.6990 -0.5432 -0.6947
   30PET     H9  869  -1.494   2.184   2.042  0.5571  0.4023  1.6930
   30PET    C11  870  -1.378   2.340   1.930 -0.6023  0.0257  0.3181
   30PET    H10  871  -1.290   2.401   1.956  2.5170 -2.5959 -3.0779
   30PET    H11  872  -1.449   2.420   1.904  0.6451  1.2433  0.5601
   30PET    C12  873  -1.344   2.245   1.817 -0.2059  0.4838 -0.3415
   30PET    H13  874  -1.254   2.187   1.844  0.6108  1.8036 -0.1257
   30PET    H14  875  -1.309   2.298   1.728 -0.3735  0.9805 -0.1166
   31SOL     OW  876   0.169   1.161   0.987  0.1531  0.3882  0.3371
   31SOL    HW1  877   0.150   1.130   1.075  2.3861  0.6640  0.9708
   31SOL    HW2  878   0.138   1.252   0.986 -0.6269  0.1322  0.5359
   32SOL     OW  879   2.934   2.970   2.457  0.5265  0.0342  0.0568
   32SOL    HW1  880   3.028   2.987   2.465  0.5078  0.6164 -0.8523
   32SOL    HW2  881   2.894   3.057   2.452  0.0965 -0.2172 -1.2578
   33SOL     OW  882   0.011   1.665   1.229  0.3757 -0.2470  0.0746
   33SOL    HW1  883   0.099   1.643   1.259  0.2030 -1.7610 -0.4056
   33SOL    HW2  884  -0.047   1.615   1.287 -0.0407 -1.3858 -1.2642
   34SOL     OW  885   0.204   0.749   2.928  0.8215  0.0660 -0.2829
   34SOL    HW1  886   0.277   0.709   2.880 -0.9727 -1.2041 -2.1211
   34SOL    HW2  887   0.166   0.811   2.866  0.1197  0.4589  0.5198
   35SOL     OW  888   0.133   1.619   0.535 -0.4459  0.1891 -0.6869
   35SOL    HW1  889   0.144   1.563   0.458 -0.9312  0.0248 -0.6418
   35SOL    HW2  890   0.147   1.708   0.502 -0.6985  0.1255 -0.9787
   36SOL     OW  891   0.572   3.220   0.530 -0.1858  0.4560  0.5635
   36SOL    HW1  892   0.580   3.166   0.451 -1.7562  0.9471  0.0268
   36SOL    HW2  893   0.538   3.159   0.596 -3.0345  0.9183 -0.3344
   37SOL     OW  894   1.851   2.655   2.871  0.0472 -0.1606  0.0742
   37SOL    HW1  895   1.798   2.709   2.813 -0.6418  1.5354  2.1621
   37SOL    HW2  896   1.939   2.692   2.864 -0.5055  1.6915  1.8419
   38SOL     OW  897   0.830   3.339   2.055  0.2185  0.3233 -0.1814
   38SOL    HW1  898   0.844   3.423   2.012  0.9987 -1.4515 -3.7957
   38SOL    HW2  899   0.903   3.284   2.026 -1.2351 -2.1462  0.4473
   39SOL     OW  900   0.241   0.769   0.502  0.3951 -0.3178  0.6379
   39SOL    HW1  901   0.198   0.832   0.561  0.4550  0.4805 -0.1495
   39SOL    HW2  902   0.299   0.823   0.448  0.5887 -1.0783  0.0740
   40SOL     OW  903   3.170   0.732   2.779  0.3028 -0.1578 -0.1678
   40SOL    HW1  904   3.076   0.719   2.771  0.3883 -0.0426 -1.4936
   40SOL    HW2  905   3.205   0.646   2.800  0.0118 -0.4432 -0.8325
   41SOL     OW  906   1.833   1.976   0.397 -0.1498 -0.1054 -0.0632
   41SOL    HW1  907   1.796   2.063   0.387  1.3369  0.3254 -3.1094
   41SOL    HW2  908   1.928   1.990   0.396  0.1157 -1.6586  0.7901
   42SOL     OW  909   2.762   2.838   2.883 -0.0966 -0.3962 -0.0828
   42SOL    HW1  910   2.711   2.919   2.881  0.5814  0.0377 -0.3621
   42SOL    HW2  911   2.837   2.857   2.827  0.2751 -1.0844  0.1793
   43SOL     OW  912   1.648   1.624   3.254  0.5250 -0.4256  0.0413
   43SOL    HW1  913   1.617   1.594   3.169  0.5516  0.9210 -0.4610
   43SOL    HW2  914   1.650   1.545   3.308 -0.4377 -1.1246 -0.9145
   44SOL     OW  915   0.647   2.018   3.245  0.1428  0.3133 -0.0098
   44SOL    HW1  916   0.658   1.958   3.172 -2.2316 -0.4150  0.1735
   44SOL    HW2  917   0.705   1.983   3.314  0.5059 -0.4178 -0.6726
   45SOL     OW  918   1.738   1.797   2.594 -0.1746  0.0627 -0.0176
   45SOL    HW1  919   1.713   1.724   2.650 -1.6229 -0.9086 -1.8127
   45SOL    HW2  920   1.669   1.862   2.608 -0.5431 -0.1846 -0.6130
   46SOL     OW  921   2.833   2.181   2.616  0.5624  0.5392 -0.4047
   46SOL    HW1  922   2.757   2.141   2.575  1.8904 -1.1646 -1.3695
   46SOL    HW2  923   2.866   2.113   2.676  1.2329  1.3078  0.1183
   47SOL     OW  924   0.941   2.990   0.150  0.0136 -0.3001  0.4135
   47SOL    HW1  925   0.968   3.081   0.140  1.1680 -0.5725  0.9510
   47SOL    HW2  926   0.867   2.980   0.090  1.0123  0.5127 -0.9905
   48SOL     OW  927   3.233   0.021   2.172  0.4060 -0.0391  0.2929
   48SOL    HW1  928   3.174  -0.043   2.132 -1.8517  1.5541  0.9111
   48SOL    HW2  929   3.253  -0.016   2.258  2.0453 -1.5589 -0.6807
   49SOL     OW  930   1.084   1.839   2.847  0.5705 -0.3686  0.2478
   49SOL    HW1  931   1.007   1.785   2.861 -0.6207  1.0702 -0.4848
   49SOL    HW2  932   1.104   1.875   2.934 -1.3801  1.5019  0.0125
   50SOL     OW  933   0.399   0.354   2.771  0.5822 -0.2126 -0.2049
   50SOL    HW1  934   0.390   0.448   2.785  0.5434 -0.2892  0.2937
   50SOL    HW2  935   0.398   0.316   2.859 -2.6410 -0.9724 -0.4608
   51SOL     OW  936   2.490   0.931   0.116  0.8124  0.3587  0.2667
   51SOL    HW1  937   2.555   0.982   0.068 -0.9803  0.9254 -1.7185
   51SOL    HW2  938   2.426   0.995   0.147  1.2647 -0.1476  2.4584
   52SOL     OW  939   2.979   3.173   1.067  0.5065  0.6616 -0.1528
   52SOL    HW1  940   3.064   3.157   1.027  0.6294  0.8489  0.0317
   52SOL    HW2  941   2.979   3.119   1.146  0.3299  0.4200 -0.3169
   53SOL     OW  942   0.829   1.897   0.042 -0.4772 -0.4064  0.6239
   53SOL    HW1  943   0.851   1.804   0.047  0.2724 -0.1813  4.2244
   53SOL    HW2  944   0.914   1.941   0.028 -0.7572 -0.1938 -0.5180
   54SOL     OW  945   0.045   3.309   2.946 -0.4813  0.2060 -0.0752
   54SOL    HW1  946  -0.023   3.375   2.948 -0.8974 -0.0500 -2.4914
   54SOL    HW2  947   0.021   3.247   3.014 -3.5598 -0.6385 -1.7510
   55SOL     OW  948   0.114   3.267   1.705 -0.0601  0.0280  0.0393
   55SOL    HW1  949   0.179   3.210   1.664 -0.3355 -0.6574  0.5406
   55SOL    HW2  950   0.111   3.238   1.796 -1.7646 -0.5764 -0.1921
   56SOL     OW  951   2.432   2.102   0.137 -0.3389  0.1878 -0.2556
   56SOL    HW1  952   2.391   2.018   0.116  0.2584  0.1613 -1.4183
   56SOL    HW2  953   2.492   2.117   0.065  0.2951  1.1435  0.4543
   57SOL     OW  954   0.736   2.004   0.278  0.0299 -0.0040 -0.6495
   57SOL    HW1  955   0.743   1.975   0.187  1.6914  0.0543 -0.5723
   57SOL    HW2  956   0.783   2.088   0.280  0.3907 -0.2172  0.3431
   58SOL     OW  957   0.153   2.988   2.188  0.4973 -0.7681  0.1855
   58SOL    HW1  958   0.205   3.065   2.211 -0.3720  0.0654 -0.5297
   58SOL    HW2  959   0.144   2.939   2.269 -1.7962  1.6375  1.5393
   59SOL     OW  960   2.000   1.480   2.590  0.6650  0.2042 -0.3451
   59SOL    HW1  961   1.990   1.442   2.678  1.2194  2.7523  0.8860
   59SOL    HW2  962   2.053   1.416   2.543  1.1315 -0.8019  1.4440
   60SOL     OW  963   1.238   2.935   1.927 -0.5014  0.2904 -0.1934
   60SOL    HW1  964   1.214   3.020   1.891 -1.0487  0.2289  0.0162
   60SOL    HW2  965   1.260   2.953   2.019  2.8312  0.7886 -0.9603
   61SOL     OW  966   1.935   1.340   2.828  0.6471 -0.0730 -0.2385
   61SOL    HW1  967   1.987   1.376   2.900  1.8473 -1.9365 -0.1171
   61SOL    HW2  968   1.971   1.253   2.814 -2.8529 -1.7641  0.2736
   62SOL     OW  969   3.096   0.242   2.284  0.4587  0.0781 -0.0937
   62SOL    HW1  970   3.107   0.306   2.213 -1.0560 -0.4161 -0.8163
   62SOL    HW2  971   3.166   0.178   2.269  1.2877  0.9434 -0.0297
   63SOL     OW  972   3.335   3.191   1.128  0.1019 -0.5315 -0.1911
   63SOL    HW1  973   3.327   3.175   1.034 -1.1791  0.5448 -0.3000
   63SOL    HW2  974   3.293   3.276   1.141 -0.0882 -0.8395  1.4074
   64SOL     OW  975   0.114   2.753   2.566 -0.3336 -0.0166 -0.5385
   64SOL    HW1  976   0.175   2.785   2.500 -0.2435 -0.4892 -0.6874
   64SOL    HW2  977   0.110   2.659   2.552  0.3259 -0.2526  0.6673
   65SOL     OW  978   2.460   0.887   2.735  0.4340  0.0968 -0.3741
   65SOL    HW1  979   2.451   0.982   2.745 -0.8515 -0.0755  0.3604
   65SOL    HW2  980   2.374   0.858   2.704 -0.1945 -1.1494  2.2692
   66SOL     OW  981   1.039   2.099   2.756  0.3808 -0.0326  0.8303
   66SOL    HW1  982   1.048   2.007   2.781  0.5375 -0.3055 -0.1943
   66SOL    HW2  983   1.113   2.116   2.698 -0.3928  0.3618 -0.0666
   67SOL     OW  984   2.204   0.861   2.665  0.0933 -0.3178 -0.3230
   67SOL    HW1  985   2.212   0.865   2.569  0.5527  1.7064 -0.2430
   67SOL    HW2  986   2.150   0.784   2.681 -0.5256 -0.3409 -2.2555
   68SOL     OW  987   2.068   2.135   0.270  0.4587  0.2604  0.7973
   68SOL    HW1  988   2.003   2.114   0.203  1.2507 -1.8813  0.6229
   68SOL    HW2  989   2.019   2.182   0.337 -0.5616  1.5700 -0.7921
   69SOL     OW  990   2.153   1.786   0.063  0.6370 -0.4988 -0.0017
   69SOL    HW1  991   2.059   1.790   0.045  0.4605  1.9914  1.0887
   69SOL    HW2  992   2.193   1.837  -0.008  1.0243 -0.3033  0.3554
   70SOL     OW  993   2.094   1.677   2.777 -0.0289 -0.3801 -0.1156
   70SOL    HW1  994   2.159   1.710   2.715 -1.3080  2.3289 -0.1497
   70SOL    HW2  995   2.027   1.636   2.722 -1.6568  2.8651 -0.8443
   71SOL     OW  996   0.185   0.240   1.108 -0.1856  0.5873  0.0473
   71SOL    HW1  997   0.125   0.220   1.180  1.2670  0.4140  1.2664
   71SOL    HW2  998   0.271   0.247   1.150  0.8557 -0.3926 -1.8054
   72SOL     OW  999   1.117   0.109   3.029  0.2580  0.0896  0.0291
   72SOL    HW1 1000   1.023   0.123   3.040  0.2163  0.1942 -0.4449
   72SOL    HW2 1001   1.154   0.133   3.114 -0.1546 -0.0795  0.2618
   73SOL     OW 1002   2.674   0.520   2.153 -0.1071  0.5194 -0.1667
   73SOL    HW1 1003   2.699   0.555   2.068 -0.1750  0.5910 -0.1570
   73SOL    HW2 1004   2.580   0.537   2.160  0.2707  2.4760  0.8433
   74SOL     OW 1005   1.245   2.644   3.274  0.5642 -0.5669 -0.2519
   74SOL    HW1 1006   1.244   2.728   3.227  0.9508 -1.1382 -1.3244
   74SOL    HW2 1007   1.243   2.578   3.205 -0.8030 -1.4648  0.5963
   75SOL     OW 1008   1.985   2.008   3.150 -0.2348 -0.3365 -0.0888
   75SOL    HW1 1009   1.982   2.101   3.127  2.5148  0.1272  0.9868
   75SOL    HW2 1010   2.031   1.967   3.077 -0.2784 -0.6302  0.0473
   76SOL     OW 1011   2.960   2.244   0.395 -0.3133 -0.2161  0.3880
   76SOL    HW1 1012   2.886   2.304   0.382 -0.8630 -0.8751  0.4409
   76SOL    HW2 1013   3.018   2.261   0.321 -0.6461  0.1119  0.1980
   77SOL     OW 1014   1.018   2.454   2.953 -0.0742 -0.1157  0.4677
   77SOL    HW1 1015   0.971   2.530   2.918  0.4387 -0.1886 -0.4075
   77SOL    HW2 1016   0.963   2.422   3.024 -0.6229  0.6785  0.4051
   78SOL     OW 1017   0.444   1.044   2.762 -0.4688 -0.0511  0.3581
   78SOL    HW1 1018   0.354   1.015   2.777 -0.3912 -0.2488  0.4441
   78SOL    HW2 1019   0.454   1.043   2.667 -1.6481  3.2665  0.0667
   79SOL     OW 1020   2.032   2.035   2.446 -0.4698  0.1316 -0.1212
   79SOL    HW1 1021   1.952   2.031   2.499 -0.0004 -1.5634  0.4871
   79SOL    HW2 1022   2.100   2.065   2.506 -0.5841  1.4481 -0.6084
   80SOL     OW 1023   3.197   2.490   2.997 -0.2714 -0.0836  0.1821
   80SOL    HW1 1024   3.283   2.477   2.957 -0.4197 -0.7111  0.0557
   80SOL    HW2 1025   3.202   2.577   3.037  0.2981  0.0320 -0.1325
   81SOL     OW 1026   2.871   1.804   0.301  0.2747 -0.3928 -0.3015
   81SOL    HW1 1027   2.855   1.895   0.327  1.4656 -0.5380  1.0901
   81SOL    HW2 1028   2.801   1.755   0.342  0.0227 -0.1758 -0.4709
   82SOL     OW 1029   3.270   0.790   0.081  0.5185 -0.1884  0.0214
   82SOL    HW1 1030   3.351   0.739   0.091  0.1886 -0.4815  1.4391
   82SOL    HW2 1031   3.295   0.880   0.102  0.7452 -0.0357 -0.8563
   83SOL     OW 1032   0.853   0.256   0.145  0.1283 -0.0210  0.1635
   83SOL    HW1 1033   0.850   0.259   0.240 -1.6265 -1.9800  0.2491
   83SOL    HW2 1034   0.843   0.164   0.123  1.4929  0.2437 -1.9400
   84SOL     OW 1035   1.289   2.575   2.891 -0.2015 -0.0074  0.2221
   84SOL    HW1 1036   1.252   2.663   2.887 -1.0404 -0.2760 -4.7227
   84SOL    HW2 1037   1.213   2.517   2.889  0.2672 -0.6516 -1.6121
   85SOL     OW 1038   2.679   2.100   0.687  0.4754  0.0041 -0.3189
   85SOL    HW1 1039   2.648   2.127   0.600 -1.2184 -0.0616  0.2346
   85SOL    HW2 1040   2.606   2.118   0.746  1.0707 -1.2822  0.8791
   86SOL     OW 1041   1.616   0.323   2.986  0.1504  0.5028 -0.7659
   86SOL    HW1 1042   1.599   0.231   2.964 -1.7531  0.4482  0.6884
   86SOL    HW2 1043   1.531   0.358   3.013  0.5884  3.0633 -2.3971
   87SOL     OW 1044   1.522   0.660   1.182  0.0310 -0.6778  0.0242
   87SOL    HW1 1045   1.603   0.623   1.219  0.2339 -1.1460 -0.8518
   87SOL    HW2 1046   1.498   0.730   1.242  1.7752  0.2971 -0.3617
   88SOL     OW 1047   2.523   1.795   3.238 -0.1616  0.9537 -0.2173
   88SOL    HW1 1048   2.548   1.877   3.195  2.4398  0.4350  0.1614
   88SOL    HW2 1049   2.509   1.819   3.330 -0.3349  1.1361 -0.2918
   89SOL     OW 1050   2.651   2.482   1.319  0.2483  0.3484  0.3625
   89SOL    HW1 1051   2.727   2.432   1.349 -0.3907 -0.4603  0.6372
   89SOL    HW2 1052   2.687   2.542   1.253  0.7377 -1.8483 -1.5035
   90SOL     OW 1053   2.368   1.013   3.030 -0.4311 -0.0440 -0.1366
   90SOL    HW1 1054   2.374   0.979   3.120 -0.5115 -0.6680 -0.3594
   90SOL    HW2 1055   2.296   0.964   2.991  1.5912 -2.1229 -1.5169
   91SOL     OW 1056   1.470   2.677   0.504 -0.4186  0.2762  0.4011
   91SOL    HW1 1057   1.531   2.733   0.551  2.3690 -0.5238 -1.9883
   91SOL    HW2 1058   1.501   2.588   0.521 -1.0246 -0.1714 -0.7155
   92SOL     OW 1059   0.644   2.883   1.644  0.2300  0.1654  0.1834
   92SOL    HW1 1060   0.595   2.827   1.703 -0.4232  1.4978  0.9706
   92SOL    HW2 1061   0.615   2.857   1.556  0.0564 -0.7934  0.5150
   93SOL     OW 1062   1.361   1.769   0.501  0.3736  0.2530 -0.4731
   93SOL    HW1 1063   1.297   1.840   0.492 -0.7540 -0.3848  1.6474
   93SOL    HW2 1064   1.443   1.813   0.521 -0.1126  1.0274 -0.0921
   94SOL     OW 1065   2.814   2.643   1.121  0.1791 -0.2285  0.9498
   94SOL    HW1 1066   2.891   2.657   1.067 -0.2655  0.7847  0.5501
   94SOL    HW2 1067   2.746   2.615   1.060 -0.2579  0.6739  1.0032
   95SOL     OW 1068   1.658   0.489   0.952 -0.5545  0.1150  0.0651
   95SOL    HW1 1069   1.572   0.452   0.972  0.5112 -1.2917  2.5399
   95SOL    HW2 1070   1.713   0.413   0.935  0.8260  0.7250  1.5064
   96SOL     OW 1071   2.493   3.170   2.094 -0.3550 -0.5400  0.4352
   96SOL    HW1 1072   2.575   3.158   2.141 -0.7384 -0.5058  1.1426
   96SOL    HW2 1073   2.428   3.186   2.164 -0.6470  1.2239 -0.1771
   97SOL     OW 1074   1.215   0.696   3.159 -0.8993  0.0106 -0.0979
   97SOL    HW1 1075   1.206   0.791   3.150 -0.7776  0.1071  0.7998
   97SOL    HW2 1076   1.127   0.666   3.183  0.0583  0.5951  5.4542
   98SOL     OW 1077   2.925   1.264   1.374  0.4817  0.4628  0.8515
   98SOL    HW1 1078   2.972   1.347   1.386 -0.0110  0.8552  0.1875
   98SOL    HW2 1079   2.832   1.289   1.378  0.3275  0.0338  0.1244
   99SOL     OW 1080   2.897   0.725   2.746 -0.5682 -0.1489  0.8639
   99SOL    HW1 1081   2.816   0.727   2.797 -0.1896  0.6645  1.4754
   99SOL    HW2 1082   2.879   0.780   2.670 -0.7738 -0.4302  0.7110
  100SOL     OW 1083   2.761   3.310   2.346  0.1307  0.2280 -0.2082
  100SOL    HW1 1084   2.685   3.369   2.344 -0.0908 -0.0585 -0.2799
  100SOL    HW2 1085   2.832   3.365   2.379 -0.3302  0.2422  0.8280
  101SOL     OW 1086   2.990   2.719   1.321  0.5331  0.7157  0.9012
  101SOL    HW1 1087   2.911   2.683   1.280  1.2308  0.9291 -0.6914
  101SOL    HW2 1088   3.059   2.658   1.298  1.1435  1.3934  0.9017
  102SOL     OW 1089   1.908   1.103   0.255  0.2262 -0.7576 -0.1288
  102SOL    HW1 1090   1.853   1.176   0.228  0.5726 -1.2071 -2.1929
  102SOL    HW2 1091   1.848   1.028   0.257  0.7092 -1.2720 -2.4984
  103SOL     OW 1092   3.338   2.748   2.797 -0.3629 -0.5673 -0.1192
  103SOL    HW1 1093   3.375   2.662   2.813 -0.6430 -1.0128 -1.6830
  103SOL    HW2 1094   3.394   2.787   2.730 -2.6586 -1.3238 -2.6800
  104SOL     OW 1095   2.032   2.691   2.144 -0.4915 -0.9913 -0.1697
  104SOL    HW1 1096   2.117   2.654   2.122  1.0996  0.8353  2.2421
  104SOL    HW2 1097   2.009   2.650   2.227 -1.3363 -0.5430 -0.1677
  105SOL     OW 1098   1.887   2.359   2.514  0.6914  0.3041 -0.1143
  105SOL    HW1 1099   1.858   2.268   2.519 -1.3860  0.7910 -1.8931
  105SOL    HW2 1100   1.957   2.359   2.450  1.8320 -0.2459  1.0902
  106SOL     OW 1101   1.685   1.068   0.951 -0.5223 -0.1061 -0.1390
  106SOL    HW1 1102   1.706   1.112   1.034 -1.5753 -0.5806  0.3956
  106SOL    HW2 1103   1.740   0.989   0.951  1.4588  1.1917 -1.1542
  107SOL     OW 1104   1.786   0.775   2.734  0.6964 -0.6179 -0.0847
  107SOL    HW1 1105   1.827   0.855   2.769 -1.6634  0.7286 -0.2031
  107SOL    HW2 1106   1.799   0.710   2.803  0.2780  0.6659  1.2787
  108SOL     OW 1107   1.608   3.362   1.610  0.6669 -0.4872 -0.3399
  108SOL    HW1 1108   1.647   3.369   1.522  0.0288  1.2648 -0.5102
  108SOL    HW2 1109   1.592   3.268   1.621  1.3677 -0.8134 -1.8291
  109SOL     OW 1110   2.135   2.404   3.149  0.7308 -0.4231  0.2358
  109SOL    HW1 1111   2.189   2.337   3.191  0.3146 -2.0629 -1.7069
  109SOL    HW2 1112   2.187   2.433   3.073 -0.0733 -0.2269 -0.2528
  110SOL     OW 1113   1.251   1.372   0.410  0.3838  0.4309 -0.4186
  110SOL    HW1 1114   1.278   1.415   0.492  0.2231 -2.5169  1.3331
  110SOL    HW2 1115   1.333   1.353   0.364  0.6616  0.0494  0.2173
  111SOL     OW 1116   1.446   1.871   1.850  0.1360 -0.3901  0.0136
  111SOL    HW1 1117   1.527   1.922   1.852 -0.0805 -0.0631  0.7910
  111SOL    HW2 1118   1.376   1.936   1.853 -0.1451 -0.7105  0.5906
  112SOL     OW 1119   2.126   2.770   2.837 -0.4702  0.2963 -0.4488
  112SOL    HW1 1120   2.109   2.857   2.873 -1.1597  0.0678 -0.2234
  112SOL    HW2 1121   2.175   2.788   2.756 -0.1445  0.8655 -0.1396
  113SOL     OW 1122   1.912   0.350   2.771 -0.1437  0.0016  0.0017
  113SOL    HW1 1123   1.896   0.397   2.689 -2.5047  2.7071  1.8529
  113SOL    HW2 1124   1.915   0.258   2.745 -2.9758  0.5636 -2.9174
  114SOL     OW 1125   2.180   0.592   2.883 -0.2181 -1.0959  0.0427
  114SOL    HW1 1126   2.130   0.648   2.943 -1.3323 -0.8714 -1.0800
  114SOL    HW2 1127   2.266   0.635   2.878  0.1032 -1.4260  1.8858
  115SOL     OW 1128   3.348   3.355   0.214  0.0067  0.2325  0.1096
  115SOL    HW1 1129   3.432   3.312   0.198  0.8718  1.9485 -0.2356
  115SOL    HW2 1130   3.283   3.287   0.197  1.2966 -0.9626 -0.2806
  116SOL     OW 1131   1.478   0.973   1.599 -0.6709  0.0127 -0.0082
  116SOL    HW1 1132   1.482   1.066   1.619 -0.5966 -0.6522  3.5813
  116SOL    HW2 1133   1.570   0.945   1.597 -0.6460  0.0805 -1.8971
  117SOL     OW 1134   3.255   3.023   1.428 -0.1264 -0.3156 -0.0591
  117SOL    HW1 1135   3.217   3.044   1.514  0.4890 -0.5726  0.2866
  117SOL    HW2 1136   3.339   2.982   1.449  0.2453  0.0449 -0.7964
  118SOL     OW 1137   2.965   1.246   3.190 -0.8972  0.2239  0.4291
  118SOL    HW1 1138   2.875   1.262   3.164 -1.1223 -0.5480  0.7141
  118SOL    HW2 1139   2.994   1.173   3.135  0.1032  1.5389 -0.8430
  119SOL     OW 1140   1.430   2.785   1.786 -0.2543 -0.0664  0.3366
  119SOL    HW1 1141   1.363   2.813   1.848 -0.3225 -1.8534  1.1530
  119SOL    HW2 1142   1.385   2.725   1.727  0.7723 -2.2249  1.6151
  120SOL     OW 1143   1.133   0.250   2.005  0.1605 -0.0852  0.4411
  120SOL    HW1 1144   1.137   0.157   1.985 -1.5319 -0.0950 -0.0155
  120SOL    HW2 1145   1.225   0.277   2.014  0.7450 -1.4432 -1.0027
  121SOL     OW 1146   3.262   2.170   0.743  0.1290 -0.2106  0.3945
  121SOL    HW1 1147   3.169   2.181   0.720 -0.0350 -0.6991  0.7998
  121SOL    HW2 1148   3.297   2.259   0.743 -0.1882 -0.0703 -0.3838
  122SOL     OW 1149   1.968   0.059   2.612 -0.0705  0.0083 -0.0854
  122SOL    HW1 1150   2.056   0.094   2.625 -0.8729  1.4839  1.7798
  122SOL    HW2 1151   1.931   0.114   2.543 -0.9152  2.2701  2.0286
  123SOL     OW 1152   3.300   1.295   1.452  0.0907 -0.5019 -0.5973
  123SOL    HW1 1153   3.323   1.259   1.538  3.4800  1.7498 -0.3858
  123SOL    HW2 1154   3.315   1.223   1.391 -0.7294 -1.6342  0.4828
  124SOL     OW 1155   2.807   0.294   2.383 -0.4121  0.2087  0.0116
  124SOL    HW1 1156   2.819   0.373   2.435 -1.6320 -0.1072  0.8119
  124SOL    HW2 1157   2.896   0.266   2.360  0.3777 -0.6994  3.5153
  125SOL     OW 1158   2.567   2.752   1.933 -0.4600  0.2052  1.1419
  125SOL    HW1 1159   2.629   2.767   2.005  1.8952 -2.0847 -0.2580
  125SOL    HW2 1160   2.539   2.840   1.908  2.7589  1.4658  1.4512
  126SOL     OW 1161   1.059   1.119   3.219  0.2284 -0.0456  0.2936
  126SOL    HW1 1162   1.011   1.076   3.290  1.5354 -0.6888  0.8203
  126SOL    HW2 1163   1.124   1.173   3.263  1.0562 -0.4549 -0.4043
  127SOL     OW 1164   1.210   2.895   3.155 -0.1195 -0.1077 -0.3120
  127SOL    HW1 1165   1.167   2.980   3.157  1.3491  0.6541  0.2581
  127SOL    HW2 1166   1.222   2.876   3.061  1.3184  1.2886 -0.4644
  128SOL     OW 1167   0.287   0.368   1.420 -0.1464 -0.4240  0.2541
  128SOL    HW1 1168   0.195   0.343   1.410 -0.3052  0.2488 -0.0583
  128SOL    HW2 1169   0.333   0.286   1.436 -0.5657 -0.9944 -1.2742
  129SOL     OW 1170   0.557   2.597   0.439  0.1545  0.2984 -0.1593
  129SOL    HW1 1171   0.612   2.522   0.414 -1.6757 -1.5546  1.0532
  129SOL    HW2 1172   0.493   2.604   0.369  0.3118  0.7256 -0.2600
  130SOL     OW 1173   1.594   3.015   1.710  0.0212 -0.8289  0.1364
  130SOL    HW1 1174   1.527   3.074   1.745  0.0357  0.8444 -2.4026
  130SOL    HW2 1175   1.567   2.928   1.740 -1.7038  0.1139  1.4930
  131SOL     OW 1176   2.153   2.415   0.805  0.4822  0.3042 -0.2428
  131SOL    HW1 1177   2.201   2.354   0.860  0.6099  1.6341  1.1687
  131SOL    HW2 1178   2.062   2.383   0.807  0.4592  0.4289  0.8702
  132SOL     OW 1179   2.433   3.132   2.493  0.3967 -0.6737 -0.4927
  132SOL    HW1 1180   2.511   3.145   2.546  1.6639 -0.1912 -2.4013
  132SOL    HW2 1181   2.391   3.218   2.491  2.2009  0.2736 -2.9833
  133SOL     OW 1182   0.051   2.495   2.884 -0.3212 -0.0634 -0.2713
  133SOL    HW1 1183   0.092   2.536   2.960  0.0627 -1.0932  0.0988
  133SOL    HW2 1184   0.121   2.446   2.842 -0.8041 -0.5147 -0.5700
  134SOL     OW 1185   1.667   0.006   1.110 -0.1745  0.2430 -0.4554
  134SOL    HW1 1186   1.675  -0.028   1.021 -0.9916  1.0913 -0.8774
  134SOL    HW2 1187   1.666   0.101   1.099 -0.4446  0.3528  0.4441
  135SOL     OW 1188   1.522   1.860   1.025 -0.2459 -0.5408  0.0538
  135SOL    HW1 1189   1.439   1.820   0.998 -0.6349  1.4992 -2.1435
  135SOL    HW2 1190   1.503   1.954   1.027  1.7360 -0.1148  0.6271
  136SOL     OW 1191   1.596   0.280   0.079 -0.0518  0.2668 -0.8196
  136SOL    HW1 1192   1.641   0.352   0.035  0.2397  0.7023  0.1605
  136SOL    HW2 1193   1.568   0.222   0.008  0.4657  0.9069 -1.5638
  137SOL     OW 1194   2.654   0.957   3.020  0.4201  0.0270  0.6475
  137SOL    HW1 1195   2.561   0.979   3.017  0.2241 -0.8194  0.3220
  137SOL    HW2 1196   2.661   0.874   2.973  1.0921 -0.7732  2.0940
  138SOL     OW 1197   2.089   1.066   2.798 -0.5050 -0.1729  0.3712
  138SOL    HW1 1198   2.056   1.032   2.881 -1.6491 -1.3990 -0.5488
  138SOL    HW2 1199   2.138   0.993   2.760  0.9514  0.7375  0.4454
  139SOL     OW 1200   0.983   0.458   2.093  0.0045  0.2712  0.0920
  139SOL    HW1 1201   1.051   0.521   2.070  0.7597 -0.5972 -0.0816
  139SOL    HW2 1202   1.015   0.374   2.061 -1.7842  0.0394 -1.2790
  140SOL     OW 1203   1.329   0.494   3.349  0.3779 -0.0056  0.0302
  140SOL    HW1 1204   1.239   0.471   3.372  0.4191  0.0003  0.1942
  140SOL    HW2 1205   1.379   0.415   3.368  0.6379  0.4368  1.2657
  141SOL     OW 1206   0.639   2.716   3.208 -0.2722  0.2447  0.0504
  141SOL    HW1 1207   0.583   2.777   3.160 -0.2595  0.3749  0.1989
  141SOL    HW2 1208   0.647   2.755   3.295 -0.6215 -0.1855  0.2803
  142SOL     OW 1209   1.437   1.588   1.679 -0.2320 -0.1968  0.3723
  142SOL    HW1 1210   1.456   1.673   1.718 -2.8431  1.0408 -0.8764
  142SOL    HW2 1211   1.453   1.599   1.585 -1.2157 -0.8504  0.1032
  143SOL     OW 1212   2.230   0.223   2.417 -0.3580  0.5494  0.6518
  143SOL    HW1 1213   2.186   0.297   2.375 -0.2861  0.3644  0.2439
  143SOL    HW2 1214   2.303   0.261   2.465  0.3692  0.6265 -0.4918
  144SOL     OW 1215   1.414   2.496   2.005  0.5320  0.0843 -0.5241
  144SOL    HW1 1216   1.320   2.498   1.987  0.2303 -0.1592  0.9210
  144SOL    HW2 1217   1.440   2.406   1.987 -0.1309 -0.6401  1.8424
  145SOL     OW 1218   1.226   0.202   2.448 -0.6681 -0.2262 -0.0580
  145SOL    HW1 1219   1.316   0.201   2.417 -0.5072 -3.1278  0.2211
  145SOL    HW2 1220   1.182   0.266   2.392  1.4442  1.0504 -0.3871
  146SOL     OW 1221   0.225   3.025   2.674  0.2144 -0.1928 -0.0532
  146SOL    HW1 1222   0.165   2.970   2.624  0.1122 -0.1431  0.0132
  146SOL    HW2 1223   0.175   3.105   2.690 -0.7318 -1.1685  2.3409
  147SOL     OW 1224   3.232   0.212   0.135  0.1455  0.0569 -0.4699
  147SOL    HW1 1225   3.285   0.151   0.187 -0.6486 -0.9847 -0.8588
  147SOL    HW2 1226   3.204   0.278   0.198  2.1673  0.8451 -0.3129
  148SOL     OW 1227   2.317   2.652   1.989 -0.5184  1.0265 -0.0028
  148SOL    HW1 1228   2.397   2.698   1.962  1.4699 -2.2671 -0.2435
  148SOL    HW2 1229   2.333   2.626   2.079 -0.1093 -1.8693 -0.8257
  149SOL     OW 1230   2.304   1.572   0.469 -0.4623 -0.1689  0.2388
  149SOL    HW1 1231   2.365   1.644   0.481 -1.2161  0.3563  1.0287
  149SOL    HW2 1232   2.314   1.519   0.548 -1.1176  0.0003  0.4422
  150SOL     OW 1233   0.988   2.756   0.719 -0.1263 -0.7107  0.1403
  150SOL    HW1 1234   0.962   2.757   0.627 -1.9982 -1.5229  0.6304
  150SOL    HW2 1235   0.918   2.802   0.765  1.3748  0.7684  1.0627
  151SOL     OW 1236   0.710   3.179   1.631 -0.1564 -0.3485 -0.7180
  151SOL    HW1 1237   0.732   3.195   1.539 -1.5642  1.0888 -0.8571
  151SOL    HW2 1238   0.693   3.085   1.636  1.1399 -0.6542 -1.6410
  152SOL     OW 1239   2.868   0.392   2.833  0.2159 -0.1170 -0.2064
  152SOL    HW1 1240   2.834   0.389   2.923 -0.0229 -3.4995 -0.2973
  152SOL    HW2 1241   2.962   0.406   2.844  0.1538 -0.2334  0.5354
  153SOL     OW 1242   0.735   0.558   2.812 -0.5782 -0.4519 -0.5348
  153SOL    HW1 1243   0.825   0.534   2.836 -1.0056 -1.4804  0.0617
  153SOL    HW2 1244   0.745   0.643   2.769  0.2871  1.4182  2.9828
  154SOL     OW 1245   2.381   1.957   0.649 -0.5320 -0.1807  0.0773
  154SOL    HW1 1246   2.434   1.894   0.600  1.0594  0.9984  0.2269
  154SOL    HW2 1247   2.334   2.006   0.582  2.0235  1.7746 -0.4425
  155SOL     OW 1248   0.848   3.244   3.025  0.0127  0.1442  0.6432
  155SOL    HW1 1249   0.878   3.272   2.939  0.3808 -0.6503  0.5059
  155SOL    HW2 1250   0.792   3.316   3.055 -0.7856  0.0882 -0.6049
  156SOL     OW 1251   1.416   2.281   0.033  0.1861 -0.1195  0.2585
  156SOL    HW1 1252   1.372   2.299  -0.050  0.5304  1.0539  0.3217
  156SOL    HW2 1253   1.457   2.364   0.058  1.8157 -0.9650  0.5697
  157SOL     OW 1254   2.429   2.900   2.317  0.1216  0.1856  0.0939
  157SOL    HW1 1255   2.501   2.875   2.259 -0.3587  1.5046 -1.1274
  157SOL    HW2 1256   2.442   2.994   2.332 -1.9533  0.7396 -1.1283
  158SOL     OW 1257   3.366   0.280   0.396  0.0339 -0.4537  0.2045
  158SOL    HW1 1258   3.434   0.221   0.429  1.0724  2.0756  3.1023
  158SOL    HW2 1259   3.306   0.290   0.470 -0.7478  1.1493 -0.6006
  159SOL     OW 1260   2.089   1.469   0.789  0.1921 -0.7765 -0.2698
  159SOL    HW1 1261   2.101   1.561   0.764  1.1597 -1.1530 -1.2881
  159SOL    HW2 1262   1.996   1.463   0.813 -0.6082 -0.0884 -2.7970
  160SOL     OW 1263   1.750   3.112   0.543  0.1854  0.0699 -0.1645
  160SOL    HW1 1264   1.743   3.181   0.478  1.2584  1.0872  0.7611
  160SOL    HW2 1265   1.766   3.032   0.492 -1.3048  0.4248 -1.2620
  161SOL     OW 1266   2.908   3.356   2.057  0.7928  0.0354  0.2462
  161SOL    HW1 1267   2.835   3.401   2.098  0.5168 -0.5316  0.3817
  161SOL    HW2 1268   2.941   3.419   1.992 -0.1713  0.0742 -0.2222
  162SOL     OW 1269   2.325   1.621   0.136  0.2797 -0.5313  0.0332
  162SOL    HW1 1270   2.396   1.684   0.145 -0.1507  0.3646 -2.1792
  162SOL    HW2 1271   2.246   1.674   0.123 -0.7608 -1.5051  1.8754
  163SOL     OW 1272   1.794   2.595   2.414  0.2975  0.1911  0.0208
  163SOL    HW1 1273   1.877   2.642   2.423  1.2755 -1.3620 -0.4495
  163SOL    HW2 1274   1.814   2.506   2.443 -1.3704 -0.0806  0.4436
  164SOL     OW 1275   1.804   0.138   1.947  0.1947 -0.0479  0.4994
  164SOL    HW1 1276   1.754   0.218   1.966  2.4417  2.1309 -1.8752
  164SOL    HW2 1277   1.846   0.115   2.029  0.6017  2.0967  0.9447
  165SOL     OW 1278   0.764   0.278   1.976  0.0352  0.0591 -0.4149
  165SOL    HW1 1279   0.744   0.308   1.888  1.4377  0.5862 -0.5703
  165SOL    HW2 1280   0.832   0.337   2.008 -0.6899  0.1074  1.1696
  166SOL     OW 1281   2.298   1.341   0.950  0.3208 -0.1163 -0.8475
  166SOL    HW1 1282   2.205   1.355   0.933  0.6565 -0.2996 -3.0814
  166SOL    HW2 1283   2.332   1.428   0.972 -0.2888  0.0159 -0.3954
  167SOL     OW 1284   1.622   2.966   1.443 -0.2634  0.1270 -0.0141
  167SOL    HW1 1285   1.605   3.057   1.417  1.0744  0.4303  0.0833
  167SOL    HW2 1286   1.596   2.961   1.535  0.0606  0.5343  0.1005
  168SOL     OW 1287   0.206   2.872   0.980  0.3874  0.4467 -0.7636
  168SOL    HW1 1288   0.271   2.940   0.997 -0.5224  1.4795 -1.3366
  168SOL    HW2 1289   0.147   2.875   1.056 -0.0078  0.7180 -1.0806
  169SOL     OW 1290   0.852   2.781   2.363  0.2736  0.6973 -0.2546
  169SOL    HW1 1291   0.928   2.778   2.421 -0.3036 -0.6287  0.4853
  169SOL    HW2 1292   0.789   2.720   2.403 -1.3726  2.1129 -0.5813
  170SOL     OW 1293   0.189   1.013   0.745 -0.2114  0.4896  0.4198
  170SOL    HW1 1294   0.216   1.070   0.818 -0.3896  1.0078  0.0860
  170SOL    HW2 1295   0.099   1.041   0.725  0.0415  0.7475 -0.3819
  171SOL     OW 1296   0.429   0.935   0.397 -0.4615  0.1350  0.2214
  171SOL    HW1 1297   0.483   0.976   0.464 -0.9864 -0.0002  0.7354
  171SOL    HW2 1298   0.428   0.998   0.324 -0.1778  0.4390  0.4808
  172SOL     OW 1299   2.142   2.632   1.770  0.0077  0.0918 -0.1918
  172SOL    HW1 1300   2.152   2.721   1.735 -1.6686  0.0380 -0.9047
  172SOL    HW2 1301   2.221   2.618   1.822  1.7671  0.8666 -2.4685
  173SOL     OW 1302   1.804   3.236   1.818  0.2544 -0.3204 -0.0676
  173SOL    HW1 1303   1.799   3.149   1.778  0.1691 -0.1730 -0.3786
  173SOL    HW2 1304   1.868   3.226   1.889  0.4955 -0.5543 -0.3133
  174SOL     OW 1305   1.594   3.164   2.476  0.2092 -0.0749 -0.6450
  174SOL    HW1 1306   1.523   3.222   2.448 -0.4761 -0.8531 -0.5718
  174SOL    HW2 1307   1.593   3.170   2.572 -0.1386 -0.5059 -0.6154
  175SOL     OW 1308   2.602   1.490   1.143  0.2607 -0.0479 -0.0107
  175SOL    HW1 1309   2.524   1.526   1.100  1.0001 -0.0774 -1.4379
  175SOL    HW2 1310   2.614   1.404   1.103 -0.6456 -1.3450  2.3234
  176SOL     OW 1311   1.022   0.644   2.605 -0.5433 -0.1947 -0.3406
  176SOL    HW1 1312   1.051   0.633   2.514  0.8586  0.4201  0.0078
  176SOL    HW2 1313   1.080   0.586   2.655 -0.2768  0.6138  0.3131
  177SOL     OW 1314   1.474   1.972   2.588  0.5536  0.0614 -0.0383
  177SOL    HW1 1315   1.537   1.948   2.521  0.3356 -0.7600  0.0424
  177SOL    HW2 1316   1.436   2.054   2.557  1.4845  0.4473 -0.1980
  178SOL     OW 1317   0.111   2.574   0.279 -0.0913  0.0702  0.5408
  178SOL    HW1 1318   0.104   2.522   0.199 -0.8794 -0.5108  0.9708
  178SOL    HW2 1319   0.175   2.527   0.332  0.4363  0.4592  0.2578
  179SOL     OW 1320   1.641   0.816   0.481 -0.0562  0.5666 -0.2655
  179SOL    HW1 1321   1.620   0.774   0.564  0.6530  3.2856  1.4298
  179SOL    HW2 1322   1.725   0.776   0.455 -0.8735 -1.1720 -0.3855
  180SOL     OW 1323   2.157   1.844   1.408 -0.0861 -0.2401 -0.2344
  180SOL    HW1 1324   2.094   1.899   1.456 -1.6899 -1.0273 -1.3605
  180SOL    HW2 1325   2.189   1.781   1.473 -1.5974 -0.7704  0.0203
  181SOL     OW 1326   1.538   2.413   0.565 -0.0046 -0.0150 -0.0071
  181SOL    HW1 1327   1.589   2.396   0.644 -0.7427 -1.1901  0.2376
  181SOL    HW2 1328   1.587   2.371   0.495  0.4406  0.6781 -0.1178
  182SOL     OW 1329   0.234   0.738   0.817  0.3018 -0.8552  0.0985
  182SOL    HW1 1330   0.313   0.715   0.767  1.2840  1.5423  0.4149
  182SOL    HW2 1331   0.212   0.826   0.787 -0.0699  0.0008  2.6537
  183SOL     OW 1332   0.127   0.699   0.217  0.2255  0.0183 -0.3012
  183SOL    HW1 1333   0.213   0.693   0.174  0.0561  0.6748 -0.7502
  183SOL    HW2 1334   0.137   0.771   0.279 -0.2349  0.6292 -0.9229
  184SOL     OW 1335   3.081   1.692   0.604  0.1020 -0.2736 -0.0792
  184SOL    HW1 1336   3.013   1.757   0.617 -0.7095 -0.8899 -1.0915
  184SOL    HW2 1337   3.076   1.636   0.682 -0.6543 -0.3954 -0.2071
  185SOL     OW 1338   3.265   3.044   2.441 -0.8211 -0.4323 -0.5114
  185SOL    HW1 1339   3.298   2.972   2.494 -0.3861  0.2727  0.2035
  185SOL    HW2 1340   3.240   3.003   2.358  2.7688 -0.9476 -1.5507
  186SOL     OW 1341   0.482   1.725   0.155 -0.7185 -0.0797 -0.0620
  186SOL    HW1 1342   0.520   1.746   0.241 -1.1781 -0.7445  0.3189
  186SOL    HW2 1343   0.428   1.801   0.133 -0.5228  0.1355  0.1974
  187SOL     OW 1344   0.861   1.642   3.287  0.2911  0.0272 -0.6342
  187SOL    HW1 1345   0.943   1.644   3.237  1.8086 -0.2274  1.7090
  187SOL    HW2 1346   0.842   1.549   3.299  1.6864 -0.0069  1.8512
  188SOL     OW 1347   1.343   3.136   3.002  0.5517  0.4231  0.1172
  188SOL    HW1 1348   1.398   3.169   3.073  1.3955 -0.9161  0.1221
  188SOL    HW2 1349   1.396   3.068   2.960 -0.1409  0.8083 -1.4663
  189SOL     OW 1350   2.688   1.085   0.021  0.3400  0.3679 -0.0109
  189SOL    HW1 1351   2.702   1.136  -0.059  1.7722 -1.3319 -0.9382
  189SOL    HW2 1352   2.775   1.076   0.059  0.1536 -1.3189  0.1079
  190SOL     OW 1353   1.588   2.179   0.821  0.1769 -0.0987  0.5643
  190SOL    HW1 1354   1.513   2.188   0.879  0.5840 -0.0983  1.0938
  190SOL    HW2 1355   1.628   2.266   0.820 -0.1934  0.0716 -0.2242
  191SOL     OW 1356   2.375   1.589   1.048 -0.3626 -0.5544  0.0631
  191SOL    HW1 1357   2.386   1.648   0.973  0.3985  1.3143  1.5877
  191SOL    HW2 1358   2.294   1.619   1.090  1.2295  1.0431  2.1847
  192SOL     OW 1359   1.557   2.235   2.982  0.1566 -0.6927  0.1125
  192SOL    HW1 1360   1.475   2.206   2.942  1.4017 -2.7302 -1.1806
  192SOL    HW2 1361   1.567   2.325   2.954 -1.2219 -0.6727 -0.4042
  193SOL     OW 1362   1.574   2.787   3.096 -0.1189  0.0483 -0.1898
  193SOL    HW1 1363   1.536   2.700   3.107  1.3737 -0.5424  0.5410
  193SOL    HW2 1364   1.581   2.822   3.184  0.7178  0.2712 -0.3352
  194SOL     OW 1365   0.867   0.865   3.074  0.5726  0.3300 -0.4996
  194SOL    HW1 1366   0.923   0.814   3.016  0.3217  1.0469 -1.3941
  194SOL    HW2 1367   0.781   0.863   3.034  0.4727  1.1204 -0.3469
  195SOL     OW 1368   1.835   1.330   0.599 -0.4113  0.3762  0.2443
  195SOL    HW1 1369   1.785   1.254   0.568 -1.5956  0.9160  0.7508
  195SOL    HW2 1370   1.777   1.404   0.583  0.9791  1.2686 -0.8185
  196SOL     OW 1371   2.951   1.054   2.400  0.2723  0.0529  0.0056
  196SOL    HW1 1372   3.036   1.096   2.414 -0.5874  1.9455 -0.1690
  196SOL    HW2 1373   2.914   1.044   2.488 -1.5445  4.2355 -0.0485
  197SOL     OW 1374   1.699   2.425   1.758 -0.3423 -0.2809 -0.4638
  197SOL    HW1 1375   1.777   2.468   1.722  0.6371 -1.4531  0.1892
  197SOL    HW2 1376   1.719   2.332   1.754 -1.3347 -0.5604  0.5556
  198SOL     OW 1377   2.859   2.382   0.906 -0.2528  0.1269  0.4060
  198SOL    HW1 1378   2.775   2.428   0.908 -1.2325 -1.6261  1.2018
  198SOL    HW2 1379   2.850   2.311   0.970  3.5720  2.7034  4.3670
  199SOL     OW 1380   0.294   3.193   3.182  0.0463 -0.1085 -0.6344
  199SOL    HW1 1381   0.306   3.194   3.087 -0.6343 -0.6954 -0.7316
  199SOL    HW2 1382   0.200   3.181   3.194 -0.0455  1.2596  0.1161
  200SOL     OW 1383   1.649   2.182   3.260  0.1360 -0.0133  0.1087
  200SOL    HW1 1384   1.617   2.196   3.171  1.4289 -1.5496 -0.6472
  200SOL    HW2 1385   1.571   2.189   3.315 -0.6743  1.0424 -1.1136
  201SOL     OW 1386   1.857   2.945   2.152  0.2668  0.2837 -0.6986
  201SOL    HW1 1387   1.918   3.002   2.105 -0.6538  2.5382  0.6525
  201SOL    HW2 1388   1.893   2.857   2.141  2.4361  1.2359 -1.9224
  202SOL     OW 1389   2.278   1.926   3.182 -0.4292 -0.1831  0.2177
  202SOL    HW1 1390   2.229   1.982   3.121 -0.0767  1.6563  1.5330
  202SOL    HW2 1391   2.370   1.943   3.161 -0.2994  0.5482  1.2624
  203SOL     OW 1392   0.455   2.905   3.120 -0.4753 -0.3279 -0.0564
  203SOL    HW1 1393   0.386   2.900   3.055 -0.0329 -0.8504 -0.4915
  203SOL    HW2 1394   0.475   2.999   3.127 -0.3099 -0.2938 -0.9085
  204SOL     OW 1395   1.739   1.118   2.152  0.3185  0.0680 -0.3530
  204SOL    HW1 1396   1.652   1.137   2.117  1.0826  0.5933 -2.0849
  204SOL    HW2 1397   1.746   1.023   2.149  0.1269  0.0672 -1.0826
  205SOL     OW 1398   2.543   0.163   2.398  0.4219 -0.9568 -0.0035
  205SOL    HW1 1399   2.510   0.235   2.451 -0.2710 -0.1264 -1.4955
  205SOL    HW2 1400   2.617   0.201   2.350  0.1355 -1.2534 -0.6992
  206SOL     OW 1401   1.894   0.244   2.395 -0.1159 -0.4031 -0.2008
  206SOL    HW1 1402   1.818   0.299   2.417  1.1469  0.7296  1.5671
  206SOL    HW2 1403   1.957   0.305   2.356  0.6771 -0.9007  0.2726
  207SOL     OW 1404   2.247   0.649   2.212  0.4416  0.4921  0.0305
  207SOL    HW1 1405   2.206   0.687   2.133 -2.3913 -1.4209  0.4031
  207SOL    HW2 1406   2.300   0.577   2.178 -0.1403  0.1675 -0.2156
  208SOL     OW 1407   3.274   2.654   3.366  0.0591 -0.3310 -0.5804
  208SOL    HW1 1408   3.201   2.673   3.425  0.4454 -0.1489 -0.1492
  208SOL    HW2 1409   3.239   2.668   3.278 -0.0608  1.0373 -0.3298
  209SOL     OW 1410   0.841   1.349   3.262 -0.5103 -0.2574  0.3048
  209SOL    HW1 1411   0.915   1.305   3.221 -0.2138  1.2051 -0.8160
  209SOL    HW2 1412   0.771   1.285   3.262  0.8704 -1.8953  1.9255
  210SOL     OW 1413   0.589   0.551   3.032  0.4561  0.4554 -0.1555
  210SOL    HW1 1414   0.539   0.470   3.020 -1.9596  1.6750  1.0719
  210SOL    HW2 1415   0.637   0.561   2.950 -1.0818 -0.9675 -1.3167
  211SOL     OW 1416   0.088   2.814   3.176 -0.7613 -0.2279  0.3687
  211SOL    HW1 1417   0.146   2.857   3.113  0.1027 -1.5420  0.2242
  211SOL    HW2 1418   0.002   2.817   3.135  0.1838 -3.6051 -2.4132
  212SOL     OW 1419   2.111   1.752   0.708 -0.2066  0.0443  0.3085
  212SOL    HW1 1420   2.020   1.777   0.694  0.1395  1.1415 -0.1339
  212SOL    HW2 1421   2.160   1.804   0.643  1.0908  2.2055  2.8357
  213SOL     OW 1422   1.044   2.114   3.337  0.3571  0.8807 -0.2698
  213SOL    HW1 1423   1.125   2.139   3.293  0.6593  0.8719  0.2799
  213SOL    HW2 1424   1.059   2.135   3.429  0.5939 -1.2727  0.2211
  214SOL     OW 1425   3.184   1.325   1.174 -0.4306 -0.1726 -0.2088
  214SOL    HW1 1426   3.259   1.331   1.115 -0.9035  3.3922 -0.7022
  214SOL    HW2 1427   3.220   1.339   1.261 -0.0895 -2.7207  0.1376
  215SOL     OW 1428   1.277   2.075   3.183  0.9609  0.3154  0.2425
  215SOL    HW1 1429   1.276   2.131   3.105  2.4749  0.8338  0.5684
  215SOL    HW2 1430   1.334   2.002   3.159  2.2104  0.9597  1.1582
  216SOL     OW 1431   1.984   2.472   0.142 -0.1369  0.2708 -0.2298
  216SOL    HW1 1432   1.962   2.417   0.218  1.7670  1.1049  1.0195
  216SOL    HW2 1433   1.944   2.428   0.068  0.4026 -2.2445  0.8592
  217SOL     OW 1434   1.318   1.911   0.236  0.1057  0.0671  0.1773
  217SOL    HW1 1435   1.347   1.897   0.146 -1.5550  1.0121 -0.5590
  217SOL    HW2 1436   1.366   1.988   0.266  0.7077 -0.2863  0.1239
  218SOL     OW 1437   2.364   2.961   1.390  0.3317  0.0901  0.5007
  218SOL    HW1 1438   2.399   2.874   1.411  0.6035 -0.7457 -2.9506
  218SOL    HW2 1439   2.418   2.993   1.318 -2.4426  1.1731 -1.2815
  219SOL     OW 1440   1.791   2.983   0.854 -0.6010 -0.0502  0.0587
  219SOL    HW1 1441   1.882   2.987   0.823 -0.0418 -1.8356  1.3373
  219SOL    HW2 1442   1.781   3.062   0.908 -0.1752  0.7044 -0.9226
  220SOL     OW 1443   2.800   1.781   0.044  0.4246 -0.5284 -0.1287
  220SOL    HW1 1444   2.849   1.776   0.127 -1.1193 -1.2013  0.7844
  220SOL    HW2 1445   2.814   1.696   0.003  0.3058 -0.5900 -0.0411
  221SOL     OW 1446   1.215   2.836   2.888 -0.6165  0.1001 -0.2028
  221SOL    HW1 1447   1.150   2.900   2.859 -0.5251 -0.4250 -1.6642
  221SOL    HW2 1448   1.299   2.872   2.857 -0.4273 -0.1497  0.0123
  222SOL     OW 1449   2.102   0.355   2.998  0.4193 -0.3285 -0.7208
  222SOL    HW1 1450   2.186   0.364   3.044 -0.0847  2.5996 -0.1405
  222SOL    HW2 1451   2.109   0.415   2.924 -0.6596 -1.1354 -1.5031
  223SOL     OW 1452   1.780   2.127   2.857 -0.1547  0.3547 -0.2482
  223SOL    HW1 1453   1.701   2.153   2.904 -0.1527  1.0684 -0.6185
  223SOL    HW2 1454   1.851   2.176   2.899  0.7200 -2.8231  2.3843
  224SOL     OW 1455   1.264   3.347   2.855 -0.1068  0.0052  0.3453
  224SOL    HW1 1456   1.219   3.379   2.933  1.5370  0.7603  1.0310
  224SOL    HW2 1457   1.310   3.269   2.884 -1.7771 -1.4269 -0.6257
  225SOL     OW 1458   1.760   3.135   3.121  0.4255  0.4341  0.3999
  225SOL    HW1 1459   1.728   3.110   3.034 -0.5328 -0.8458  1.0932
  225SOL    HW2 1460   1.830   3.198   3.103 -0.5561  1.1278 -1.2618
  226SOL     OW 1461   2.630   1.430   0.402 -0.1123 -0.2335  0.1942
  226SOL    HW1 1462   2.700   1.446   0.339 -0.2263 -0.3646  0.0347
  226SOL    HW2 1463   2.600   1.517   0.428  0.0919 -0.1766  0.2451
  227SOL     OW 1464   1.165   1.568   1.668 -0.3166 -0.2122 -0.0909
  227SOL    HW1 1465   1.134   1.603   1.752 -0.6859 -1.6767  0.4298
  227SOL    HW2 1466   1.260   1.569   1.675 -0.3423 -0.0978  0.2620
  228SOL     OW 1467   1.643   0.662   0.721  0.3441 -0.2326 -0.0139
  228SOL    HW1 1468   1.636   0.711   0.803  0.1023 -0.3647  0.0480
  228SOL    HW2 1469   1.664   0.573   0.749  0.1177 -0.3092 -0.0856
  229SOL     OW 1470   2.488   2.678   1.396 -0.2110 -0.0562 -0.6850
  229SOL    HW1 1471   2.517   2.590   1.373  0.0753 -0.8808  2.4491
  229SOL    HW2 1472   2.533   2.698   1.478 -0.6159  2.8644 -1.0598
  230SOL     OW 1473   2.061   1.371   0.479 -0.3678  0.0623 -0.6482
  230SOL    HW1 1474   2.139   1.324   0.509 -0.2131  0.3938 -0.5308
  230SOL    HW2 1475   1.990   1.337   0.534 -0.4080 -0.6331 -1.1147
  231SOL     OW 1476   1.075   1.792   0.289  0.0300  0.1346  0.6135
  231SOL    HW1 1477   1.090   1.777   0.382  1.8624  0.4707  0.4169
  231SOL    HW2 1478   1.158   1.826   0.256  0.2752 -2.1992 -1.6041
  232SOL     OW 1479   1.954   2.396   2.791 -0.5921 -0.1077  0.1699
  232SOL    HW1 1480   1.921   2.477   2.829 -0.4640  0.3326 -0.6396
  232SOL    HW2 1481   1.920   2.396   2.701 -1.2752 -1.3513  0.4010
  233SOL     OW 1482   3.135   0.817   1.989  0.4046  0.1544 -0.2997
  233SOL    HW1 1483   3.179   0.901   1.974  0.6860  0.1898  0.6477
  233SOL    HW2 1484   3.160   0.793   2.078 -1.1405 -0.0487  0.0973
  234SOL     OW 1485   0.091   1.107   1.269 -0.1766  0.4758 -0.6117
  234SOL    HW1 1486   0.161   1.151   1.318 -1.9735  0.9415  1.6845
  234SOL    HW2 1487   0.095   1.016   1.299 -1.7826  0.9261  1.1131
  235SOL     OW 1488   0.133   0.534   2.149 -0.3888 -0.1920  0.1048
  235SOL    HW1 1489   0.203   0.549   2.085  0.3572  1.5403  1.2386
  235SOL    HW2 1490   0.085   0.459   2.115  2.3379 -1.8221 -0.4521
  236SOL     OW 1491   3.030   2.900   2.851  0.5082 -1.0323  0.9573
  236SOL    HW1 1492   3.011   2.983   2.895  0.3614 -0.9300  0.7005
  236SOL    HW2 1493   3.106   2.919   2.796 -2.6118  0.5091 -3.3763
  237SOL     OW 1494   2.473   2.627   2.603 -0.0750 -0.2218 -0.4039
  237SOL    HW1 1495   2.521   2.697   2.646 -1.4166 -0.8894  2.4989
  237SOL    HW2 1496   2.394   2.669   2.569 -0.4661 -0.1220  0.5775
  238SOL     OW 1497   0.398   0.031   0.379  0.0495  0.3655 -0.4638
  238SOL    HW1 1498   0.472   0.083   0.409 -0.2915  0.0618  1.0201
  238SOL    HW2 1499   0.372   0.070   0.296  0.9589  1.3756 -0.2904
  239SOL     OW 1500   2.426   0.703   2.435  0.2772 -0.4529  0.0404
  239SOL    HW1 1501   2.419   0.648   2.357 -0.9047  1.7748 -1.5333
  239SOL    HW2 1502   2.345   0.754   2.436  1.4800  1.5613  1.1499
  240SOL     OW 1503   1.141   0.420   2.321 -1.0843 -0.3046  0.4039
  240SOL    HW1 1504   1.079   0.425   2.249  0.3260 -0.5529 -0.8910
  240SOL    HW2 1505   1.207   0.487   2.301  0.4133 -1.7200  0.3139
  241SOL     OW 1506   0.698   2.345   0.459  0.0809 -0.3046  0.0635
  241SOL    HW1 1507   0.692   2.309   0.371 -0.0840 -0.2445  0.0504
  241SOL    HW2 1508   0.787   2.379   0.465 -0.0464  0.0910 -0.2364
  242SOL     OW 1509   2.280   2.835   2.549 -0.2846 -0.1730 -0.3800
  242SOL    HW1 1510   2.275   2.913   2.605  0.9619  0.6488 -1.3478
  242SOL    HW2 1511   2.303   2.869   2.463 -1.8153 -1.4512 -1.3377
  243SOL     OW 1512   2.690   2.464   3.080 -0.2170 -0.1578 -0.1491
  243SOL    HW1 1513   2.646   2.538   3.039 -1.0793 -0.0415  0.9254
  243SOL    HW2 1514   2.782   2.473   3.055  0.0594  2.3483  1.4734
  244SOL     OW 1515   1.913   1.532   0.132  0.1830 -0.0122  0.0383
  244SOL    HW1 1516   1.901   1.608   0.075  0.0973  0.5430  0.7760
  244SOL    HW2 1517   1.834   1.480   0.120  0.3414 -0.1123 -0.6430
  245SOL     OW 1518   0.880   3.120   0.709  0.2543  0.2504 -0.0918
  245SOL    HW1 1519   0.917   3.134   0.796  3.1348 -3.1337 -0.5520
  245SOL    HW2 1520   0.818   3.048   0.722 -0.5290  0.8141 -0.6210
  246SOL     OW 1521   2.144   1.172   0.699  0.5439 -0.0171 -0.3886
  246SOL    HW1 1522   2.217   1.163   0.760 -0.9100 -0.4851  1.3754
  246SOL    HW2 1523   2.105   1.257   0.721  2.1499  1.6262 -3.2497
  247SOL     OW 1524   2.718   0.919   2.643  0.0620 -0.1401  0.2430
  247SOL    HW1 1525   2.737   1.012   2.632 -0.6663 -0.1144 -0.9162
  247SOL    HW2 1526   2.629   0.916   2.676 -0.5717 -0.4378 -1.3737
  248SOL     OW 1527   0.179   0.514   0.505  0.0528  0.8141 -0.2433
  248SOL    HW1 1528   0.210   0.605   0.502  1.6111  0.3186  0.1714
  248SOL    HW2 1529   0.173   0.494   0.599  0.0018  0.3880 -0.3369
  249SOL     OW 1530   0.965   0.635   2.938 -0.4356  1.0114 -0.2588
  249SOL    HW1 1531   1.013   0.587   3.005  0.0360 -1.9409 -2.5246
  249SOL    HW2 1532   1.033   0.673   2.882 -0.6951 -0.3547 -1.5630
  250SOL     OW 1533   2.289   2.222   3.290  0.4927 -0.0282  0.0389
  250SOL    HW1 1534   2.270   2.128   3.295  0.7454 -0.4425 -3.8071
  250SOL    HW2 1535   2.383   2.228   3.304  0.1196  0.1697  3.3715
  251SOL     OW 1536   1.567   2.892   3.367  0.2460  0.3693 -0.5182
  251SOL    HW1 1537   1.649   2.932   3.394 -0.5725  1.6867  0.1410
  251SOL    HW2 1538   1.564   2.809   3.414  2.3799 -1.0105 -2.5724
  252SOL     OW 1539   3.328   0.602   1.872 -0.1817  0.1353 -0.1981
  252SOL    HW1 1540   3.234   0.614   1.882 -0.5424 -1.1006 -1.6525
  252SOL    HW2 1541   3.343   0.509   1.888  0.6273  0.1318 -0.8628
  253SOL     OW 1542   1.859   2.441   1.285  0.5988 -0.1519 -0.0043
  253SOL    HW1 1543   1.822   2.523   1.318 -0.8361 -0.3391 -1.0280
  253SOL    HW2 1544   1.928   2.469   1.225 -1.3192  0.4750 -2.0750
  254SOL     OW 1545   0.956   3.041   2.374 -0.3849  0.1091  0.0970
  254SOL    HW1 1546   0.929   2.951   2.354  1.9296 -0.0219 -3.2390
  254SOL    HW2 1547   1.028   3.031   2.436  0.8213 -0.5311 -1.3444
  255SOL     OW 1548   3.022   1.347   0.052 -0.1354  0.1393 -0.3083
  255SOL    HW1 1549   3.002   1.325  -0.039 -0.2466 -0.4366 -0.1531
  255SOL    HW2 1550   3.095   1.408   0.047 -0.5022  0.5510 -0.8013
  256SOL     OW 1551   0.239   2.852   0.058  0.2588  0.4629  0.1068
  256SOL    HW1 1552   0.310   2.914   0.078  1.5549 -0.8739 -0.1480
  256SOL    HW2 1553   0.260   2.820  -0.029 -0.4057 -0.3097  0.2281
  257SOL     OW 1554   1.885   0.066   2.191 -0.1945  0.3046 -0.0006
  257SOL    HW1 1555   1.859  -0.021   2.222  2.6551 -0.3902  0.7315
  257SOL    HW2 1556   1.886   0.120   2.269 -0.9260  0.7387 -0.2826
  258SOL     OW 1557   2.054   2.295   0.495 -0.0061 -0.1679 -0.0523
  258SOL    HW1 1558   2.100   2.378   0.481  0.5234 -0.6019 -1.0363
  258SOL    HW2 1559   1.964   2.320   0.516  0.5110  0.6851  1.2422
  259SOL     OW 1560   1.203   2.262   0.819  0.1894  0.5485  0.1878
  259SOL    HW1 1561   1.232   2.353   0.810  2.0343 -0.0057  0.1293
  259SOL    HW2 1562   1.141   2.249   0.747  1.6903  1.1086 -1.2561
  260SOL     OW 1563   2.348   2.351   2.789  0.1408 -0.5223 -0.3183
  260SOL    HW1 1564   2.434   2.379   2.758 -0.2645  0.7389 -0.4008
  260SOL    HW2 1565   2.324   2.416   2.855 -0.7890 -0.7899 -0.3697
  261SOL     OW 1566   0.849   1.924   0.529  0.0243  0.0565 -0.4848
  261SOL    HW1 1567   0.843   1.829   0.537 -2.1479  0.2340  0.7000
  261SOL    HW2 1568   0.819   1.944   0.441 -1.5734 -0.2598 -0.0441
  262SOL     OW 1569   1.754   2.735   0.996  0.0935 -0.2822 -0.1347
  262SOL    HW1 1570   1.665   2.701   0.986 -0.6869  0.8766  2.1828
  262SOL    HW2 1571   1.754   2.817   0.947  0.8579 -1.6080 -2.5672
  263SOL     OW 1572   0.194   0.195   2.616  0.0495  0.2153 -0.0651
  263SOL    HW1 1573   0.120   0.250   2.641 -0.9171 -0.8127 -0.5638
  263SOL    HW2 1574   0.264   0.218   2.678 -0.8425  0.8641  0.7170
  264SOL     OW 1575   1.591   1.920   2.354  0.0049  0.0520 -0.0358
  264SOL    HW1 1576   1.686   1.931   2.359 -0.0061 -0.1257  0.6796
  264SOL    HW2 1577   1.571   1.924   2.260  0.6927  0.2890 -0.1757
  265SOL     OW 1578   3.209   3.296   0.457  0.0357 -0.5649  0.1398
  265SOL    HW1 1579   3.210   3.293   0.362 -0.0855 -0.6300  0.1405
  265SOL    HW2 1580   3.285   3.349   0.480 -0.1364 -0.2552 -0.0044
  266SOL     OW 1581   2.265   3.071   0.944  0.3522  0.8502 -0.0578
  266SOL    HW1 1582   2.280   3.007   1.014  1.0324  2.4717  1.3702
  266SOL    HW2 1583   2.171   3.066   0.927  0.0449  0.8531  1.4642
  267SOL     OW 1584   0.036   0.415   0.088  0.2856  0.2864  0.1735
  267SOL    HW1 1585   0.077   0.437   0.005  1.3412  0.1277  0.6404
  267SOL    HW2 1586  -0.010   0.332   0.071  2.9350 -1.3749  0.4531
  268SOL     OW 1587   1.561   3.227   0.264  0.8675  0.0771 -0.2246
  268SOL    HW1 1588   1.612   3.301   0.299 -0.1454  0.2538  0.9442
  268SOL    HW2 1589   1.517   3.190   0.341 -2.5439  1.3230 -1.3916
  269SOL     OW 1590   0.301   0.361   0.262 -0.1938 -0.1551 -0.7045
  269SOL    HW1 1591   0.362   0.377   0.334  1.1811 -2.7632 -1.1936
  269SOL    HW2 1592   0.308   0.440   0.208  1.7574  0.1877 -0.0448
  270SOL     OW 1593   1.276   1.733   0.934 -0.3525  0.4138  0.3376
  270SOL    HW1 1594   1.255   1.822   0.908 -0.4729  0.0765 -0.8081
  270SOL    HW2 1595   1.217   1.678   0.882 -0.3875 -0.3320  1.1278
  271SOL     OW 1596   1.503   1.217   1.905  1.2001  0.1936 -0.5553
  271SOL    HW1 1597   1.408   1.217   1.890  1.1574 -1.0400 -0.3908
  271SOL    HW2 1598   1.520   1.134   1.948  2.0593  1.3373  1.4410
  272SOL     OW 1599   1.102   0.048   2.631 -0.0251  0.1921 -0.5428
  272SOL    HW1 1600   1.135   0.099   2.556  1.3847  0.7592  0.4219
  272SOL    HW2 1601   1.168   0.059   2.699 -0.0018 -2.4227 -0.0417
  273SOL     OW 1602   0.302   2.818   1.638  0.0753  0.0877 -0.0689
  273SOL    HW1 1603   0.371   2.769   1.683 -1.9881 -2.4460  0.5547
  273SOL    HW2 1604   0.228   2.817   1.698 -0.3976  3.4150 -0.3730
  274SOL     OW 1605   0.077   3.204   1.974  0.0770 -0.5534 -0.2653
  274SOL    HW1 1606   0.035   3.240   2.052 -1.1657 -0.7822 -0.8030
  274SOL    HW2 1607   0.119   3.124   2.004 -0.0997 -0.4611  0.2437
  275SOL     OW 1608   1.660   2.721   2.700 -0.5845 -0.4669 -0.6691
  275SOL    HW1 1609   1.671   2.755   2.612 -0.7835 -1.1442 -0.9567
  275SOL    HW2 1610   1.588   2.772   2.737  1.5029  2.0311  0.2398
  276SOL     OW 1611   2.074   0.445   2.354  0.0991 -0.0671  0.3942
  276SOL    HW1 1612   2.080   0.501   2.432 -3.6608 -0.3167  1.0160
  276SOL    HW2 1613   2.059   0.507   2.282 -2.0599 -0.0653  0.7880
  277SOL     OW 1614   2.386   0.444   2.097 -0.4336  0.2994 -0.5690
  277SOL    HW1 1615   2.368   0.356   2.128 -0.1254  0.5268  0.2667
  277SOL    HW2 1616   2.404   0.433   2.003 -2.4719 -0.2450 -0.9492
  278SOL     OW 1617   2.607   0.061   2.099  0.1749  0.4968  0.6850
  278SOL    HW1 1618   2.564   0.013   2.028  0.2359  1.0512  0.2651
  278SOL    HW2 1619   2.537   0.090   2.156  0.1136  0.1669  0.7778
  279SOL     OW 1620   1.245   2.586   0.176  0.0500 -1.1771  0.0068
  279SOL    HW1 1621   1.259   2.612   0.085 -0.7217  1.3097  0.5254
  279SOL    HW2 1622   1.253   2.667   0.226 -0.0018 -2.3995  2.1258
  280SOL     OW 1623   0.198   3.154   1.260 -0.7803  0.0398  0.2614
  280SOL    HW1 1624   0.184   3.120   1.349 -1.4308  0.0739  0.1776
  280SOL    HW2 1625   0.111   3.154   1.220 -0.4145 -0.4564 -0.5537
  281SOL     OW 1626   1.500   3.195   3.209 -0.4044  0.4932  0.3677
  281SOL    HW1 1627   1.578   3.140   3.203 -1.5720 -1.1088 -1.1871
  281SOL    HW2 1628   1.449   3.158   3.281 -0.5785  0.3770  0.1861
  282SOL     OW 1629   2.701   2.606   3.324  0.2358 -0.1815  0.4830
  282SOL    HW1 1630   2.619   2.655   3.320  0.0379 -0.4011  1.6245
  282SOL    HW2 1631   2.713   2.572   3.236 -0.8270 -0.0323  0.2721
  283SOL     OW 1632   0.754   3.118   2.540  0.0542 -0.9241 -0.2686
  283SOL    HW1 1633   0.832   3.091   2.490  1.4516  0.5829  0.9909
  283SOL    HW2 1634   0.745   3.211   2.521 -2.0258 -1.2269 -1.0734
  284SOL     OW 1635   1.188   3.276   2.092 -0.2761 -0.0529  0.0585
  284SOL    HW1 1636   1.186   3.212   2.164 -0.9122  1.4725  1.4537
  284SOL    HW2 1637   1.137   3.236   2.022 -0.5899 -1.1107  0.8713
  285SOL     OW 1638   3.258   1.095   2.201 -0.0778  0.4306  0.0137
  285SOL    HW1 1639   3.254   1.179   2.247 -0.5669  0.3872  0.0581
  285SOL    HW2 1640   3.180   1.094   2.146  0.6656  0.6205 -1.0828
  286SOL     OW 1641   1.822   0.458   2.071 -0.3359 -0.2123 -0.1059
  286SOL    HW1 1642   1.809   0.552   2.083 -0.4110 -0.2221 -0.1098
  286SOL    HW2 1643   1.738   0.426   2.039 -0.1900 -0.2174 -0.4909
  287SOL     OW 1644   0.142   0.774   1.062 -0.3364  0.0695  0.5285
  287SOL    HW1 1645   0.160   0.719   0.985 -0.9482  0.4750  0.0876
  287SOL    HW2 1646   0.208   0.747   1.126 -0.7680 -1.3301  0.4043
  288SOL     OW 1647   1.395   0.323   2.075  0.5844  0.0255  0.6310
  288SOL    HW1 1648   1.473   0.334   2.022 -0.9847 -1.8260 -2.2912
  288SOL    HW2 1649   1.352   0.409   2.072  1.3545  0.4086  0.3240
  289SOL     OW 1650   2.153   1.875   1.847  0.1722  0.1630  0.1318
  289SOL    HW1 1651   2.164   1.970   1.859 -0.1200 -0.0523  2.5880
  289SOL    HW2 1652   2.070   1.866   1.801  0.6126  1.1087 -0.8920
  290SOL     OW 1653   0.907   2.985   3.221  0.1526  0.2937  0.1102
  290SOL    HW1 1654   0.821   3.013   3.188 -0.2971  0.5229  1.4106
  290SOL    HW2 1655   0.965   3.058   3.200 -0.3634  0.9105  0.7420
  291SOL     OW 1656   2.143   1.660   1.610 -0.6252 -0.5574  0.1246
  291SOL    HW1 1657   2.221   1.621   1.571 -0.4622  0.8768 -1.0840
  291SOL    HW2 1658   2.159   1.657   1.705  0.4952 -1.0847 -0.0654
  292SOL     OW 1659   2.904   2.469   0.075 -0.2088 -0.5528 -0.1579
  292SOL    HW1 1660   2.981   2.526   0.077  0.7500 -1.8024 -0.4438
  292SOL    HW2 1661   2.845   2.511   0.012  1.2373 -0.8008 -1.7399
  293SOL     OW 1662   0.194   0.995   2.755  0.2480  0.6428  0.9006
  293SOL    HW1 1663   0.137   0.957   2.688  2.0179  2.2690 -1.6740
  293SOL    HW2 1664   0.161   1.084   2.768  0.5793  0.6957  1.4369
  294SOL     OW 1665   3.213   0.464   2.520  0.8288 -0.4521  0.0826
  294SOL    HW1 1666   3.293   0.473   2.468 -0.3383 -1.8957 -2.1244
  294SOL    HW2 1667   3.154   0.414   2.464 -1.3242 -0.1997  1.9962
  295SOL     OW 1668   0.771   3.286   1.365 -0.2540 -0.4328 -0.0293
  295SOL    HW1 1669   0.816   3.244   1.291  1.8303 -1.1367  1.5681
  295SOL    HW2 1670   0.779   3.380   1.348 -1.9673 -0.5428 -1.8870
  296SOL     OW 1671   2.266   3.247   2.221 -0.1546 -0.5855 -0.3008
  296SOL    HW1 1672   2.242   3.247   2.314  0.3305  1.9420 -0.0842
  296SOL    HW2 1673   2.189   3.282   2.177 -0.2818 -1.5180 -0.8230
  297SOL     OW 1674   2.267   1.607   3.206  0.5423 -0.2790  1.0951
  297SOL    HW1 1675   2.238   1.637   3.293  0.0803 -1.0809  1.2257
  297SOL    HW2 1676   2.355   1.645   3.196  1.3540 -1.6063  2.6818
  298SOL     OW 1677   2.984   0.013   2.482  0.6164  0.2735  0.1700
  298SOL    HW1 1678   2.949   0.008   2.570 -0.5279 -2.1543 -0.3455
  298SOL    HW2 1679   3.057   0.076   2.488  1.9196 -1.3495  3.2967
  299SOL     OW 1680   1.509   0.983   2.033  0.2099 -0.5374 -0.2545
  299SOL    HW1 1681   1.478   0.960   2.121  1.0656  1.4430  0.6132
  299SOL    HW2 1682   1.579   0.921   2.016  3.1486  1.6835  2.4378
  300SOL     OW 1683   0.983   2.419   0.518  0.5827  0.0927 -0.0052
  300SOL    HW1 1684   1.059   2.413   0.460  1.7883 -0.8994  1.6174
  300SOL    HW2 1685   1.011   2.479   0.587 -0.7137  0.9768 -0.2146
  301SOL     OW 1686   0.253   0.111   0.134  0.3047  0.2526 -0.3680
  301SOL    HW1 1687   0.191   0.113   0.061 -0.9143  0.1700  0.6325
  301SOL    HW2 1688   0.254   0.201   0.167  0.0104  0.0594  0.1800
  302SOL     OW 1689   1.576   2.511   0.084  0.2984  0.7382  0.3189
  302SOL    HW1 1690   1.660   2.485   0.046 -0.0776  0.5353 -0.3892
  302SOL    HW2 1691   1.595   2.592   0.132  0.7945  0.9726 -0.2708
  303SOL     OW 1692   3.013   1.009   2.736  0.1415 -0.2857  0.0963
  303SOL    HW1 1693   2.957   1.044   2.805  0.2180  0.2286 -0.0986
  303SOL    HW2 1694   3.029   0.918   2.762 -0.4264 -0.3096  0.3729
  304SOL     OW 1695   1.279   3.006   2.202  0.2273 -0.2735 -0.1334
  304SOL    HW1 1696   1.371   3.020   2.181 -0.0745  2.1302 -0.0378
  304SOL    HW2 1697   1.278   2.990   2.296  0.6324 -1.5107 -0.3214
  305SOL     OW 1698   0.184   0.121   0.514 -0.1866  0.2729 -0.2047
  305SOL    HW1 1699   0.241   0.109   0.438 -0.3573 -1.2638 -0.1144
  305SOL    HW2 1700   0.239   0.167   0.577  0.1596  0.9997 -1.0099
  306SOL     OW 1701   3.224   2.761   3.069 -0.1382 -0.2268  0.0889
  306SOL    HW1 1702   3.149   2.820   3.070  0.7928  1.0714 -1.4886
  306SOL    HW2 1703   3.262   2.772   2.982  2.2808 -0.3299  1.0635
  307SOL     OW 1704   0.781   3.357   0.622 -0.2148 -0.0567  0.1516
  307SOL    HW1 1705   0.832   3.278   0.637 -2.4895 -1.4923  0.9416
  307SOL    HW2 1706   0.697   3.325   0.588 -1.0115  2.0644 -0.0422
  308SOL     OW 1707   2.573   3.351   1.286  0.2620 -0.0380  0.2555
  308SOL    HW1 1708   2.533   3.299   1.355 -0.3335  0.5614  0.3778
  308SOL    HW2 1709   2.506   3.415   1.262  0.7700  0.3106 -0.2756
  309SOL     OW 1710   0.312   0.791   2.269 -0.2359 -0.6468  0.0514
  309SOL    HW1 1711   0.236   0.733   2.267 -0.7226 -0.0448  0.5909
  309SOL    HW2 1712   0.283   0.869   2.222 -0.3595  0.0443  1.2346
  310SOL     OW 1713   0.979   0.584   3.230  0.3098 -0.0108 -0.4094
  310SOL    HW1 1714   0.933   0.514   3.182 -0.3425  0.3365 -0.3007
  310SOL    HW2 1715   0.910   0.647   3.252  0.5221 -0.3421  1.3372
  311SOL     OW 1716   1.492   1.379   0.271  0.0107  0.5061  0.0862
  311SOL    HW1 1717   1.524   1.469   0.268  1.3760  0.0130 -1.3055
  311SOL    HW2 1718   1.538   1.334   0.200  0.3765 -1.6479  1.5920
  312SOL     OW 1719   2.299   2.516   3.375  0.1008 -0.4737  0.2318
  312SOL    HW1 1720   2.394   2.521   3.379  0.2726 -1.4917 -1.4303
  312SOL    HW2 1721   2.279   2.423   3.383 -0.4627 -0.6991 -2.6807
  313SOL     OW 1722   2.659   0.681   2.902  0.1758  0.1331  0.0680
  313SOL    HW1 1723   2.670   0.586   2.898  1.6417  0.3323 -1.1809
  313SOL    HW2 1724   2.566   0.693   2.923  0.0066 -1.5651  0.4447
  314SOL     OW 1725   1.815   2.782   1.937 -0.4793  0.0245  0.0287
  314SOL    HW1 1726   1.900   2.778   1.893 -0.0380  0.4936  0.8197
  314SOL    HW2 1727   1.798   2.875   1.949 -1.8410  0.0158 -1.4761
  315SOL     OW 1728   0.079   1.472   0.278 -0.0302  0.3463 -0.0948
  315SOL    HW1 1729   0.067   1.538   0.210  0.8358 -0.1396 -0.7409
  315SOL    HW2 1730   0.171   1.447   0.271  0.5630  1.5763  2.4841
  316SOL     OW 1731   0.374   3.045   1.098  0.1563  0.3842  0.4020
  316SOL    HW1 1732   0.322   3.104   1.153  0.7337  0.5427  0.7778
  316SOL    HW2 1733   0.460   3.086   1.094 -0.0023  0.6471 -1.0331
  317SOL     OW 1734   2.085   0.691   2.009 -0.0066  0.0368  0.0950
  317SOL    HW1 1735   1.999   0.730   2.023  0.6964  1.4962  0.5632
  317SOL    HW2 1736   2.089   0.676   1.915 -0.8391 -0.2568  0.0934
  318SOL     OW 1737   1.507   2.840   1.170  0.2121 -0.2822  0.0713
  318SOL    HW1 1738   1.537   2.800   1.251  1.6779  0.4848 -0.0594
  318SOL    HW2 1739   1.412   2.830   1.172  0.4105 -2.6834  0.5965
  319SOL     OW 1740   3.001   0.115   1.825 -0.0154 -0.4078 -0.1981
  319SOL    HW1 1741   3.076   0.100   1.767  1.0943  1.1718  0.7220
  319SOL    HW2 1742   2.981   0.208   1.814 -1.4847 -0.6739  0.0273
  320SOL     OW 1743   1.428   1.512   1.028  0.3483  0.0446  0.0268
  320SOL    HW1 1744   1.374   1.587   1.003  0.0590  0.3601  1.4716
  320SOL    HW2 1745   1.430   1.457   0.950 -1.1334  0.5723 -0.4306
  321SOL     OW 1746   0.634   0.903   2.960  0.4587 -0.4478  0.1294
  321SOL    HW1 1747   0.584   0.825   2.984 -1.5999  0.8778  0.5005
  321SOL    HW2 1748   0.570   0.960   2.917  2.2296  0.4781 -1.4160
  322SOL     OW 1749   1.866   2.865   0.405  0.0215  0.0294 -0.1823
  322SOL    HW1 1750   1.843   2.909   0.323  2.1686  0.1943 -0.7571
  322SOL    HW2 1751   1.837   2.775   0.392 -1.5919  0.5207 -0.2322
  323SOL     OW 1752   1.139   2.517   2.006 -0.1460  0.0126  0.5577
  323SOL    HW1 1753   1.151   2.589   1.944  0.6920 -0.3120  0.3295
  323SOL    HW2 1754   1.072   2.549   2.066  0.1989  0.9790  0.4534
  324SOL     OW 1755   0.166   1.084   0.392  0.2433  0.6098  0.3315
  324SOL    HW1 1756   0.163   1.164   0.444  0.0803  0.8005  0.0282
  324SOL    HW2 1757   0.259   1.074   0.370  0.4618  0.0065  1.4590
  325SOL     OW 1758   1.961   1.919   1.053  0.3176  0.4387  0.2800
  325SOL    HW1 1759   1.930   1.981   1.119 -0.5899  0.4819 -0.1647
  325SOL    HW2 1760   1.954   1.966   0.970 -0.8672 -0.4028 -0.1204
  326SOL     OW 1761   1.187   2.910   0.234  0.0538  0.3664  0.0116
  326SOL    HW1 1762   1.244   2.953   0.171  0.8049 -0.8973 -0.2084
  326SOL    HW2 1763   1.100   2.946   0.218 -0.0666 -0.9252 -2.7221
  327SOL     OW 1764   1.776   3.372   0.118 -0.0433  0.2444 -0.3090
  327SOL    HW1 1765   1.798   3.344   0.207  0.5804 -1.5472 -0.9819
  327SOL    HW2 1766   1.681   3.378   0.117 -0.2065 -1.7141 -0.0357
  328SOL     OW 1767   2.673   2.884   2.177 -0.6415 -0.2050 -0.2523
  328SOL    HW1 1768   2.714   2.971   2.186 -0.0853 -0.1618 -2.5836
  328SOL    HW2 1769   2.743   2.823   2.198 -0.1589 -0.0888 -1.4306
  329SOL     OW 1770   2.913   0.613   3.166 -0.3483  0.1881  0.0369
  329SOL    HW1 1771   2.868   0.591   3.085 -0.1890  0.8172 -0.2274
  329SOL    HW2 1772   2.853   0.674   3.210  0.3349  1.2231 -0.4303
  330SOL     OW 1773   2.131   2.267   1.152  0.1107  0.3122  0.3884
  330SOL    HW1 1774   2.215   2.263   1.197 -0.1344 -0.9869  0.7688
  330SOL    HW2 1775   2.095   2.178   1.159 -0.6431  0.4721 -1.0146
  331SOL     OW 1776   1.957   1.220   2.001  0.0758 -0.2522 -0.3442
  331SOL    HW1 1777   1.939   1.134   1.963 -2.4010  0.0659 -0.1166
  331SOL    HW2 1778   1.929   1.212   2.092 -1.3480  1.0546 -0.6129
  332SOL     OW 1779   2.982   3.162   2.974  0.2525  0.2067  0.0269
  332SOL    HW1 1780   2.999   3.254   2.958 -0.5143  0.7325  1.9019
  332SOL    HW2 1781   2.905   3.162   3.032 -0.6263 -1.6660 -1.0510
  333SOL     OW 1782   0.861   2.633   2.804 -0.2572  0.3408 -0.2796
  333SOL    HW1 1783   0.819   2.718   2.793 -0.0880  0.2263 -2.4148
  333SOL    HW2 1784   0.801   2.572   2.759 -0.8756 -0.8767  2.0450
  334SOL     OW 1785   1.307   1.675   3.259 -0.0698  0.0612 -0.5899
  334SOL    HW1 1786   1.343   1.748   3.208  0.4261  0.6240  0.5174
  334SOL    HW2 1787   1.314   1.704   3.350 -0.3384 -1.1683 -0.1551
  335SOL     OW 1788   1.531   1.983   0.567  0.6330 -0.0549 -0.0366
  335SOL    HW1 1789   1.581   2.007   0.489  0.9619 -1.3971 -0.2775
  335SOL    HW2 1790   1.560   2.044   0.634  2.0161 -0.2713 -0.3989
  336SOL     OW 1791   2.209   2.939   2.044  0.1060 -0.2372 -0.1083
  336SOL    HW1 1792   2.214   2.843   2.043  2.4145 -0.1710 -0.2308
  336SOL    HW2 1793   2.252   2.964   2.125 -1.2910  0.7124  0.3802
  337SOL     OW 1794   1.121   1.922   0.560  0.2056  0.0118 -0.3481
  337SOL    HW1 1795   1.026   1.931   0.558  0.1771  1.0684  2.0892
  337SOL    HW2 1796   1.155   2.008   0.534  0.3682  0.6964  1.9101
  338SOL     OW 1797   0.081   2.446   0.038 -0.0462  1.2902 -0.2637
  338SOL    HW1 1798   0.012   2.511   0.025 -0.6094  0.8250  0.3106
  338SOL    HW2 1799   0.051   2.369  -0.010  0.4879  1.3549 -0.7154
  339SOL     OW 1800   0.318   0.226   0.720  0.1122 -0.4384  0.0140
  339SOL    HW1 1801   0.388   0.214   0.784  0.9547 -1.0380 -0.9812
  339SOL    HW2 1802   0.263   0.295   0.757  1.6138  0.5502  0.4861
  340SOL     OW 1803   0.182   0.197   3.072  0.0833  0.1081  0.1511
  340SOL    HW1 1804   0.112   0.215   3.010  1.8650 -0.3275 -2.1203
  340SOL    HW2 1805   0.148   0.124   3.124 -0.7118 -0.9849 -1.7612
  341SOL     OW 1806   1.690   1.718   1.217  0.4707 -0.6218  0.1079
  341SOL    HW1 1807   1.728   1.660   1.151 -1.3960 -3.6049  1.4558
  341SOL    HW2 1808   1.623   1.768   1.169 -0.2809 -2.1343 -0.4991
  342SOL     OW 1809   3.055   1.090   2.045 -0.0260  0.0344 -0.1128
  342SOL    HW1 1810   3.034   1.126   1.958  0.8459  2.4071  0.5969
  342SOL    HW2 1811   2.979   1.036   2.067 -1.3437  1.2909 -1.3607
  343SOL     OW 1812   1.387   0.063   1.986  0.0778 -0.2809 -0.4087
  343SOL    HW1 1813   1.315   0.019   2.031  0.8470 -1.5892 -0.4303
  343SOL    HW2 1814   1.396   0.147   2.032 -1.2538 -0.2143 -0.2234
  344SOL     OW 1815   0.411   3.340   2.669  0.0421 -0.2114  0.5212
  344SOL    HW1 1816   0.394   3.305   2.581 -1.1135  1.1807  0.1587
  344SOL    HW2 1817   0.428   3.433   2.654 -1.1142  0.2329  1.8737
  345SOL     OW 1818   2.261   3.007   2.734  0.8099  0.0453  0.6923
  345SOL    HW1 1819   2.329   2.979   2.796 -0.6516  0.2872  2.5196
  345SOL    HW2 1820   2.273   3.102   2.728 -0.0024  0.2503  1.8999
  346SOL     OW 1821   0.694   2.934   2.182  0.1599  0.0969  0.3050
  346SOL    HW1 1822   0.625   3.000   2.189 -2.1738 -2.0542 -0.7672
  346SOL    HW2 1823   0.710   2.906   2.272  0.3997  1.2721  0.6579
  347SOL     OW 1824   2.514   1.427   0.097 -0.1625  0.2756 -0.2887
  347SOL    HW1 1825   2.530   1.473   0.015  0.0219 -0.1939 -0.5189
  347SOL    HW2 1826   2.602   1.412   0.134 -0.0351 -1.9037 -1.3340
  348SOL     OW 1827   0.812   0.811   2.686 -0.3032  0.3732 -0.3107
  348SOL    HW1 1828   0.880   0.756   2.648 -0.1721 -0.6633  1.2974
  348SOL    HW2 1829   0.858   0.868   2.748 -0.8681 -0.5868  1.0638
  349SOL     OW 1830   2.784   2.719   2.589  0.5717 -0.0812  0.2808
  349SOL    HW1 1831   2.862   2.774   2.581  0.5300 -0.1293 -0.5186
  349SOL    HW2 1832   2.713   2.780   2.607  0.2615  0.3361 -2.0679
  350SOL     OW 1833   0.541   0.070   2.022  0.4562  0.0926 -0.6215
  350SOL    HW1 1834   0.471   0.125   2.057  0.0476 -0.7010 -0.1646
  350SOL    HW2 1835   0.619   0.126   2.024  0.2140  0.4023  0.5632
  351SOL     OW 1836   0.390   0.070   3.272 -0.6157 -0.5628  0.3801
  351SOL    HW1 1837   0.371   0.088   3.364 -0.5999 -0.2330  0.3216
  351SOL    HW2 1838   0.341  -0.010   3.252 -2.3356  0.5242  0.0912
  352SOL     OW 1839   1.720   1.100   0.502 -0.3514 -0.2910  0.5136
  352SOL    HW1 1840   1.649   1.078   0.563  0.2335 -1.1251  0.9093
  352SOL    HW2 1841   1.690   1.067   0.417  0.4298 -2.5627  1.0557
  353SOL     OW 1842   2.010   1.132   1.521  0.6286  0.4629  0.1650
  353SOL    HW1 1843   2.075   1.192   1.558  0.3664  0.3156  0.8690
  353SOL    HW2 1844   2.045   1.109   1.435 -0.4519  3.6266 -1.2704
  354SOL     OW 1845   1.485   2.155   0.275 -0.0802  0.0421 -0.1602
  354SOL    HW1 1846   1.465   2.182   0.185 -0.2775  1.6911  0.3531
  354SOL    HW2 1847   1.568   2.199   0.295  0.5578 -1.2380  0.0981
  355SOL     OW 1848   2.180   0.838   2.385  0.3023  0.7110 -0.2453
  355SOL    HW1 1849   2.195   0.761   2.329  0.1225  1.0238 -0.7278
  355SOL    HW2 1850   2.085   0.845   2.391  0.3061 -0.1963  1.3291
  356SOL     OW 1851   2.902   1.063   3.007 -0.0643  0.1857  0.1492
  356SOL    HW1 1852   2.818   1.025   3.034 -0.3462  1.0323  0.5203
  356SOL    HW2 1853   2.961   0.989   3.000 -0.3871 -0.2508  1.6110
  357SOL     OW 1854   3.342   0.502   1.543 -0.1549 -0.2599  0.0619
  357SOL    HW1 1855   3.418   0.559   1.533 -0.6796  0.5686  0.6686
  357SOL    HW2 1856   3.320   0.475   1.454  0.4862 -0.0264 -0.1717
  358SOL     OW 1857   2.017   2.770   2.464 -0.0631 -0.0735 -0.0521
  358SOL    HW1 1858   1.967   2.840   2.508 -0.2477  1.9648 -3.1995
  358SOL    HW2 1859   2.106   2.780   2.497 -0.3888  0.7080  0.6301
  359SOL     OW 1860   2.934   1.975   0.945 -0.1761 -0.2064  0.4464
  359SOL    HW1 1861   2.932   1.981   0.849 -2.6935  0.0784  0.4720
  359SOL    HW2 1862   3.009   2.029   0.970  0.4250 -0.1352 -1.3218
  360SOL     OW 1863   1.849   1.926   2.285 -0.0953  0.4058 -0.4689
  360SOL    HW1 1864   1.918   1.964   2.340 -0.2107  0.6727 -0.5064
  360SOL    HW2 1865   1.865   1.832   2.288 -0.6310  0.3299  0.7580
  361SOL     OW 1866   2.853   0.076   1.274  1.1370 -0.1059 -0.2269
  361SOL    HW1 1867   2.760   0.057   1.280  1.2270 -0.5126 -0.0125
  361SOL    HW2 1868   2.868   0.147   1.335  1.4480 -1.9352  1.9687
  362SOL     OW 1869   3.374   2.862   2.010 -0.7128  0.4238  0.0899
  362SOL    HW1 1870   3.428   2.909   2.073 -0.9806  1.5502 -0.4832
  362SOL    HW2 1871   3.295   2.915   2.002 -1.2574 -0.4047 -0.1999
  363SOL     OW 1872   2.123   1.436   3.051 -0.4734  0.4592  0.2315
  363SOL    HW1 1873   2.187   1.400   2.989 -0.1495 -1.4616  1.5997
  363SOL    HW2 1874   2.172   1.501   3.101 -0.2822  0.7857 -0.3662
  364SOL     OW 1875   2.357   0.852   3.270 -0.3227 -0.1031 -0.5254
  364SOL    HW1 1876   2.263   0.859   3.285 -0.1466  2.0083  0.0341
  364SOL    HW2 1877   2.396   0.876   3.354  0.6892  1.0900 -1.3039
  365SOL     OW 1878   2.405   0.655   3.067  0.2664 -0.1247  0.2033
  365SOL    HW1 1879   2.396   0.732   3.123  1.9413 -1.3929  2.3517
  365SOL    HW2 1880   2.330   0.600   3.087 -0.5249  0.5484 -0.7817
  366SOL     OW 1881   1.247   2.078   1.798  0.1752  0.2954 -0.3248
  366SOL    HW1 1882   1.168   2.123   1.828 -1.7501 -1.9105 -1.8005
  366SOL    HW2 1883   1.221   2.033   1.718  2.8797 -0.7432 -0.7257
  367SOL     OW 1884   0.158   2.563   3.131 -1.1372 -0.6939 -0.0326
  367SOL    HW1 1885   0.138   2.648   3.169 -1.1346 -0.7158  0.0174
  367SOL    HW2 1886   0.158   2.502   3.205 -1.1459 -0.7386 -0.0691
  368SOL     OW 1887   0.522   0.190   0.911 -0.0776 -0.0990  0.0363
  368SOL    HW1 1888   0.592   0.200   0.847 -0.6028  0.6230 -0.4449
  368SOL    HW2 1889   0.506   0.096   0.915  2.0473 -0.4638  1.4083
  369SOL     OW 1890   1.973   2.603   0.914 -0.3355  0.3832 -0.6446
  369SOL    HW1 1891   2.016   2.561   0.989  0.6030  0.1428 -1.2954
  369SOL    HW2 1892   1.907   2.660   0.953  1.9865  2.4551  0.5626
  370SOL     OW 1893   0.465   3.039   0.703 -0.1437 -0.9639  0.1526
  370SOL    HW1 1894   0.372   3.036   0.681 -0.7545 -0.4553  2.4055
  370SOL    HW2 1895   0.490   2.948   0.717 -1.0502 -0.9514  2.1707
  371SOL     OW 1896   2.923   2.570   1.589  0.0541 -0.3169  0.3336
  371SOL    HW1 1897   2.973   2.492   1.564  0.7801 -0.1313  1.1393
  371SOL    HW2 1898   2.876   2.595   1.509 -0.1150 -1.5135  0.0374
  372SOL     OW 1899   3.261   0.150   2.995 -1.0771  0.1633  0.3135
  372SOL    HW1 1900   3.210   0.226   2.968 -1.6103 -0.3969 -0.2798
  372SOL    HW2 1901   3.220   0.122   3.077 -1.0189  0.3785  0.4167
  373SOL     OW 1902   1.411   1.350   0.811 -0.0696  0.1039 -0.2659
  373SOL    HW1 1903   1.378   1.261   0.800  1.2626 -0.3752 -0.4778
  373SOL    HW2 1904   1.404   1.389   0.724  0.1359 -0.0787 -0.3660
  374SOL     OW 1905   3.155   2.518   1.251  0.8466  0.3939 -0.1327
  374SOL    HW1 1906   3.214   2.457   1.297  2.0527  1.6168  0.0121
  374SOL    HW2 1907   3.151   2.484   1.162 -0.7414 -1.4551  0.5769
  375SOL     OW 1908   3.189   1.617   1.027 -0.2522  0.4774 -0.7223
  375SOL    HW1 1909   3.227   1.637   1.113  0.8652  0.4989 -1.2051
  375SOL    HW2 1910   3.216   1.690   0.971 -0.7720  0.3459 -1.1501
  376SOL     OW 1911   2.204   0.445   0.336 -0.2364 -0.0281 -0.4544
  376SOL    HW1 1912   2.143   0.419   0.267  1.3673 -1.6025 -1.3895
  376SOL    HW2 1913   2.275   0.381   0.330  0.3752  0.3037  2.1401
  377SOL     OW 1914   1.498   0.373   0.705  0.0610 -0.1546  0.1019
  377SOL    HW1 1915   1.450   0.456   0.704 -0.1162 -0.2566 -1.2008
  377SOL    HW2 1916   1.436   0.309   0.671  0.2433 -0.8124  0.9787
  378SOL     OW 1917   3.347   1.840   1.561 -0.1810 -0.2520 -0.1252
  378SOL    HW1 1918   3.338   1.755   1.605 -1.8684  0.1376  0.3353
  378SOL    HW2 1919   3.311   1.826   1.474 -0.9112  0.1093  0.1147
  379SOL     OW 1920   0.587   3.180   2.094  0.2442 -0.6247 -0.3431
  379SOL    HW1 1921   0.513   3.235   2.069  1.0163 -0.1756 -1.8017
  379SOL    HW2 1922   0.664   3.229   2.065  1.2238 -0.4668  2.3197
  380SOL     OW 1923   0.839   2.790   0.454 -0.0464  0.2275  0.3806
  380SOL    HW1 1924   0.751   2.769   0.485  0.3210 -0.6045  0.9108
  380SOL    HW2 1925   0.837   2.884   0.436 -0.3085  0.7938  2.9729
  381SOL     OW 1926   0.024   1.745   0.857 -0.7194 -0.4632 -0.3832
  381SOL    HW1 1927   0.107   1.698   0.859 -0.4157  0.0624 -0.6391
  381SOL    HW2 1928   0.007   1.761   0.765  0.0809  1.4998 -0.2407
  382SOL     OW 1929   1.551   3.099   1.017  0.4927 -0.0571  0.2111
  382SOL    HW1 1930   1.542   3.014   1.060 -0.5334  0.0361  0.2033
  382SOL    HW2 1931   1.530   3.163   1.085 -1.3739  0.0853 -0.4240
  383SOL     OW 1932   1.975   1.258   3.247 -0.4955  0.4552  0.1630
  383SOL    HW1 1933   2.002   1.340   3.205  0.9176  0.6051  1.2903
  383SOL    HW2 1934   1.895   1.281   3.295 -0.6747  0.9177 -0.3499
  384SOL     OW 1935   2.622   1.557   3.244  0.0272  0.0837  0.4703
  384SOL    HW1 1936   2.561   1.631   3.240  1.6457  1.4969  1.0597
  384SOL    HW2 1937   2.707   1.593   3.220  0.9803 -1.4602  1.3208
  385SOL     OW 1938   2.665   2.224   3.329  0.1640 -0.1758  0.1501
  385SOL    HW1 1939   2.731   2.248   3.394  1.1369 -1.6987 -0.2353
  385SOL    HW2 1940   2.687   2.276   3.252  1.6177 -1.4541 -0.3346
  386SOL     OW 1941   0.073   0.144   1.618  0.5087 -0.2743  0.6286
  386SOL    HW1 1942   0.099   0.053   1.631  1.7262 -0.2149 -1.0284
  386SOL    HW2 1943   0.020   0.143   1.539 -1.0605  0.2298  1.6323
  387SOL     OW 1944   1.500   2.713   0.879 -0.1920 -0.0228 -0.2593
  387SOL    HW1 1945   1.524   2.762   0.800  0.3444  0.3375  0.1217
  387SOL    HW2 1946   1.437   2.769   0.924  1.5233  1.0390  0.9285
  388SOL     OW 1947   2.412   0.320   3.308 -0.2851  0.3396 -0.0357
  388SOL    HW1 1948   2.433   0.252   3.244 -2.0683 -0.6660  0.3949
  388SOL    HW2 1949   2.367   0.388   3.256  0.7777  0.8441 -0.3210
  389SOL     OW 1950   2.545   3.232   1.826 -0.0636 -0.1074 -0.2560
  389SOL    HW1 1951   2.523   3.200   1.914  0.9798  0.1660  0.1067
  389SOL    HW2 1952   2.492   3.311   1.816 -2.0021 -1.3937 -0.8191
  390SOL     OW 1953   2.589   2.306   1.023  0.5103 -0.2979 -0.1477
  390SOL    HW1 1954   2.551   2.232   0.976 -0.1656 -0.3240  0.4212
  390SOL    HW2 1955   2.528   2.322   1.095  1.6845 -0.4654  0.9164
  391SOL     OW 1956   1.735   1.383   2.542  1.0545  0.1173 -0.5363
  391SOL    HW1 1957   1.762   1.314   2.603  2.6176 -0.7208 -2.0853
  391SOL    HW2 1958   1.715   1.458   2.598  0.5620 -1.1769  1.1151
  392SOL     OW 1959   2.975   1.390   1.727 -0.0429  0.5358 -0.3588
  392SOL    HW1 1960   2.959   1.296   1.722 -0.1661  0.4932  0.6966
  392SOL    HW2 1961   2.942   1.416   1.813 -1.0877  1.7585 -1.0860
  393SOL     OW 1962   2.689   2.345   0.381  0.4821  0.3875  0.5490
  393SOL    HW1 1963   2.683   2.252   0.402 -1.0365  0.2536 -0.3561
  393SOL    HW2 1964   2.603   2.381   0.400  1.1931  1.7460  1.3880
  394SOL     OW 1965   1.028   1.931   3.096 -0.0859  0.1570 -0.1461
  394SOL    HW1 1966   1.065   1.929   3.185  2.1747  1.0210 -0.9866
  394SOL    HW2 1967   0.969   2.006   3.096 -0.0608  0.1833  0.6083
  395SOL     OW 1968   3.149   0.189   1.560 -0.4688  0.1181  0.2167
  395SOL    HW1 1969   3.163   0.095   1.561 -0.4039  0.0366 -2.0184
  395SOL    HW2 1970   3.196   0.219   1.482 -4.0666  1.2694 -1.7703
  396SOL     OW 1971   3.194   2.530   2.640 -0.5153 -0.5361  0.1287
  396SOL    HW1 1972   3.256   2.459   2.630  0.5976  0.2405  1.3098
  396SOL    HW2 1973   3.219   2.574   2.721 -1.4554  0.9146 -0.3197
  397SOL     OW 1974   0.705   0.151   2.765 -0.6130  0.0508  0.3829
  397SOL    HW1 1975   0.629   0.191   2.723  1.1344  2.3646 -0.7896
  397SOL    HW2 1976   0.742   0.093   2.699  0.0561  0.8948 -0.0050
  398SOL     OW 1977   2.388   2.221   1.256 -0.2426  0.8205  0.5462
  398SOL    HW1 1978   2.385   2.230   1.351  1.7176  0.2033  0.6996
  398SOL    HW2 1979   2.394   2.127   1.240  0.3901  0.9666 -0.1427
  399SOL     OW 1980   3.132   2.955   2.220  0.1506  0.1382 -0.4340
  399SOL    HW1 1981   3.050   2.905   2.214  0.1210  0.2143 -0.6512
  399SOL    HW2 1982   3.126   3.019   2.149  0.6823 -0.2704 -0.8554
  400SOL     OW 1983   3.330   2.368   1.419 -0.2232 -0.5714 -0.1780
  400SOL    HW1 1984   3.281   2.385   1.500 -1.5021 -0.2937 -0.9743
  400SOL    HW2 1985   3.327   2.273   1.409 -1.7562 -0.4893 -0.8638
  401SOL     OW 1986   0.223   0.444   3.228  0.6437  0.4092 -0.4385
  401SOL    HW1 1987   0.315   0.451   3.204  0.6118 -0.3352 -0.7838
  401SOL    HW2 1988   0.187   0.377   3.170  0.8013 -2.2722  2.3518
  402SOL     OW 1989   1.168   0.983   3.011 -0.7734  0.0510 -0.0732
  402SOL    HW1 1990   1.121   1.041   3.071 -0.8521  0.6903 -0.7527
  402SOL    HW2 1991   1.222   1.041   2.958  0.3980 -0.6232  0.3373
  403SOL     OW 1992   0.537   2.275   2.846  0.2015  0.0536 -0.0661
  403SOL    HW1 1993   0.627   2.248   2.830 -0.8861 -1.6017 -4.8374
  403SOL    HW2 1994   0.501   2.206   2.902  1.1915 -0.7957 -0.4461
  404SOL     OW 1995   0.668   3.373   2.306  0.0318 -0.1108 -0.3511
  404SOL    HW1 1996   0.719   3.361   2.226  2.7011  0.9101  1.0673
  404SOL    HW2 1997   0.647   3.466   2.307  2.2255  0.4534  1.2424
  405SOL     OW 1998   0.208   0.667   2.589  0.7788  0.0986  0.1455
  405SOL    HW1 1999   0.172   0.609   2.521  2.0731  2.0016 -2.3287
  405SOL    HW2 2000   0.141   0.735   2.600  0.5572 -0.2243  0.8407
  406SOL     OW 2001   2.076   0.392   1.984 -0.4146  0.6480  0.5795
  406SOL    HW1 2002   1.991   0.398   2.027  0.7093  0.4650  3.0395
  406SOL    HW2 2003   2.137   0.435   2.045  1.2305  0.9606 -1.1808
  407SOL     OW 2004   1.327   0.366   3.084  0.2107  0.6674  0.2793
  407SOL    HW1 2005   1.304   0.303   3.152 -2.0462  0.8050 -0.2763
  407SOL    HW2 2006   1.309   0.451   3.123  3.3245  1.0985  1.0538
  408SOL     OW 2007   0.565   2.930   2.481  0.0674  0.3573 -0.3033
  408SOL    HW1 2008   0.630   2.993   2.511 -1.3454  2.0784 -0.7207
  408SOL    HW2 2009   0.593   2.847   2.520  2.1685  1.1267 -0.0080
  409SOL     OW 2010   1.786   2.122   2.582 -0.5547 -0.6516  0.2846
  409SOL    HW1 2011   1.824   2.108   2.668  0.4743  1.4857  0.2340
  409SOL    HW2 2012   1.717   2.187   2.596  0.6822  0.9372 -0.6858
  410SOL     OW 2013   2.967   2.300   2.428 -0.6305 -0.1351 -0.1975
  410SOL    HW1 2014   2.925   2.254   2.501 -0.0302  1.2018  1.0493
  410SOL    HW2 2015   3.036   2.240   2.398 -2.4081 -1.7189 -1.3035
  411SOL     OW 2016   1.406   0.951   2.600  0.3574 -0.4141 -0.5116
  411SOL    HW1 2017   1.375   0.866   2.630 -0.4043 -0.6144 -1.7906
  411SOL    HW2 2018   1.359   1.015   2.653 -1.0830 -0.7489 -1.3503
  412SOL     OW 2019   3.300   0.698   1.203 -0.0634 -0.3857  0.3446
  412SOL    HW1 2020   3.285   0.684   1.109 -0.5425 -0.1022  0.3749
  412SOL    HW2 2021   3.383   0.745   1.207 -0.5029  0.4403 -0.0034
  413SOL     OW 2022   1.053   0.393   0.026 -0.3538  0.2048  0.0044
  413SOL    HW1 2023   0.985   0.351   0.079 -1.3671  0.1908 -1.2557
  413SOL    HW2 2024   1.004   0.447  -0.036  0.8680  1.9085  0.4599
  414SOL     OW 2025   2.022   2.683   3.183 -0.1665 -0.4470 -0.2492
  414SOL    HW1 2026   1.942   2.670   3.233  2.1160 -1.1567  3.6430
  414SOL    HW2 2027   2.041   2.597   3.146  0.4484 -1.2463  1.7545
  415SOL     OW 2028   0.493   2.734   1.823 -0.1092 -0.2767  0.0074
  415SOL    HW1 2029   0.543   2.668   1.872 -0.4728  0.4882  1.4362
  415SOL    HW2 2030   0.425   2.762   1.883 -0.9066  0.3084 -1.1464
  416SOL     OW 2031   0.570   3.259   1.100  0.0305  0.0465  0.0617
  416SOL    HW1 2032   0.535   3.265   1.011  0.3645  1.6746 -0.0053
  416SOL    HW2 2033   0.504   3.303   1.154  0.0244 -0.5679  0.5564
  417SOL     OW 2034   1.850   0.646   2.968  0.3604  0.5035 -0.1207
  417SOL    HW1 2035   1.829   0.611   3.055 -1.3871 -0.2044 -0.7801
  417SOL    HW2 2036   1.913   0.716   2.985  2.0094 -1.2612  1.4809
  418SOL     OW 2037   1.703   0.209   0.818 -0.2912  0.4491 -0.0497
  418SOL    HW1 2038   1.666   0.121   0.825  0.3932  0.1503 -0.0055
  418SOL    HW2 2039   1.644   0.256   0.759 -0.3957 -0.1941 -0.4702
  419SOL     OW 2040   0.562   0.727   2.593  0.5334  0.0972 -0.0594
  419SOL    HW1 2041   0.649   0.760   2.612  0.8042 -0.7059  0.1297
  419SOL    HW2 2042   0.518   0.799   2.546  0.9809  0.8394  0.6479
  420SOL     OW 2043   3.334   1.164   0.723  0.2416  0.1157 -0.1278
  420SOL    HW1 2044   3.345   1.238   0.783  2.2136 -0.1252 -0.1082
  420SOL    HW2 2045   3.249   1.178   0.683  0.1967  1.9376  0.5062
  421SOL     OW 2046   0.322   3.225   2.902  0.0792 -0.4535  0.1894
  421SOL    HW1 2047   0.240   3.274   2.913 -0.8499 -1.9599  0.3808
  421SOL    HW2 2048   0.368   3.270   2.831 -1.4694 -0.2639 -0.7420
  422SOL     OW 2049   1.252   1.180   1.796  0.5314 -0.5594 -0.0089
  422SOL    HW1 2050   1.203   1.098   1.790  1.6279 -1.1956 -0.5708
  422SOL    HW2 2051   1.215   1.235   1.727 -0.6648 -0.2848  0.7924
  423SOL     OW 2052   1.858   1.263   0.884 -0.5445  0.5321  0.3668
  423SOL    HW1 2053   1.864   1.258   0.788  1.7556  0.7125  0.4565
  423SOL    HW2 2054   1.814   1.182   0.909  0.2506 -0.2835 -0.7614
  424SOL     OW 2055   0.432   0.292   3.072  0.3504 -0.3193 -0.6516
  424SOL    HW1 2056   0.475   0.270   3.155  0.1388 -0.8838 -0.6887
  424SOL    HW2 2057   0.348   0.247   3.077 -1.1078  2.2954  0.2620
  425SOL     OW 2058   1.481   2.924   2.855 -0.6093  0.4452  0.2082
  425SOL    HW1 2059   1.519   2.880   2.931  0.7890 -2.1129 -1.8356
  425SOL    HW2 2060   1.550   2.982   2.824 -0.5218  0.1484 -0.1499
  426SOL     OW 2061   2.298   3.206   1.534  0.4615  0.2533  0.6269
  426SOL    HW1 2062   2.384   3.185   1.568 -0.3169 -2.4831  1.1593
  426SOL    HW2 2063   2.277   3.134   1.474 -0.3550  2.2779 -1.7033
  427SOL     OW 2064   2.886   0.613   2.293  0.5244  0.1317 -0.1723
  427SOL    HW1 2065   2.796   0.600   2.262  1.0145 -0.8294 -1.2300
  427SOL    HW2 2066   2.882   0.589   2.386 -0.3164  0.1481 -0.1899
  428SOL     OW 2067   1.108   3.165   3.136 -0.3162 -0.2007  0.5012
  428SOL    HW1 2068   1.181   3.167   3.075  0.1418  0.3910  1.0637
  428SOL    HW2 2069   1.032   3.189   3.083  0.2450  1.4017  0.3823
  429SOL     OW 2070   1.186   0.429   2.632 -0.0786  0.9155  0.4445
  429SOL    HW1 2071   1.208   0.360   2.694  0.0730 -0.0692 -0.6769
  429SOL    HW2 2072   1.193   0.388   2.546 -1.1010  2.0167 -0.2055
  430SOL     OW 2073   2.508   3.000   1.163 -0.0093  0.4010 -0.4725
  430SOL    HW1 2074   2.598   2.968   1.154  0.2707  1.4785 -1.8500
  430SOL    HW2 2075   2.491   3.046   1.080 -1.0815  2.0388  0.6057
  431SOL     OW 2076   1.573   0.629   3.149 -0.1847 -0.0300  0.5156
  431SOL    HW1 2077   1.624   0.559   3.190  0.1923  0.0112  0.1257
  431SOL    HW2 2078   1.575   0.609   3.056 -0.9501 -0.0653  0.4957
  432SOL     OW 2079   0.463   0.314   1.155  0.1652 -0.0563  0.7199
  432SOL    HW1 2080   0.484   0.258   1.080 -0.3048 -2.6422  2.3808
  432SOL    HW2 2081   0.542   0.366   1.168  0.1604  0.6809 -1.6850
  433SOL     OW 2082   2.834   2.149   1.140  0.1244 -0.5164  0.1273
  433SOL    HW1 2083   2.769   2.100   1.189  0.3984 -1.0534 -0.0404
  433SOL    HW2 2084   2.861   2.090   1.070  0.5626 -0.1806  0.0056
  434SOL     OW 2085   2.610   2.230   2.950 -0.1576  0.7097  0.0839
  434SOL    HW1 2086   2.639   2.302   3.006  0.6440  1.1063 -0.8227
  434SOL    HW2 2087   2.613   2.265   2.861 -1.1664  0.0069 -0.2448
  435SOL     OW 2088   2.823   0.492   2.544 -0.4967  0.1047  0.0043
  435SOL    HW1 2089   2.897   0.532   2.590  0.5867  1.4324 -2.6726
  435SOL    HW2 2090   2.746   0.530   2.586  0.4124  0.6993  1.1884
  436SOL     OW 2091   0.284   3.220   2.190 -0.0678  0.3198 -0.0441
  436SOL    HW1 2092   0.288   3.308   2.154  0.2363  0.3412  0.0398
  436SOL    HW2 2093   0.335   3.225   2.271  0.3122 -0.0389 -0.2578
  437SOL     OW 2094   1.578   3.230   2.000 -0.4407 -0.2132 -0.5396
  437SOL    HW1 2095   1.501   3.282   1.976  0.6462  1.5834 -0.3497
  437SOL    HW2 2096   1.647   3.261   1.940  0.4709 -0.8148  0.1682
  438SOL     OW 2097   1.715   2.711   1.683  0.4388 -0.1804 -0.1491
  438SOL    HW1 2098   1.799   2.756   1.692  1.3532 -1.4968 -1.7518
  438SOL    HW2 2099   1.714   2.678   1.593 -1.5695 -0.6694 -0.0029
  439SOL     OW 2100   2.307   1.135   0.006 -0.3993  0.0841 -0.0304
  439SOL    HW1 2101   2.399   1.155   0.026 -0.0616 -1.6929  0.3398
  439SOL    HW2 2102   2.300   1.149  -0.089  1.1686 -2.8228 -0.7055
  440SOL     OW 2103   0.271   2.404   2.766  0.3400  0.1916  0.1976
  440SOL    HW1 2104   0.345   2.350   2.793  0.0971 -0.6316 -0.7325
  440SOL    HW2 2105   0.294   2.435   2.678 -0.2275  0.2890  0.0797
  441SOL     OW 2106   1.686   2.873   2.489  0.1431  0.4179  0.1596
  441SOL    HW1 2107   1.768   2.886   2.442 -0.0873 -0.9570 -0.6873
  441SOL    HW2 2108   1.628   2.941   2.456  1.0481  1.6806  1.0866
  442SOL     OW 2109   2.416   0.093   1.834  0.4716  0.2556 -0.2475
  442SOL    HW1 2110   2.410   0.184   1.862 -0.5584  0.1229  0.0072
  442SOL    HW2 2111   2.329   0.073   1.798  0.0411 -1.1674  1.4384
  443SOL     OW 2112   2.679   3.345   0.996 -0.3614 -0.9077 -0.3656
  443SOL    HW1 2113   2.677   3.258   0.955  1.8763 -0.9549 -0.5129
  443SOL    HW2 2114   2.628   3.334   1.076 -0.7509 -2.1585 -0.7559
  444SOL     OW 2115   1.937   2.533   1.656 -0.5490  0.2537  0.1837
  444SOL    HW1 2116   1.975   2.563   1.573 -3.3043  0.1800 -1.2095
  444SOL    HW2 2117   2.003   2.554   1.721  0.7959  2.3971 -1.7168
  445SOL     OW 2118   2.310   1.818   0.875  0.4296 -0.2003 -0.2213
  445SOL    HW1 2119   2.233   1.776   0.836  1.3424 -1.2166 -0.9978
  445SOL    HW2 2120   2.340   1.880   0.808  0.6464 -0.2544 -0.1740
  446SOL     OW 2121   1.327   1.485   1.308  0.4057 -0.8461 -0.7506
  446SOL    HW1 2122   1.384   1.552   1.346 -2.8094  2.2457 -0.8717
  446SOL    HW2 2123   1.341   1.492   1.213  0.2263 -0.4392 -0.7499
  447SOL     OW 2124   1.264   3.006   0.731 -0.0471  0.3210  0.6193
  447SOL    HW1 2125   1.261   2.946   0.657 -3.8969  0.9311  0.0274
  447SOL    HW2 2126   1.357   3.016   0.752  1.0125 -1.8720 -2.4402
  448SOL     OW 2127   0.311   3.102   1.590  0.3120 -0.0276  0.8857
  448SOL    HW1 2128   0.321   3.009   1.612 -0.6098 -0.0549  1.2649
  448SOL    HW2 2129   0.374   3.118   1.520  0.6767 -0.8696  1.0118
  449SOL     OW 2130   2.080   1.373   1.188  0.3693  0.1145  0.3823
  449SOL    HW1 2131   2.154   1.331   1.232  0.7744 -0.1807 -0.5545
  449SOL    HW2 2132   2.121   1.442   1.134  0.0271 -0.4296 -0.5929
  450SOL     OW 2133   2.257   1.283   2.846 -0.1926 -1.0244  0.6850
  450SOL    HW1 2134   2.291   1.291   2.757 -1.1908  1.0814  0.4293
  450SOL    HW2 2135   2.210   1.200   2.846  0.2039 -1.2763 -0.6136
  451SOL     OW 2136   1.906   0.980   1.871 -0.5116 -0.6044  0.0501
  451SOL    HW1 2137   1.867   0.929   1.942 -0.8157 -1.6662 -0.8720
  451SOL    HW2 2138   1.843   0.975   1.799 -0.3899  0.7993 -0.1787
  452SOL     OW 2139   0.687   0.584   2.181 -0.0522 -0.4162 -0.1800
  452SOL    HW1 2140   0.739   0.516   2.138 -0.6916 -0.5589 -0.7564
  452SOL    HW2 2141   0.675   0.553   2.270 -1.0637 -1.5031 -0.6635
  453SOL     OW 2142   0.377   0.868   3.127  0.1356  0.0230 -0.1786
  453SOL    HW1 2143   0.307   0.880   3.191  0.4413  1.2567 -0.0545
  453SOL    HW2 2144   0.331   0.853   3.044 -0.2741  0.0778  0.0380
  454SOL     OW 2145   0.092   3.311   2.663 -0.2244  0.0787  0.5685
  454SOL    HW1 2146   0.143   3.386   2.632 -0.8111 -0.0838 -0.8723
  454SOL    HW2 2147   0.075   3.330   2.755  0.8702  1.0033  0.6042
  455SOL     OW 2148   1.575   1.727   2.090  0.0839 -0.4855  0.1831
  455SOL    HW1 2149   1.583   1.819   2.115  0.8184 -0.8943  1.5816
  455SOL    HW2 2150   1.529   1.728   2.006 -0.0157  1.1417  0.2349
  456SOL     OW 2151   1.262   2.391   0.383 -0.0060 -0.1200 -0.3425
  456SOL    HW1 2152   1.338   2.439   0.416 -1.7459  1.2336  1.9999
  456SOL    HW2 2153   1.236   2.437   0.304 -0.1270  1.2654  0.4789
  457SOL     OW 2154   1.764   2.164   1.711 -0.0490 -0.6846 -0.5178
  457SOL    HW1 2155   1.846   2.157   1.759  1.2891  1.1553 -2.4041
  457SOL    HW2 2156   1.732   2.074   1.704  1.7314 -1.4178  0.3419
  458SOL     OW 2157   1.871   1.818   0.651  0.6655 -0.3973  0.4556
  458SOL    HW1 2158   1.826   1.860   0.725  1.2370 -1.6921  1.5847
  458SOL    HW2 2159   1.850   1.873   0.576 -1.3378  0.0417  1.2691
  459SOL     OW 2160   1.166   1.133   0.286  0.2906 -0.1404 -0.6298
  459SOL    HW1 2161   1.166   1.225   0.312 -1.4464 -0.2319 -0.1159
  459SOL    HW2 2162   1.236   1.093   0.337 -0.5155  0.4531  1.0133
  460SOL     OW 2163   2.433   1.420   0.670 -0.1234  0.2072  0.0524
  460SOL    HW1 2164   2.487   1.487   0.713  0.6561  0.2924 -1.0246
  460SOL    HW2 2165   2.432   1.347   0.732 -0.9771  1.1798  1.2452
  461SOL     OW 2166   1.514   1.046   0.703  0.0520  0.1207  0.1350
  461SOL    HW1 2167   1.429   1.006   0.725 -0.9709  1.4839 -1.1669
  461SOL    HW2 2168   1.535   1.100   0.779 -0.6798  0.4352  0.1228
  462SOL     OW 2169   3.362   2.438   0.739 -0.7909  0.7816 -0.1745
  462SOL    HW1 2170   3.449   2.438   0.699 -0.1952  1.1018  1.1029
  462SOL    HW2 2171   3.326   2.525   0.720 -0.6649  0.7995 -0.3298
  463SOL     OW 2172   2.221   1.932   0.427  1.1150 -0.3702  0.1828
  463SOL    HW1 2173   2.195   1.840   0.434  0.3436 -0.0451  2.3122
  463SOL    HW2 2174   2.170   1.965   0.353 -1.5515 -0.7835  1.7191
  464SOL     OW 2175   0.661   2.419   0.202 -0.2225 -0.4734 -0.3688
  464SOL    HW1 2176   0.656   2.381   0.114  0.9305 -0.7289 -0.3369
  464SOL    HW2 2177   0.728   2.487   0.195  2.5527 -2.8310  1.0841
  465SOL     OW 2178   2.920   2.784   1.784 -0.1433 -0.4148  0.3435
  465SOL    HW1 2179   2.952   2.721   1.849  0.6403 -1.8950 -1.3882
  465SOL    HW2 2180   2.899   2.731   1.708 -1.1514  1.2539 -0.5942
  466SOL     OW 2181   2.464   0.079   1.540 -0.0762  0.3747  0.2817
  466SOL    HW1 2182   2.422   0.068   1.625  2.6089  1.8731  1.9682
  466SOL    HW2 2183   2.523   0.004   1.533  0.2707  0.6546  0.1446
  467SOL     OW 2184   2.335   2.622   2.265 -0.5658  0.2333 -0.1572
  467SOL    HW1 2185   2.352   2.707   2.305 -0.0160 -0.0402  0.1897
  467SOL    HW2 2186   2.398   2.562   2.305  0.9137  0.2142 -2.3560
  468SOL     OW 2187   1.262   0.255   2.837  0.1314 -0.3457  0.1544
  468SOL    HW1 2188   1.208   0.202   2.896 -0.1104  2.1931  2.4207
  468SOL    HW2 2189   1.309   0.315   2.895 -1.1370  3.2842 -2.2395
  469SOL     OW 2190   1.521   3.206   1.273 -0.0238  0.1919  0.0030
  469SOL    HW1 2191   1.580   3.272   1.236  0.2427 -0.1590 -0.2112
  469SOL    HW2 2192   1.455   3.256   1.321 -0.7116  0.6874 -1.4149
  470SOL     OW 2193   2.408   1.115   2.276  0.3841  0.6157 -0.1991
  470SOL    HW1 2194   2.342   1.115   2.207 -0.5412  0.9522  0.6781
  470SOL    HW2 2195   2.467   1.043   2.253  0.4420  1.0998 -1.6634
  471SOL     OW 2196   1.886   2.234   1.474 -0.9403 -0.5333  0.1889
  471SOL    HW1 2197   1.868   2.320   1.436  1.3914  0.6165  1.4613
  471SOL    HW2 2198   1.839   2.233   1.557  1.9831  1.2441  2.0651
  472SOL     OW 2199   2.725   1.786   0.944  0.0546 -0.1896  0.3255
  472SOL    HW1 2200   2.677   1.830   1.015  0.0094 -1.1464  0.9042
  472SOL    HW2 2201   2.799   1.844   0.926 -1.0592  1.0864 -0.2756
  473SOL     OW 2202   3.331   0.887   2.371  0.1079  0.1485  0.0569
  473SOL    HW1 2203   3.320   0.967   2.320 -0.8051 -0.1970 -0.3100
  473SOL    HW2 2204   3.308   0.816   2.311 -0.4374 -0.2998  0.7659
  474SOL     OW 2205   0.495   2.675   2.241  0.7254 -0.3703  0.1856
  474SOL    HW1 2206   0.519   2.718   2.159  0.0758  1.4898  0.9178
  474SOL    HW2 2207   0.578   2.657   2.284  1.0373 -0.5786 -0.4810
  475SOL     OW 2208   3.205   2.705   1.664 -0.0556 -0.3167  0.6932
  475SOL    HW1 2209   3.111   2.697   1.647  0.2564  0.3285 -1.7009
  475SOL    HW2 2210   3.235   2.614   1.672 -0.8586 -0.5299  1.4056
  476SOL     OW 2211   1.774   2.539   3.099  0.2171 -0.0896 -0.2234
  476SOL    HW1 2212   1.798   2.573   3.013  0.1602  2.2352  0.6170
  476SOL    HW2 2213   1.678   2.542   3.100  0.0943 -2.1096 -0.7796
  477SOL     OW 2214   2.683   1.290   3.187  0.2990 -0.2446 -0.6225
  477SOL    HW1 2215   2.608   1.271   3.132  0.6160  2.4392 -2.1448
  477SOL    HW2 2216   2.673   1.382   3.210  1.3596 -0.6939  2.0538
  478SOL     OW 2217   3.302   0.954   0.544 -0.3373  0.2528  0.5457
  478SOL    HW1 2218   3.314   1.031   0.599 -0.4807 -0.3188  1.3928
  478SOL    HW2 2219   3.367   0.965   0.474 -0.4591  1.2095  0.5701
  479SOL     OW 2220   0.767   1.511   0.281  0.2650 -0.7706 -0.8315
  479SOL    HW1 2221   0.846   1.566   0.288 -0.2629  0.0028 -0.8067
  479SOL    HW2 2222   0.694   1.573   0.284 -0.4938 -1.6619  2.1701
  480SOL     OW 2223   3.056   1.596   0.357  0.5881  0.6362 -0.2131
  480SOL    HW1 2224   3.077   1.633   0.442 -0.5151  0.7967  0.0054
  480SOL    HW2 2225   3.023   1.670   0.306  1.4241  0.5818 -0.8573
  481SOL     OW 2226   1.655   3.299   0.838 -0.2009  0.0603 -0.1605
  481SOL    HW1 2227   1.744   3.265   0.843  0.2144  0.9627 -0.9717
  481SOL    HW2 2228   1.600   3.230   0.876  0.9830  0.1328  1.7885
  482SOL     OW 2229   1.972   2.868   1.318  0.3285 -0.3049 -0.3179
  482SOL    HW1 2230   1.960   2.956   1.355 -0.7759 -0.8439  0.6959
  482SOL    HW2 2231   2.043   2.830   1.370  0.0486 -0.3937  0.0074
  483SOL     OW 2232   0.508   0.729   2.036  0.0079  0.2563  0.4304
  483SOL    HW1 2233   0.570   0.676   2.085 -1.4080 -0.3573  1.6490
  483SOL    HW2 2234   0.445   0.759   2.102 -1.1379  0.6308 -0.7918
  484SOL     OW 2235   0.582   0.227   0.446 -0.8755 -0.7707 -0.5909
  484SOL    HW1 2236   0.557   0.319   0.432 -0.6419 -0.6522 -0.2220
  484SOL    HW2 2237   0.671   0.221   0.412 -0.6534 -0.7077 -0.0259
  485SOL     OW 2238   1.018   3.262   0.194  0.5043 -0.1259  0.3311
  485SOL    HW1 2239   1.092   3.280   0.137 -0.6993 -1.6686 -1.8555
  485SOL    HW2 2240   0.947   3.316   0.160 -0.0799 -0.6272  0.7258
  486SOL     OW 2241   3.241   1.079   1.628 -0.4002  0.6530  0.3324
  486SOL    HW1 2242   3.276   0.990   1.633  0.3087  0.9664  1.2217
  486SOL    HW2 2243   3.148   1.070   1.649 -0.3475  0.1090  0.3327
  487SOL     OW 2244   0.798   2.205   2.836 -0.1753 -0.0518  0.5208
  487SOL    HW1 2245   0.875   2.188   2.783  0.3056  1.6338  0.6401
  487SOL    HW2 2246   0.819   2.168   2.922  0.4498  0.2929  0.5169
  488SOL     OW 2247   1.047   3.019   2.724  0.0093 -0.2803 -0.7301
  488SOL    HW1 2248   1.035   3.113   2.737  0.7176  0.0967 -2.5947
  488SOL    HW2 2249   0.968   2.991   2.677 -0.1208 -0.5896 -0.3313
  489SOL     OW 2250   1.898   2.076   1.272 -0.1371 -0.0678  0.5709
  489SOL    HW1 2251   1.816   2.112   1.237  0.2548  0.6664  0.3954
  489SOL    HW2 2252   1.919   2.132   1.347  0.5572  0.1590  0.2099
  490SOL     OW 2253   0.366   0.290   2.141 -0.6582  0.3666  0.0320
  490SOL    HW1 2254   0.353   0.342   2.062 -1.4081  0.1153 -0.0217
  490SOL    HW2 2255   0.279   0.257   2.163 -0.7413  1.6207  1.8067
  491SOL     OW 2256   0.118   0.439   2.412  0.0274  0.5236 -0.1712
  491SOL    HW1 2257   0.194   0.384   2.434  0.5286  1.1761 -0.2279
  491SOL    HW2 2258   0.123   0.449   2.317 -0.4923  0.0516 -0.2478
  492SOL     OW 2259   0.228   2.808   0.712  0.5220  0.2622  0.0024
  492SOL    HW1 2260   0.207   2.838   0.801 -0.4310  1.2664 -0.5429
  492SOL    HW2 2261   0.146   2.772   0.679  0.9686 -0.4559 -0.3433
  493SOL     OW 2262   3.339   0.205   1.336 -0.7190 -0.2925 -0.0900
  493SOL    HW1 2263   3.288   0.281   1.309 -0.9768 -0.3032  0.3658
  493SOL    HW2 2264   3.305   0.133   1.284 -0.1256 -0.0029 -0.9011
  494SOL     OW 2265   1.663   0.854   2.514 -0.1665  0.2193  0.3571
  494SOL    HW1 2266   1.579   0.879   2.552  0.2750  2.3573  0.0387
  494SOL    HW2 2267   1.711   0.814   2.586 -0.4910  1.3878  1.2470
  495SOL     OW 2268   1.606   3.374   2.250 -0.3496  0.0542 -0.2196
  495SOL    HW1 2269   1.643   3.297   2.292 -0.0600 -0.4631 -1.3913
  495SOL    HW2 2270   1.589   3.347   2.160  0.8983  1.6969 -1.0166
  496SOL     OW 2271   1.239   1.310   3.325  0.7537  0.1596 -0.1562
  496SOL    HW1 2272   1.282   1.367   3.261  1.4996  0.0821  0.2689
  496SOL    HW2 2273   1.238   1.362   3.406 -0.6280  0.4522 -0.3356
  497SOL     OW 2274   1.395   2.171   2.789  0.0464  0.0518  0.0820
  497SOL    HW1 2275   1.416   2.079   2.771 -0.6186 -0.0496 -0.2268
  497SOL    HW2 2276   1.458   2.221   2.738  1.3683 -0.2121  1.3916
  498SOL     OW 2277   1.707   1.869   0.150  0.3813  0.3391 -0.3956
  498SOL    HW1 2278   1.755   1.913   0.220  0.6463 -0.0177 -0.3517
  498SOL    HW2 2279   1.771   1.856   0.081 -0.4446  3.0280 -1.8096
  499SOL     OW 2280   2.600   2.420   2.718 -0.4714  0.5296 -0.0001
  499SOL    HW1 2281   2.695   2.425   2.704 -0.3580 -0.8290  0.1712
  499SOL    HW2 2282   2.569   2.508   2.697  0.4699  0.2854 -2.8728
  500SOL     OW 2283   1.429   1.207   1.289  0.1366  0.2949  0.5425
  500SOL    HW1 2284   1.522   1.222   1.271 -0.2135 -0.5804 -2.5788
  500SOL    HW2 2285   1.384   1.275   1.239 -0.9650 -1.9757 -1.7764
  501SOL     OW 2286   2.528   1.815   0.157  0.2318 -0.2607 -0.1507
  501SOL    HW1 2287   2.517   1.821   0.252  0.4249  2.1624 -0.2263
  501SOL    HW2 2288   2.622   1.807   0.145  0.1508 -1.4962 -0.1559
  502SOL     OW 2289   1.737   1.225   1.795 -0.1173  0.9041  0.3586
  502SOL    HW1 2290   1.777   1.209   1.881 -0.6883  0.0762  0.4811
  502SOL    HW2 2291   1.645   1.203   1.807  0.3913 -3.0159 -1.4050
  503SOL     OW 2292   0.920   0.307   2.837  0.6011  0.0896  0.2657
  503SOL    HW1 2293   0.977   0.301   2.760  1.2202 -0.3609  0.7443
  503SOL    HW2 2294   0.839   0.263   2.812 -0.1469  2.0189 -0.9435
  504SOL     OW 2295   0.602   1.788   0.367 -0.0015 -0.5219  0.1186
  504SOL    HW1 2296   0.665   1.859   0.354 -1.0381  0.3505 -0.2468
  504SOL    HW2 2297   0.543   1.820   0.435 -1.1719 -0.5367 -0.8703
  505SOL     OW 2298   1.501   2.529   3.186 -0.4496  0.2460  0.2746
  505SOL    HW1 2299   1.418   2.480   3.182 -0.7005  0.6871  0.0491
  505SOL    HW2 2300   1.515   2.543   3.280  0.2115 -1.2353  0.4330
  506SOL     OW 2301   1.397   0.909   2.291  0.0771 -0.6935  1.1944
  506SOL    HW1 2302   1.332   0.845   2.321  0.6027 -1.8720 -0.0770
  506SOL    HW2 2303   1.431   0.948   2.371 -1.1560 -1.0871  1.9413
  507SOL     OW 2304   2.625   2.094   0.380  0.9143  0.3110  0.3191
  507SOL    HW1 2305   2.550   2.100   0.321  0.9443  0.8433  0.3337
  507SOL    HW2 2306   2.625   2.003   0.410 -0.4829  0.6066  1.3204
  508SOL     OW 2307   3.222   3.305   1.604 -0.3936 -0.7312  0.1429
  508SOL    HW1 2308   3.303   3.303   1.655  1.2943 -1.3360 -2.3756
  508SOL    HW2 2309   3.194   3.213   1.599 -0.4167 -0.7073 -0.2001
  509SOL     OW 2310   0.068   2.785   1.759  0.4351  0.6098 -0.8721
  509SOL    HW1 2311   0.027   2.815   1.841  0.9006  1.9120 -1.0952
  509SOL    HW2 2312  -0.006   2.770   1.700  0.1752  4.2661 -1.7199
  510SOL     OW 2313   1.244   3.043   2.491 -0.5071 -0.5996  0.2580
  510SOL    HW1 2314   1.279   3.043   2.580  0.9778  0.1483 -0.2842
  510SOL    HW2 2315   1.280   3.122   2.451 -1.0427 -0.9828 -1.0561
  511SOL     OW 2316   0.305   3.042   0.348  0.1067  0.3714  0.1928
  511SOL    HW1 2317   0.322   3.087   0.265 -0.7200  0.9148  0.3084
  511SOL    HW2 2318   0.219   3.003   0.337  0.3571 -0.2845  0.4949
  512SOL     OW 2319   1.211   2.219   2.952  0.0968 -0.3671 -0.1818
  512SOL    HW1 2320   1.130   2.196   2.907 -0.6571  0.9881  0.4456
  512SOL    HW2 2321   1.279   2.212   2.884 -1.2330  3.4752 -2.1662
  513SOL     OW 2322   0.278   2.496   2.486 -0.2483 -0.2962  0.2235
  513SOL    HW1 2323   0.349   2.485   2.422 -0.0767 -2.0278  0.6790
  513SOL    HW2 2324   0.231   2.413   2.485 -0.3682 -0.3079  2.1825
  514SOL     OW 2325   1.930   2.277   0.958 -0.2541 -0.4435  0.1056
  514SOL    HW1 2326   1.847   2.247   0.996  0.0111  0.6687  1.6626
  514SOL    HW2 2327   1.988   2.288   1.034  1.0748 -0.4173 -0.8772
  515SOL     OW 2328   2.875   3.211   1.745 -0.0293  0.0242  0.6605
  515SOL    HW1 2329   2.841   3.262   1.819  1.3462  2.5758 -0.3551
  515SOL    HW2 2330   2.850   3.261   1.668  2.0785 -0.3735 -0.3563
  516SOL     OW 2331   2.203   2.903   1.755 -0.4382 -0.2231 -0.3273
  516SOL    HW1 2332   2.267   2.963   1.715 -1.0068  1.3070  0.9677
  516SOL    HW2 2333   2.216   2.913   1.849 -0.2106 -2.5706 -0.0574
  517SOL     OW 2334   1.580   1.675   0.298  0.2732  0.4932 -0.1127
  517SOL    HW1 2335   1.627   1.745   0.254 -0.1529  1.2678  0.6385
  517SOL    HW2 2336   1.506   1.718   0.339 -0.5488 -0.5521 -0.4461
  518SOL     OW 2337   1.486   0.622   2.131 -0.2693  0.1921 -0.4649
  518SOL    HW1 2338   1.554   0.672   2.086 -1.1483  1.6929 -0.1933
  518SOL    HW2 2339   1.521   0.607   2.219  1.2973 -2.4317 -1.4111
  519SOL     OW 2340   2.744   1.368   0.682 -0.1474  0.1483 -1.0138
  519SOL    HW1 2341   2.810   1.429   0.648 -0.7530  1.6048  0.3106
  519SOL    HW2 2342   2.685   1.422   0.734 -0.6061 -1.5916  0.4009
  520SOL     OW 2343   2.034   1.742   3.042 -0.0419  0.3089 -0.5767
  520SOL    HW1 2344   2.091   1.689   3.098 -0.5337 -0.4392 -0.7757
  520SOL    HW2 2345   2.078   1.743   2.958  1.5949  2.8630  0.1979
  521SOL     OW 2346   0.507   2.773   0.643  0.3172 -0.1627 -0.3095
  521SOL    HW1 2347   0.520   2.688   0.600 -1.5344 -0.6393 -0.0230
  521SOL    HW2 2348   0.412   2.782   0.649  0.4994  1.3958  0.7561
  522SOL     OW 2349   2.924   2.775   2.257 -0.5307  0.0809  0.3441
  522SOL    HW1 2350   2.905   2.850   2.314 -0.0801  0.2138  0.3230
  522SOL    HW2 2351   2.954   2.706   2.317 -0.4586  0.0841  0.3118
  523SOL     OW 2352   0.829   3.035   1.941 -0.3208  0.1147 -0.5161
  523SOL    HW1 2353   0.775   3.001   2.012 -1.2165 -0.6538 -1.5390
  523SOL    HW2 2354   0.768   3.048   1.869  0.4019  1.8385 -0.8524
  524SOL     OW 2355   0.704   2.683   2.033 -0.2552  0.0249  0.6601
  524SOL    HW1 2356   0.777   2.695   2.094 -0.0100  1.3161  0.1428
  524SOL    HW2 2357   0.672   2.772   2.017 -0.8611 -0.3765 -0.4213
  525SOL     OW 2358   1.549   2.528   2.448  0.2832 -0.4773  0.1885
  525SOL    HW1 2359   1.520   2.574   2.370 -1.4292  1.6375  1.9221
  525SOL    HW2 2360   1.643   2.545   2.453  0.3209 -0.2158 -1.1287
  526SOL     OW 2361   1.557   2.502   2.877  0.0467 -0.0544 -0.2379
  526SOL    HW1 2362   1.600   2.571   2.827 -1.8785  0.3963 -1.3480
  526SOL    HW2 2363   1.467   2.532   2.888 -0.8139 -2.3027 -0.6025
  527SOL     OW 2364   0.381   3.348   1.279  0.0238 -0.2105 -0.0676
  527SOL    HW1 2365   0.369   3.408   1.353  0.5692 -0.7185  0.4435
  527SOL    HW2 2366   0.306   3.289   1.283  0.9587 -1.3856  1.2065
  528SOL     OW 2367   2.009   3.131   1.982 -0.0756 -0.0708  0.1943
  528SOL    HW1 2368   2.077   3.067   1.961  0.3469  0.2217  0.6554
  528SOL    HW2 2369   2.054   3.215   1.982 -0.2063  0.0151  1.5530
  529SOL     OW 2370   1.355   0.909   0.449 -0.1552 -0.2544 -0.2528
  529SOL    HW1 2371   1.419   0.966   0.491 -0.0273  0.1431 -0.9678
  529SOL    HW2 2372   1.327   0.848   0.518  0.9076 -0.3623  0.0986
  530SOL     OW 2373   3.308   0.724   0.680 -0.1701  0.0863  0.4036
  530SOL    HW1 2374   3.325   0.807   0.635 -2.3456  1.0233  1.1791
  530SOL    HW2 2375   3.282   0.749   0.769 -1.0461 -1.3908  0.6073
  531SOL     OW 2376   0.424   1.163   0.243  0.1258 -0.0728  0.2758
  531SOL    HW1 2377   0.416   1.257   0.223 -0.7759 -0.5348 -1.7791
  531SOL    HW2 2378   0.483   1.129   0.176 -0.2505 -1.1310  0.4640
  532SOL     OW 2379   0.561   1.531   3.355  0.1561  0.1319 -0.7783
  532SOL    HW1 2380   0.646   1.557   3.321  1.0118 -2.4210 -0.7956
  532SOL    HW2 2381   0.530   1.608   3.403  2.6476  1.0025 -0.4252
  533SOL     OW 2382   0.044   1.907   1.080 -0.1055  0.5898  0.1676
  533SOL    HW1 2383   0.035   1.852   1.157  1.2435 -0.7453 -0.5825
  533SOL    HW2 2384   0.059   1.846   1.008  2.2201  1.9215 -0.5753
  534SOL     OW 2385   0.019   0.444   1.077  0.2532 -0.3090  0.2422
  534SOL    HW1 2386   0.095   0.390   1.057  0.3459  0.1933 -0.8367
  534SOL    HW2 2387   0.053   0.517   1.128  0.7126  0.5129 -1.1874
  535SOL     OW 2388   1.468   0.844   0.966  0.4285 -0.2372  0.5174
  535SOL    HW1 2389   1.549   0.887   0.939  0.1956  0.0079  0.2166
  535SOL    HW2 2390   1.496   0.786   1.037  1.1008 -1.0904 -0.4057
  536SOL     OW 2391   2.618   1.605   0.760  0.0985 -0.7482 -0.2605
  536SOL    HW1 2392   2.595   1.662   0.686  3.2705 -0.7459 -1.4230
  536SOL    HW2 2393   2.650   1.665   0.827  1.7575 -0.9552 -0.8083
  537SOL     OW 2394   2.616   3.222   1.542 -0.2377 -0.4641 -0.1475
  537SOL    HW1 2395   2.612   3.194   1.633 -1.6000  1.7956  0.5511
  537SOL    HW2 2396   2.708   3.213   1.518  0.2299 -0.6051  1.6087
  538SOL     OW 2397   2.454   2.991   1.883 -0.5722  0.0808  0.2892
  538SOL    HW1 2398   2.464   3.035   1.967 -1.7001 -1.0927  1.0720
  538SOL    HW2 2399   2.514   3.037   1.824  0.7325  0.4866  1.8863
  539SOL     OW 2400   3.034   0.841   0.467  0.2196  0.1021  0.0214
  539SOL    HW1 2401   3.077   0.787   0.401  0.2474  1.4199 -1.0933
  539SOL    HW2 2402   3.096   0.912   0.484 -0.3224  0.4653  0.5152
  540SOL     OW 2403   0.444   2.579   3.356 -0.2828  0.6662 -0.1069
  540SOL    HW1 2404   0.418   2.515   3.291  0.7367  1.0742 -0.9480
  540SOL    HW2 2405   0.524   2.618   3.321  0.5047  0.6465  1.5571
  541SOL     OW 2406   2.724   2.260   2.300 -0.1490 -0.3086 -0.7897
  541SOL    HW1 2407   2.804   2.289   2.343 -2.1175  0.9630  2.3307
  541SOL    HW2 2408   2.718   2.315   2.222  0.8348  1.2959  0.1995
  542SOL     OW 2409   1.722   2.609   2.125  0.1375  0.4113  0.2750
  542SOL    HW1 2410   1.758   2.592   2.212  2.1960 -2.5493 -0.9779
  542SOL    HW2 2411   1.775   2.681   2.091  0.8251  0.1181  0.7051
  543SOL     OW 2412   1.416   0.911   3.159 -0.0580  0.1748 -0.0558
  543SOL    HW1 2413   1.424   0.990   3.212 -1.3169  0.9873 -1.0190
  543SOL    HW2 2414   1.367   0.939   3.082  2.7897 -0.6150 -2.3635
  544SOL     OW 2415   1.683   1.585   0.537 -0.5651  0.3349  0.4808
  544SOL    HW1 2416   1.650   1.621   0.455 -4.0283  0.4032  1.7314
  544SOL    HW2 2417   1.737   1.655   0.574  0.3413  0.6176 -1.2899
  545SOL     OW 2418   1.565   1.362   2.919 -0.5392  0.8580 -0.6137
  545SOL    HW1 2419   1.615   1.327   2.845 -1.5137  0.0341 -0.9079
  545SOL    HW2 2420   1.603   1.448   2.936  1.3977  0.0083 -0.4090
  546SOL     OW 2421   2.100   0.006   2.027 -0.0095  0.4502 -0.0864
  546SOL    HW1 2422   2.118   0.034   1.937  0.5687  0.4858  0.0325
  546SOL    HW2 2423   2.029   0.062   2.056 -0.5259  0.1240 -0.6793
  547SOL     OW 2424   1.580   1.489   1.925 -0.4429  0.0908 -0.0231
  547SOL    HW1 2425   1.541   1.528   1.846 -1.1392  0.1056  0.3171
  547SOL    HW2 2426   1.551   1.398   1.923  0.0567 -0.0666 -0.1084
  548SOL     OW 2427   1.788   1.828   2.969 -0.1175 -0.7204  0.7452
  548SOL    HW1 2428   1.863   1.791   3.015  1.0636 -1.3372 -1.5109
  548SOL    HW2 2429   1.821   1.909   2.931 -0.2945 -1.4000 -0.9420
  549SOL     OW 2430   0.388   0.119   1.521  0.4634  0.3577  0.7990
  549SOL    HW1 2431   0.332   0.137   1.596 -0.1169  0.9015  0.2462
  549SOL    HW2 2432   0.469   0.082   1.559 -0.5542 -1.2058  1.5645
  550SOL     OW 2433   0.996   2.450   0.124  0.2252  0.6655  0.1647
  550SOL    HW1 2434   1.086   2.483   0.130 -0.0608  1.2450  1.5084
  550SOL    HW2 2435   0.941   2.524   0.151 -0.7861  0.7863 -1.9321
  551SOL     OW 2436   0.324   2.828   2.006  0.2343 -0.0004 -0.2767
  551SOL    HW1 2437   0.367   2.895   2.060  0.6310  0.2528 -0.9065
  551SOL    HW2 2438   0.234   2.826   2.039  0.8048 -0.8516  1.3662
  552SOL     OW 2439   2.328   0.687   0.240  0.0929  0.2515 -0.2690
  552SOL    HW1 2440   2.271   0.613   0.261  0.8783  0.2765  2.2745
  552SOL    HW2 2441   2.268   0.760   0.225 -0.6992  0.6661  3.8564
  553SOL     OW 2442   2.038   3.068   2.922 -0.1479  0.1019 -0.7346
  553SOL    HW1 2443   2.115   3.081   2.867  0.4016 -0.1103 -0.0225
  553SOL    HW2 2444   2.073   3.047   3.008 -1.0021  0.5470 -0.2690
  554SOL     OW 2445   3.074   0.484   2.135  0.1191 -0.5561 -0.0959
  554SOL    HW1 2446   3.042   0.473   2.045 -0.3981  0.6453 -0.0694
  554SOL    HW2 2447   2.998   0.515   2.184  1.0151  1.2987  0.2049
  555SOL     OW 2448   0.383   0.653   2.776 -0.6830 -0.4743 -0.1076
  555SOL    HW1 2449   0.464   0.687   2.739  0.7479 -1.6617  1.7212
  555SOL    HW2 2450   0.327   0.637   2.700  0.0905  1.9973 -1.3022
  556SOL     OW 2451   1.905   3.138   0.017 -0.0382 -0.0189 -0.1205
  556SOL    HW1 2452   1.908   3.131  -0.079 -1.6090 -0.0761 -0.1894
  556SOL    HW2 2453   1.870   3.226   0.033  0.1128 -0.0549  0.4017
  557SOL     OW 2454   2.723   0.222   2.682  0.5209  0.0479  0.6318
  557SOL    HW1 2455   2.741   0.283   2.754 -0.1141  2.3857 -1.0767
  557SOL    HW2 2456   2.736   0.274   2.603  2.8718 -2.9046 -1.0892
  558SOL     OW 2457   1.525   1.241   1.551 -0.7541  0.4040  0.2066
  558SOL    HW1 2458   1.455   1.218   1.490 -0.5624  0.2788  0.0341
  558SOL    HW2 2459   1.531   1.336   1.546  0.3281  0.2863 -1.1552
  559SOL     OW 2460   3.252   0.693   2.213  0.6408 -0.4332  0.4524
  559SOL    HW1 2461   3.332   0.645   2.193 -0.5542 -1.4119 -2.6954
  559SOL    HW2 2462   3.181   0.630   2.196 -0.9319  1.7704 -2.0199
  560SOL     OW 2463   2.059   0.628   2.591  0.3737  0.6057 -0.4654
  560SOL    HW1 2464   1.965   0.645   2.583  0.0181 -1.5947 -1.8162
  560SOL    HW2 2465   2.069   0.591   2.678 -0.2065 -0.1952 -0.7328
  561SOL     OW 2466   2.622   1.943   1.178  0.4219  0.5277 -0.1871
  561SOL    HW1 2467   2.662   1.877   1.234  2.0272  2.0731  0.5991
  561SOL    HW2 2468   2.533   1.954   1.213  0.6542 -0.1183  0.6375
  562SOL     OW 2469   1.300   0.184   0.616 -0.0791 -0.2429  0.1630
  562SOL    HW1 2470   1.218   0.164   0.571 -0.7650  2.0220  0.2461
  562SOL    HW2 2471   1.348   0.102   0.617 -1.6174 -1.2390 -1.4259
  563SOL     OW 2472   1.595   2.011   2.093 -0.1724  0.1905 -0.0962
  563SOL    HW1 2473   1.686   2.039   2.083 -0.6135  1.3319 -1.1159
  563SOL    HW2 2474   1.543   2.083   2.057 -1.4362 -1.0832 -0.9379
  564SOL     OW 2475   3.311   1.890   0.609  0.2475 -0.1566 -0.3044
  564SOL    HW1 2476   3.225   1.849   0.605 -0.8620  2.0296 -0.2547
  564SOL    HW2 2477   3.297   1.971   0.658  1.5044  2.0725 -3.3055
  565SOL     OW 2478   1.702   2.257   1.140  0.5991  0.4361  0.4096
  565SOL    HW1 2479   1.610   2.278   1.124  0.8894  1.4181 -0.0712
  565SOL    HW2 2480   1.740   2.338   1.175  1.3411  0.1338  0.3283
  566SOL     OW 2481   1.571   0.346   2.522  0.1696 -0.1661 -0.4551
  566SOL    HW1 2482   1.546   0.285   2.592  0.4539  0.1358 -0.0872
  566SOL    HW2 2483   1.531   0.309   2.443 -0.7231 -0.1413 -0.0243
  567SOL     OW 2484   2.586   0.610   2.640 -0.8365 -0.0759 -0.1425
  567SOL    HW1 2485   2.584   0.661   2.721 -0.7306 -0.2327 -0.0399
  567SOL    HW2 2486   2.535   0.661   2.578  0.8376  1.1082 -0.6034
  568SOL     OW 2487   0.727   2.890   2.781 -0.0701 -0.2491 -0.2302
  568SOL    HW1 2488   0.639   2.923   2.764  0.6632  0.7809 -2.4409
  568SOL    HW2 2489   0.762   2.948   2.849 -1.0172 -0.6106  0.5954
  569SOL     OW 2490   0.850   2.131   3.115  0.4012 -0.0904  0.1026
  569SOL    HW1 2491   0.912   2.166   3.178  1.4323 -0.5331 -0.6260
  569SOL    HW2 2492   0.764   2.138   3.158  0.5200  3.1464  0.0513
  570SOL     OW 2493   0.968   2.184   0.661 -0.4390  0.3535  0.2593
  570SOL    HW1 2494   0.950   2.268   0.619  2.0542  0.1237 -1.5038
  570SOL    HW2 2495   0.895   2.128   0.635 -0.2918  0.9788 -1.6454
  571SOL     OW 2496   2.155   2.028   2.924  1.2849 -0.1550 -0.4173
  571SOL    HW1 2497   2.118   2.111   2.894 -0.4914 -1.0704 -0.8791
  571SOL    HW2 2498   2.190   1.988   2.844 -0.8822 -1.3087 -0.8583
  572SOL     OW 2499   2.605   1.053   1.984  0.4533  0.2516  0.5678
  572SOL    HW1 2500   2.514   1.070   1.960  0.4409 -1.1694 -0.5475
  572SOL    HW2 2501   2.600   1.011   2.070 -0.3010 -2.7720 -0.7914
  573SOL     OW 2502   0.171   2.182   0.383  0.3305  0.0154 -0.1715
  573SOL    HW1 2503   0.119   2.244   0.332 -0.2259  0.6610  1.1459
  573SOL    HW2 2504   0.247   2.233   0.412  0.5212 -0.2826 -0.1375
  574SOL     OW 2505   3.196   0.975   3.198  0.0108  0.4487  0.5127
  574SOL    HW1 2506   3.162   0.937   3.117 -0.5881  0.2118  0.8696
  574SOL    HW2 2507   3.282   0.934   3.209 -0.6692 -0.9260  0.9548
  575SOL     OW 2508   1.464   1.670   2.361  0.2623 -0.1263  0.9644
  575SOL    HW1 2509   1.467   1.763   2.385 -0.6441  0.2587 -0.2987
  575SOL    HW2 2510   1.491   1.668   2.269  0.4494 -1.1431  1.0274
  576SOL     OW 2511   1.075   1.381   2.942  0.2889 -0.3341 -0.2851
  576SOL    HW1 2512   1.116   1.372   2.856  2.3015 -0.9188  0.6687
  576SOL    HW2 2513   1.144   1.418   2.997 -1.0414  0.2737  1.0401
  577SOL     OW 2514   1.572   2.335   2.653 -0.0129  0.4350 -0.0232
  577SOL    HW1 2515   1.624   2.394   2.707  1.9824  0.2187 -1.5708
  577SOL    HW2 2516   1.541   2.389   2.580 -2.5545  0.6950  1.1513
  578SOL     OW 2517   1.869   2.728   0.090  0.5023 -0.0010 -0.0725
  578SOL    HW1 2518   1.951   2.776   0.077  0.1297  0.5730 -0.3668
  578SOL    HW2 2519   1.895   2.637   0.100  1.1014  0.0254 -1.2133
  579SOL     OW 2520   0.418   2.307   0.493  0.2239  0.0696 -0.3861
  579SOL    HW1 2521   0.507   2.292   0.524 -0.0074 -1.5182 -0.4557
  579SOL    HW2 2522   0.421   2.285   0.400 -0.0113  1.0677 -0.6486
  580SOL     OW 2523   1.419   0.646   2.582  0.0990  0.1636  0.0704
  580SOL    HW1 2524   1.500   0.625   2.536 -0.2714 -0.4582 -0.3059
  580SOL    HW2 2525   1.397   0.567   2.631  0.1033  0.5779  0.7475
  581SOL     OW 2526   2.256   0.290   2.748 -0.0091  0.1358 -0.1254
  581SOL    HW1 2527   2.241   0.205   2.789  2.4385  0.3108  1.2738
  581SOL    HW2 2528   2.294   0.344   2.817  0.3722  1.7661 -1.5368
  582SOL     OW 2529   2.854   1.880   0.652  0.0881 -0.3132  0.2871
  582SOL    HW1 2530   2.804   1.832   0.585 -1.2133 -2.1279  2.4035
  582SOL    HW2 2531   2.799   1.954   0.674 -0.5430 -0.9396  0.8667
  583SOL     OW 2532   2.147   3.099   1.300  0.1660 -0.0538  0.1380
  583SOL    HW1 2533   2.206   3.025   1.283  0.1192 -0.4719  1.6901
  583SOL    HW2 2534   2.185   3.171   1.249  1.9235 -0.3638  0.9361
  584SOL     OW 2535   3.204   1.558   1.416  0.4555 -0.0944  0.0902
  584SOL    HW1 2536   3.229   1.478   1.463 -1.5860 -1.6271 -1.2202
  584SOL    HW2 2537   3.117   1.579   1.450  0.7718  1.3231  0.0711
  585SOL     OW 2538   1.932   3.110   1.551 -0.3047  0.2247 -0.6266
  585SOL    HW1 2539   2.021   3.143   1.564 -0.0447 -0.1413 -1.3738
  585SOL    HW2 2540   1.888   3.178   1.500 -1.1062  1.3407  1.4520
  586SOL     OW 2541   0.604   2.808   0.118  0.3592  0.6286  0.3206
  586SOL    HW1 2542   0.545   2.745   0.160  0.3516  0.1200 -0.4480
  586SOL    HW2 2543   0.626   2.870   0.188  0.1070 -0.0373  1.0017
  587SOL     OW 2544   2.018   1.680   0.344 -1.2167  0.8334  0.1679
  587SOL    HW1 2545   1.998   1.626   0.267 -0.7387  1.6124 -0.5170
  587SOL    HW2 2546   2.054   1.618   0.407  0.8823  0.5581 -1.1897
  588SOL     OW 2547   1.487   2.210   1.923  0.3175 -0.0279 -0.1358
  588SOL    HW1 2548   1.416   2.164   1.880  1.3188 -0.8165 -1.0038
  588SOL    HW2 2549   1.533   2.256   1.852  0.9804  0.0318  0.3198
  589SOL     OW 2550   3.291   3.317   2.429  0.6188  0.7049  0.2302
  589SOL    HW1 2551   3.365   3.322   2.488  2.1335 -2.0287 -1.2317
  589SOL    HW2 2552   3.248   3.234   2.451  0.4549  0.2651 -1.5480
  590SOL     OW 2553   3.176   2.417   1.750  0.1277 -0.3496  0.0191
  590SOL    HW1 2554   3.140   2.442   1.834  4.1652  1.5078  1.4831
  590SOL    HW2 2555   3.251   2.361   1.771  0.5256 -0.8479 -2.3881
  591SOL     OW 2556   1.724   1.087   2.971  0.2746  0.3635  0.5360
  591SOL    HW1 2557   1.689   1.148   3.035 -0.4200  0.3997  0.1399
  591SOL    HW2 2558   1.751   1.010   3.022 -0.8782  0.1234  0.8083
  592SOL     OW 2559   1.591   0.055   3.012  0.0244  0.0554 -0.2634
  592SOL    HW1 2560   1.684   0.070   3.029  0.0798 -0.0905 -0.4206
  592SOL    HW2 2561   1.590  -0.031   2.968 -0.1485  0.2264 -0.5935
  593SOL     OW 2562   3.078   2.550   2.408 -0.0260 -0.7423  0.3567
  593SOL    HW1 2563   3.130   2.542   2.488 -0.3189  0.9475  0.7736
  593SOL    HW2 2564   3.032   2.466   2.401  2.0344 -1.9369  0.4507
  594SOL     OW 2565   0.892   2.222   0.256 -0.0821 -0.1768  0.0865
  594SOL    HW1 2566   0.913   2.301   0.208 -1.8017  0.2314 -0.0647
  594SOL    HW2 2567   0.975   2.175   0.264  0.5141  0.4375 -1.9871
  595SOL     OW 2568   0.163   1.320   0.536  0.4124 -0.3550  0.0572
  595SOL    HW1 2569   0.068   1.331   0.530  0.6682  1.4180 -3.2929
  595SOL    HW2 2570   0.192   1.388   0.597 -0.3686  0.0319  0.0061
  596SOL     OW 2571   1.677   0.615   1.807  0.3081  0.0145  0.9798
  596SOL    HW1 2572   1.740   0.629   1.878 -1.9948  0.8574  3.0090
  596SOL    HW2 2573   1.607   0.677   1.825 -0.7346 -0.2745 -1.6696
  597SOL     OW 2574   1.045   0.836   0.094 -0.4541 -0.6038 -0.0148
  597SOL    HW1 2575   0.986   0.776   0.049 -1.6802 -0.3715  1.2008
  597SOL    HW2 2576   1.002   0.922   0.087  0.9454  0.0470 -1.1649
  598SOL     OW 2577   1.074   2.221   1.954 -0.3650  0.1863  0.0316
  598SOL    HW1 2578   0.983   2.194   1.967 -0.8212 -0.1116 -2.9902
  598SOL    HW2 2579   1.073   2.316   1.970 -1.5514  0.4256 -1.2577
  599SOL     OW 2580   1.218   0.622   2.116  0.1794  0.5151  0.5557
  599SOL    HW1 2581   1.309   0.643   2.096  0.7261  0.3159  2.6581
  599SOL    HW2 2582   1.180   0.704   2.148  0.2822  0.0874  1.8356
  600SOL     OW 2583   2.859   3.206   1.476 -0.2045 -0.3096  0.3892
  600SOL    HW1 2584   2.861   3.280   1.415 -0.4737 -0.2082  0.5040
  600SOL    HW2 2585   2.905   3.136   1.429 -0.7187 -0.3440 -0.0811
  601SOL     OW 2586   2.131   1.091   1.020  0.2462 -0.0739  0.2892
  601SOL    HW1 2587   2.123   1.106   1.114  1.6593  1.1125  0.2695
  601SOL    HW2 2588   2.053   1.132   0.982  0.1479  0.2864  0.8740
  602SOL     OW 2589   1.932   2.262   3.039 -0.0810  0.5361  0.6953
  602SOL    HW1 2590   2.013   2.300   3.073  0.6596  0.0718 -0.5119
  602SOL    HW2 2591   1.872   2.337   3.033  0.7991  1.2136  0.0048
  603SOL     OW 2592   1.305   2.504   0.799  0.2000 -0.5397  0.3848
  603SOL    HW1 2593   1.340   2.525   0.712  0.1981 -0.9123  0.2933
  603SOL    HW2 2594   1.312   2.586   0.848 -0.6630 -0.0734 -0.2513
  604SOL     OW 2595   1.518   0.137   2.718  0.6949 -0.2205  1.0526
  604SOL    HW1 2596   1.543   0.045   2.728  0.0106 -0.7819 -1.4817
  604SOL    HW2 2597   1.429   0.142   2.752  0.9473 -0.3469  1.7414
  605SOL     OW 2598   0.452   3.214   2.409  0.0578 -0.2789 -0.5329
  605SOL    HW1 2599   0.506   3.140   2.439  0.0073 -0.1303 -0.0714
  605SOL    HW2 2600   0.508   3.259   2.346  0.1258 -0.6592 -0.7500
  606SOL     OW 2601   2.951   2.485   0.658 -0.2341 -0.1894 -0.3476
  606SOL    HW1 2602   2.904   2.448   0.733  0.0232  0.3452  0.0857
  606SOL    HW2 2603   2.985   2.409   0.611 -0.8212 -0.5496 -0.2003
  607SOL     OW 2604   1.460   1.441   2.500  0.1502  0.0436 -0.2130
  607SOL    HW1 2605   1.452   1.514   2.439 -0.1075 -0.8589 -1.2947
  607SOL    HW2 2606   1.544   1.401   2.479 -0.2413 -0.6742 -0.4338
  608SOL     OW 2607   0.227   0.884   3.360 -0.0963  1.2351  0.0995
  608SOL    HW1 2608   0.299   0.865   3.420 -1.2679 -0.8673  0.9681
  608SOL    HW2 2609   0.163   0.932   3.414 -0.5084  0.6639  0.1292
  609SOL     OW 2610   2.166   2.839   1.110  0.1616 -0.6168  0.1021
  609SOL    HW1 2611   2.135   2.847   1.200  0.3209  1.0140  0.0449
  609SOL    HW2 2612   2.086   2.836   1.057  0.0700 -1.2507  0.2790
  610SOL     OW 2613   1.877   2.089   0.054 -0.4762  0.1430 -0.1987
  610SOL    HW1 2614   1.901   2.046  -0.028 -1.9171 -0.5978 -0.2605
  610SOL    HW2 2615   1.799   2.140   0.033 -0.7429  0.1071  0.6622
  611SOL     OW 2616   1.234   2.395   3.167  0.0138  0.7680  0.3783
  611SOL    HW1 2617   1.219   2.361   3.078  0.7653  2.3947 -0.4222
  611SOL    HW2 2618   1.151   2.379   3.213  0.0829 -1.4175 -0.1199
  612SOL     OW 2619   1.758   0.987   3.248 -0.2875 -0.1613  0.9276
  612SOL    HW1 2620   1.716   1.056   3.300 -0.6271 -0.1443  0.6387
  612SOL    HW2 2621   1.701   0.911   3.260 -1.3646  0.3148 -0.8102
  613SOL     OW 2622   0.329   0.415   1.903 -0.4822 -0.0797  0.1001
  613SOL    HW1 2623   0.347   0.503   1.870 -0.4784 -0.8027 -1.9678
  613SOL    HW2 2624   0.252   0.387   1.854 -0.5320 -1.2112  0.7949
  614SOL     OW 2625   0.795   0.010   2.547  0.1475  0.1641 -0.0446
  614SOL    HW1 2626   0.753   0.011   2.461  1.4709  0.1533 -0.7206
  614SOL    HW2 2627   0.888   0.026   2.529  0.5675 -0.5363  1.3115
  615SOL     OW 2628   2.546   0.001   2.640  0.1865  0.1538 -0.3935
  615SOL    HW1 2629   2.524   0.006   2.547 -0.2950 -5.0511 -0.8398
  615SOL    HW2 2630   2.611   0.070   2.653 -0.6043  1.8885 -4.2361
  616SOL     OW 2631   3.107   3.075   1.660 -0.9413  0.6062 -0.3126
  616SOL    HW1 2632   3.020   3.116   1.661 -0.9517  0.5806  1.1889
  616SOL    HW2 2633   3.094   2.991   1.703 -0.2318  0.4392 -0.4191
  617SOL     OW 2634   0.509   3.163   1.400 -0.5329 -0.2666  0.0178
  617SOL    HW1 2635   0.593   3.198   1.429 -0.6029 -0.7126  0.7759
  617SOL    HW2 2636   0.474   3.231   1.343  0.0969  0.1574  0.1198
  618SOL     OW 2637   0.518   0.195   2.563  0.7876 -0.4903  0.0513
  618SOL    HW1 2638   0.508   0.201   2.468 -0.5071  0.1808  0.2090
  618SOL    HW2 2639   0.473   0.272   2.596 -0.0931 -1.5088  1.2930
  619SOL     OW 2640   2.435   0.355   2.577 -0.0428  0.3351  0.0776
  619SOL    HW1 2641   2.373   0.322   2.642  1.3211  0.5188  1.5303
  619SOL    HW2 2642   2.453   0.445   2.603 -0.8139  1.0389 -1.6311
  620SOL     OW 2643   1.872   1.475   1.833  0.1440 -0.4455 -0.3833
  620SOL    HW1 2644   1.939   1.423   1.878  0.5243 -0.3666 -0.8573
  620SOL    HW2 2645   1.815   1.409   1.793 -0.2658 -0.5195  0.3021
  621SOL     OW 2646   1.242   3.246   0.598  0.3207 -0.4543 -0.3721
  621SOL    HW1 2647   1.205   3.169   0.641 -0.5652 -1.3130 -2.5629
  621SOL    HW2 2648   1.319   3.213   0.551  0.5226  0.1979 -0.5125
  622SOL     OW 2649   3.255   0.598   3.230 -0.4730 -0.1008  0.0623
  622SOL    HW1 2650   3.230   0.568   3.142 -2.5192  2.6890 -0.4266
  622SOL    HW2 2651   3.327   0.659   3.215 -0.8781  0.4406  0.3168
  623SOL     OW 2652   0.616   0.375   3.315  0.3687  0.5441 -0.0820
  623SOL    HW1 2653   0.617   0.469   3.337 -1.2289  0.9809 -1.6316
  623SOL    HW2 2654   0.694   0.340   3.358  2.8038  3.1545 -1.9696
  624SOL     OW 2655   1.503   0.103   3.269  0.4316  0.1266  0.0321
  624SOL    HW1 2656   1.525   0.146   3.185  1.2804  1.8319  1.0682
  624SOL    HW2 2657   1.492   0.011   3.246  1.4834  0.3997 -1.8251
  625SOL     OW 2658   2.628   2.560   0.922  0.2220 -0.0297  0.6237
  625SOL    HW1 2659   2.612   2.465   0.923  0.5177 -0.1747 -1.9717
  625SOL    HW2 2660   2.541   2.599   0.912 -0.1066  0.1478  3.3888
  626SOL     OW 2661   1.790   0.522   2.565 -0.6197  0.2381 -0.2540
  626SOL    HW1 2662   1.717   0.461   2.562 -0.8754  0.5728 -1.2614
  626SOL    HW2 2663   1.760   0.593   2.623 -1.2436  0.5480 -0.9433
  627SOL     OW 2664   0.093   0.382   1.757 -0.6087  0.3348 -0.3889
  627SOL    HW1 2665   0.088   0.291   1.729  1.1788  0.3254 -0.8532
  627SOL    HW2 2666   0.078   0.433   1.677 -1.1897  0.4397 -0.2142
  628SOL     OW 2667   3.161   2.409   0.992 -0.7298 -0.2858  0.1281
  628SOL    HW1 2668   3.172   2.320   0.958 -0.0300 -0.6488  1.2486
  628SOL    HW2 2669   3.082   2.442   0.949  0.7548 -0.2432 -2.7926
  629SOL     OW 2670   1.903   1.749   3.313  0.0259  0.1053  0.6225
  629SOL    HW1 2671   1.942   1.811   3.252  1.5983 -1.5156 -0.1519
  629SOL    HW2 2672   1.816   1.731   3.278 -0.4978  1.9018  0.9329
  630SOL     OW 2673   0.278   0.549   1.207 -0.1274  0.4424 -0.2624
  630SOL    HW1 2674   0.360   0.592   1.181 -0.8184  0.5726 -2.4079
  630SOL    HW2 2675   0.307   0.470   1.254  1.1681  1.5023  0.8108
  631SOL     OW 2676   0.115   2.916   1.472  0.2681 -0.2944 -0.6416
  631SOL    HW1 2677   0.097   2.883   1.560 -1.4320  1.7051 -0.1690
  631SOL    HW2 2678   0.211   2.926   1.469  0.4907 -1.8267  0.4000
  632SOL     OW 2679   3.326   0.325   2.012  0.4277  0.1258 -0.5806
  632SOL    HW1 2680   3.344   0.256   1.947 -0.5172 -0.2914 -0.4143
  632SOL    HW2 2681   3.236   0.351   1.995  0.3784  0.4596  0.1680
  633SOL     OW 2682   0.010   0.352   2.702  1.1593  0.1146  0.5809
  633SOL    HW1 2683  -0.039   0.415   2.650 -0.3316 -0.8907  0.7192
  633SOL    HW2 2684  -0.010   0.376   2.793  0.4287 -0.6476  0.6338
  634SOL     OW 2685   0.158   0.005   0.961  0.1922 -0.3637 -0.4910
  634SOL    HW1 2686   0.087  -0.027   1.017 -0.7866 -0.7648 -1.8905
  634SOL    HW2 2687   0.180   0.091   0.997 -0.0516 -0.8217  0.7905
  635SOL     OW 2688   2.137   2.216   2.669 -0.3221  1.2149 -0.0704
  635SOL    HW1 2689   2.086   2.281   2.717  1.0344  0.1494  3.0789
  635SOL    HW2 2690   2.228   2.245   2.679  0.2417 -0.7100  0.7653
  636SOL     OW 2691   0.304   0.751   1.779  0.0238  0.1962 -0.4725
  636SOL    HW1 2692   0.356   0.780   1.853  0.4991  0.9669 -1.0962
  636SOL    HW2 2693   0.248   0.826   1.757 -0.3142 -0.1200 -0.7233
  637SOL     OW 2694   2.130   0.911   0.397  0.1960 -0.2902  0.0810
  637SOL    HW1 2695   2.075   0.952   0.464  1.7314 -1.0725  1.9122
  637SOL    HW2 2696   2.078   0.837   0.365 -0.8252  0.4867 -0.1231
  638SOL     OW 2697   0.449   0.846   0.123  0.1888 -0.4180 -0.1136
  638SOL    HW1 2698   0.470   0.815   0.211  0.4889 -0.1731 -0.1009
  638SOL    HW2 2699   0.515   0.912   0.104  0.9433 -1.3947 -1.0428
  639SOL     OW 2700   0.402   1.442   0.269 -0.4014 -0.0929  0.1913
  639SOL    HW1 2701   0.470   1.488   0.220 -0.7614  0.0527 -0.1852
  639SOL    HW2 2702   0.437   1.432   0.357  1.4473 -2.7574 -0.7250
  640SOL     OW 2703   1.619   0.369   1.913  0.3159 -0.1494  0.0530
  640SOL    HW1 2704   1.598   0.458   1.884  0.0803 -0.9723 -2.5689
  640SOL    HW2 2705   1.656   0.327   1.836  3.1543 -1.5436  1.9919
  641SOL     OW 2706   0.070   1.010   0.158 -0.4725  0.1287  0.8458
  641SOL    HW1 2707   0.086   1.012   0.252 -0.1694  0.8312  0.7827
  641SOL    HW2 2708   0.006   1.079   0.143 -0.9452 -0.3555  0.6106
  642SOL     OW 2709   2.097   1.349   0.197 -0.1945  0.6520 -0.2125
  642SOL    HW1 2710   2.051   1.406   0.135  1.7529  2.2073 -0.3552
  642SOL    HW2 2711   2.057   1.368   0.282 -0.5392  1.1548 -0.4812
  643SOL     OW 2712   2.725   2.978   1.778 -0.7009  0.1398 -0.0561
  643SOL    HW1 2713   2.783   3.053   1.772 -0.2471 -0.0344  1.5241
  643SOL    HW2 2714   2.783   2.902   1.777 -1.0897 -0.1592 -0.8101
  644SOL     OW 2715   0.792   0.061   1.039  0.3582  0.0541  0.1582
  644SOL    HW1 2716   0.731   0.126   1.072  0.2090  1.0888 -2.0053
  644SOL    HW2 2717   0.742  -0.021   1.038 -0.6501  0.6695 -0.5846
  645SOL     OW 2718   0.796   1.292   0.149 -0.3056 -0.4744 -0.1679
  645SOL    HW1 2719   0.800   1.330   0.061  1.4116 -1.1637 -0.4354
  645SOL    HW2 2720   0.775   1.365   0.206  1.5361  0.6315 -0.8326
  646SOL     OW 2721   1.364   1.805   2.835 -0.1961 -0.2344  0.7826
  646SOL    HW1 2722   1.387   1.824   2.744 -1.4351  1.0676  0.7093
  646SOL    HW2 2723   1.269   1.818   2.840 -0.1130  0.0590  2.3349
  647SOL     OW 2724   2.456   2.401   0.585 -0.2910 -0.1881 -0.5057
  647SOL    HW1 2725   2.422   2.329   0.531 -1.0589  0.2303 -0.5947
  647SOL    HW2 2726   2.452   2.367   0.675  0.8044 -0.8130 -0.6685
  648SOL     OW 2727   1.407   1.521   0.593  0.2560  0.0701  0.3942
  648SOL    HW1 2728   1.390   1.613   0.575  0.5153 -0.0139 -0.3230
  648SOL    HW2 2729   1.502   1.512   0.587  0.4459  0.1767  2.6009
  649SOL     OW 2730   1.351   2.639   2.610 -0.8104  0.4150  0.2962
  649SOL    HW1 2731   1.436   2.613   2.575 -1.5945 -0.3300 -1.1752
  649SOL    HW2 2732   1.341   2.588   2.690 -0.9378 -1.4693 -0.8658
  650SOL     OW 2733   2.574   0.896   2.268 -0.2915 -0.3741 -0.2990
  650SOL    HW1 2734   2.578   0.837   2.344 -0.0441 -1.1406 -0.8899
  650SOL    HW2 2735   2.665   0.920   2.252 -0.3831  0.0824 -0.1214
  651SOL     OW 2736   3.204   2.088   0.996 -0.0338  0.0423  0.3638
  651SOL    HW1 2737   3.290   2.051   1.014 -1.1456 -2.3111  1.2394
  651SOL    HW2 2738   3.201   2.097   0.901  0.4254 -1.8963  0.1249
  652SOL     OW 2739   1.107   2.801   2.483  0.4570  0.3243 -0.3614
  652SOL    HW1 2740   1.139   2.891   2.486  0.3533  0.4090 -1.4849
  652SOL    HW2 2741   1.178   2.749   2.522 -0.5136  1.1058  2.8152
  653SOL     OW 2742   0.194   0.465   0.795  0.6850  0.3872 -0.1668
  653SOL    HW1 2743   0.223   0.547   0.837  1.8095  0.1950 -0.5409
  653SOL    HW2 2744   0.099   0.464   0.808  0.8573  0.8767  1.4145
  654SOL     OW 2745   3.007   1.607   1.600  0.2518 -0.2246 -0.2560
  654SOL    HW1 2746   3.022   1.524   1.646  2.6668  0.3575  0.1265
  654SOL    HW2 2747   2.912   1.614   1.595 -0.0343 -2.6335  0.3827
  655SOL     OW 2748   2.686   0.289   1.991  0.4786 -0.2871  0.6281
  655SOL    HW1 2749   2.666   0.202   2.027 -0.2822 -0.5870 -0.4609
  655SOL    HW2 2750   2.688   0.347   2.067  0.3327 -1.1498  1.2999
  656SOL     OW 2751   0.714   1.119   3.186 -0.3343 -0.1520 -0.2122
  656SOL    HW1 2752   0.633   1.138   3.139 -1.0280  0.0047  1.0001
  656SOL    HW2 2753   0.764   1.064   3.126 -1.6673 -0.8749 -0.7174
  657SOL     OW 2754   0.407   3.314   0.881  0.4543 -0.3439 -0.6822
  657SOL    HW1 2755   0.318   3.297   0.912  0.5717  0.5114  0.1871
  657SOL    HW2 2756   0.406   3.291   0.789 -0.1264 -2.2960 -0.2344
  658SOL     OW 2757   3.357   1.456   0.749 -0.0727 -0.6117  0.2248
  658SOL    HW1 2758   3.402   1.531   0.709 -0.5613  0.0212  0.8652
  658SOL    HW2 2759   3.273   1.452   0.704  0.0932 -0.9978 -0.0556
  659SOL     OW 2760   2.236   2.334   0.207 -0.1866  0.1185 -0.2002
  659SOL    HW1 2761   2.294   2.268   0.170 -0.7324 -0.6298  0.2476
  659SOL    HW2 2762   2.160   2.285   0.238 -1.1791  1.1109 -1.0024
  660SOL     OW 2763   1.738   1.566   2.745  0.4671  0.1828  0.2931
  660SOL    HW1 2764   1.771   1.481   2.772  1.4629  0.2760 -0.5934
  660SOL    HW2 2765   1.754   1.623   2.820 -1.5696 -0.7071  1.4810
  661SOL     OW 2766   1.186   1.473   0.167 -0.2986  0.0405 -0.1574
  661SOL    HW1 2767   1.149   1.560   0.185 -2.7007 -1.1514  1.1748
  661SOL    HW2 2768   1.216   1.443   0.253  1.9668  0.1118 -0.8758
  662SOL     OW 2769   0.448   0.949   2.459  0.0627  0.4559 -0.2847
  662SOL    HW1 2770   0.390   0.899   2.401  0.6833  1.2019 -1.5799
  662SOL    HW2 2771   0.506   0.996   2.400  0.4593  1.5508  0.9476
  663SOL     OW 2772   1.688   1.440   1.067 -0.0901 -0.2483 -0.4987
  663SOL    HW1 2773   1.723   1.429   0.979 -2.0549  1.9287 -1.6351
  663SOL    HW2 2774   1.593   1.441   1.056 -0.4326 -0.9434  1.8049
  664SOL     OW 2775   2.648   1.379   1.391  0.1875  0.0906 -0.1764
  664SOL    HW1 2776   2.587   1.307   1.403  2.3397 -1.8927 -0.3695
  664SOL    HW2 2777   2.630   1.413   1.304  0.1900 -1.3102 -0.7372
  665SOL     OW 2778   1.853   1.652   2.400  0.5847  0.6248 -0.6339
  665SOL    HW1 2779   1.906   1.599   2.460 -1.1271  0.3791  0.7565
  665SOL    HW2 2780   1.816   1.721   2.456 -2.8468 -0.8858 -0.7566
  666SOL     OW 2781   2.319   0.501   0.582  0.8114  0.3730  0.0800
  666SOL    HW1 2782   2.291   0.475   0.495  0.0994 -1.3942  0.8111
  666SOL    HW2 2783   2.312   0.597   0.581  2.2778  0.5583 -2.2622
  667SOL     OW 2784   2.345   1.569   1.389  0.4431  0.1518  0.4253
  667SOL    HW1 2785   2.313   1.479   1.382 -1.1697  0.4108  3.0897
  667SOL    HW2 2786   2.436   1.564   1.360 -0.2286 -1.8575 -1.6357
  668SOL     OW 2787   0.121   3.071   0.576  0.4292  0.1590 -0.1801
  668SOL    HW1 2788   0.190   3.009   0.554 -0.4149 -0.5089 -1.0621
  668SOL    HW2 2789   0.160   3.157   0.563  1.1518 -0.2079 -0.4743
  669SOL     OW 2790   0.359   3.154   0.113 -0.3298 -0.1394 -0.1198
  669SOL    HW1 2791   0.271   3.161   0.075 -0.7691 -0.2606  0.8460
  669SOL    HW2 2792   0.412   3.214   0.062 -1.5195  1.8197  0.8252
  670SOL     OW 2793   2.327   0.188   2.154  0.3041  0.7267 -0.2673
  670SOL    HW1 2794   2.277   0.115   2.117 -2.1569  2.4521 -0.5459
  670SOL    HW2 2795   2.285   0.206   2.238  2.7466  0.0103  1.2039
  671SOL     OW 2796   1.474   0.280   0.325  1.2063  0.0587  0.0108
  671SOL    HW1 2797   1.539   0.267   0.256 -1.0177  1.4412 -2.5268
  671SOL    HW2 2798   1.418   0.203   0.320  1.5879 -0.3021  1.0050
  672SOL     OW 2799   0.176   1.917   0.457  0.1245 -0.1029 -0.1429
  672SOL    HW1 2800   0.092   1.907   0.501 -1.2129  0.5458 -2.3811
  672SOL    HW2 2801   0.180   2.009   0.433  2.6760  0.4793  2.0372
  673SOL     OW 2802   2.295   1.007   2.004 -0.5131  0.3034  0.4070
  673SOL    HW1 2803   2.202   1.009   2.026 -0.5553 -0.5278  0.3038
  673SOL    HW2 2804   2.298   0.992   1.910 -0.2782 -2.2518  0.7482
  674SOL     OW 2805   2.761   0.830   3.230  0.5389  0.3191 -0.3111
  674SOL    HW1 2806   2.723   0.898   3.175  0.7317  0.1500 -0.6561
  674SOL    HW2 2807   2.820   0.877   3.289 -0.2926  0.5999  0.3199
  675SOL     OW 2808   0.942   3.279   2.769  0.2370  0.7328  0.0833
  675SOL    HW1 2809   0.856   3.255   2.736  1.1450  1.0026 -2.7288
  675SOL    HW2 2810   0.982   3.328   2.697  3.4922 -1.0844  0.4847
  676SOL     OW 2811   0.210   0.613   1.537  0.8057 -0.3572  0.3767
  676SOL    HW1 2812   0.278   0.547   1.521  0.4331 -1.0277  1.4394
  676SOL    HW2 2813   0.230   0.647   1.624 -0.0708 -0.3810  0.5900
  677SOL     OW 2814   0.850   0.148   0.389 -0.2884  0.2667 -0.2151
  677SOL    HW1 2815   0.811   0.062   0.405 -1.2205  0.8153  0.6421
  677SOL    HW2 2816   0.942   0.138   0.413 -0.3046 -0.5900 -0.5010
  678SOL     OW 2817   1.317   0.840   0.118 -0.2119 -0.3093 -0.2301
  678SOL    HW1 2818   1.224   0.818   0.114 -0.0829 -0.9268  0.0473
  678SOL    HW2 2819   1.321   0.932   0.093 -0.8828 -0.3172 -0.3819
  679SOL     OW 2820   3.305   0.922   0.948  0.0864 -0.9803 -0.0601
  679SOL    HW1 2821   3.376   0.871   0.986  0.7660 -1.1399 -1.4967
  679SOL    HW2 2822   3.344   1.006   0.926 -0.1029 -1.1206 -0.9969
  680SOL     OW 2823   2.913   1.117   0.206  0.4395 -0.1275  0.3718
  680SOL    HW1 2824   2.957   1.192   0.168  1.3425 -0.6789  0.2890
  680SOL    HW2 2825   2.892   1.144   0.296 -3.8463  2.0637 -1.0266
  681SOL     OW 2826   2.390   1.918   1.274 -0.0551 -0.0052  0.1595
  681SOL    HW1 2827   2.323   1.902   1.340  1.1460 -1.6730  1.0683
  681SOL    HW2 2828   2.371   1.855   1.205  0.9475 -1.0307  0.7708
  682SOL     OW 2829   2.545   2.702   2.983  0.7842  0.3292  0.0565
  682SOL    HW1 2830   2.617   2.726   2.924  0.6330  0.8563  0.0764
  682SOL    HW2 2831   2.551   2.766   3.054  2.8899 -2.1424  2.2698
  683SOL     OW 2832   3.363   0.843   2.639 -0.6576 -0.2373  0.1223
  683SOL    HW1 2833   3.284   0.818   2.686 -1.5121 -0.0294 -1.1664
  683SOL    HW2 2834   3.334   0.864   2.551  0.9177 -0.6801 -0.5416
  684SOL     OW 2835   0.237   2.941   2.954  0.3559 -0.8166 -0.4250
  684SOL    HW1 2836   0.269   2.902   2.873 -1.7389 -1.4583 -0.9921
  684SOL    HW2 2837   0.243   3.035   2.940  2.2823 -0.8858 -0.3439
  685SOL     OW 2838   2.412   0.389   2.995  0.6923  0.0656 -0.2062
  685SOL    HW1 2839   2.445   0.478   3.007  0.2566 -0.0817  2.6598
  685SOL    HW2 2840   2.481   0.333   3.030 -0.3790 -0.5016  1.0913
  686SOL     OW 2841   0.847   0.402   3.088  0.0865 -0.2988  0.0079
  686SOL    HW1 2842   0.764   0.441   3.061 -0.7787 -1.7769  0.4337
  686SOL    HW2 2843   0.884   0.369   3.006  0.1351  0.1176 -0.1430
  687SOL     OW 2844   0.139   0.174   2.216 -0.2359  0.1022 -0.1476
  687SOL    HW1 2845   0.086   0.166   2.295  0.5898  0.3403  0.4399
  687SOL    HW2 2846   0.076   0.194   2.147 -1.0023 -0.3950  0.3897
  688SOL     OW 2847   1.455   1.112   3.357  0.4326  0.4951 -0.0868
  688SOL    HW1 2848   1.527   1.176   3.356 -0.6673  1.7836  0.4339
  688SOL    HW2 2849   1.376   1.165   3.351 -0.4705 -0.9788 -2.0457
  689SOL     OW 2850   0.569   0.278   2.319 -0.4923  0.5064 -0.2557
  689SOL    HW1 2851   0.583   0.372   2.329 -2.0037  0.7074  0.2770
  689SOL    HW2 2852   0.494   0.271   2.259  0.6624 -0.4239 -1.6861
  690SOL     OW 2853   1.272   2.140   0.502  0.3791 -0.1192 -0.5561
  690SOL    HW1 2854   1.301   2.223   0.464 -0.5645  1.1491  1.3412
  690SOL    HW2 2855   1.350   2.104   0.544  0.9527 -0.5828 -1.9366
  691SOL     OW 2856   2.322   2.191   0.459  0.7312  0.8474 -0.0575
  691SOL    HW1 2857   2.290   2.115   0.411  1.8063  0.4602 -0.1842
  691SOL    HW2 2858   2.246   2.248   0.467  0.4552  0.7892 -1.9516
  692SOL     OW 2859   1.506   2.498   1.037 -0.2463 -0.0296 -0.1374
  692SOL    HW1 2860   1.471   2.431   0.978  2.6970 -1.1939 -0.7502
  692SOL    HW2 2861   1.520   2.575   0.982 -0.0498 -0.2101 -0.3430
  693SOL     OW 2862   2.561   2.753   1.633 -0.1652 -0.0323 -0.3932
  693SOL    HW1 2863   2.590   2.705   1.711  0.0071 -2.5280 -1.8898
  693SOL    HW2 2864   2.556   2.844   1.662  0.9577 -0.6979  2.2207
  694SOL     OW 2865   0.789   3.374   0.113 -0.8494 -0.1322 -0.5807
  694SOL    HW1 2866   0.765   3.318   0.039  0.3843 -2.2777  0.5541
  694SOL    HW2 2867   0.735   3.344   0.185  0.6923 -0.7519  0.3674
  695SOL     OW 2868   1.472   0.216   2.310  0.1302 -0.6755  0.2953
  695SOL    HW1 2869   1.456   0.271   2.234  0.0679  0.1189  0.8738
  695SOL    HW2 2870   1.542   0.157   2.283  1.5694  0.9548  0.2881
  696SOL     OW 2871   1.806   2.598   0.436 -0.0752 -0.5227  0.5146
  696SOL    HW1 2872   1.901   2.606   0.428 -0.1671  0.5264  0.3570
  696SOL    HW2 2873   1.788   2.506   0.414  0.3067  0.4557 -5.3822
  697SOL     OW 2874   1.860   1.831   1.413  0.0532  0.1576  0.3754
  697SOL    HW1 2875   1.874   1.921   1.384 -2.0963  0.5155  0.2834
  697SOL    HW2 2876   1.811   1.790   1.341 -2.3454  0.0800  1.9230
  698SOL     OW 2877   0.717   0.217   0.733 -0.7112 -0.4490 -0.1288
  698SOL    HW1 2878   0.746   0.128   0.710 -0.3689 -0.7195  1.2430
  698SOL    HW2 2879   0.692   0.256   0.650  0.0450 -1.5068 -0.8830
  699SOL     OW 2880   1.220   1.327   2.672 -0.2378 -0.6288  0.6344
  699SOL    HW1 2881   1.299   1.371   2.643 -0.7031  1.2116  1.9890
  699SOL    HW2 2882   1.183   1.288   2.593  0.5117  0.9301 -0.5149
  700SOL     OW 2883   0.635   0.523   2.451 -0.5002  0.6913 -0.2510
  700SOL    HW1 2884   0.660   0.459   2.518 -0.5986 -0.1497 -0.9980
  700SOL    HW2 2885   0.591   0.593   2.499 -0.8411 -0.0463  0.5228
  701SOL     OW 2886   1.372   0.579   1.836  0.2672 -0.4557  0.1369
  701SOL    HW1 2887   1.281   0.610   1.828  0.0965 -1.0518 -0.2840
  701SOL    HW2 2888   1.425   0.657   1.818 -0.1419  0.1733  1.4593
  702SOL     OW 2889   2.831   1.473   0.220  0.2322 -0.3699  0.2370
  702SOL    HW1 2890   2.904   1.451   0.279  1.0910  1.0424 -0.2322
  702SOL    HW2 2891   2.864   1.450   0.133  0.0507  0.1173  0.0397
  703SOL     OW 2892   0.976   1.103   0.100 -0.2388 -0.0032 -0.5350
  703SOL    HW1 2893   0.909   1.163   0.133 -1.7217 -2.0962  0.4765
  703SOL    HW2 2894   1.041   1.099   0.170  0.3658  1.1201 -1.0131
  704SOL     OW 2895   3.314   2.925   1.157 -0.1816  0.1160 -0.5496
  704SOL    HW1 2896   3.307   3.020   1.157 -0.0496  0.1291  0.1290
  704SOL    HW2 2897   3.305   2.900   1.249  0.0314 -0.5111 -0.6936
  705SOL     OW 2898   0.738   2.429   2.674  0.0762  0.6519 -0.0445
  705SOL    HW1 2899   0.830   2.403   2.684  0.3325  1.4964 -0.1125
  705SOL    HW2 2900   0.690   2.373   2.734  0.4603 -0.7702 -1.0009
  706SOL     OW 2901   1.459   1.893   3.362  0.1181 -0.4464 -0.2569
  706SOL    HW1 2902   1.544   1.878   3.404  0.0014 -0.1775  0.0833
  706SOL    HW2 2903   1.480   1.936   3.279  0.2634  0.6413  0.3257
  707SOL     OW 2904   0.793   0.783   3.317 -0.1888  0.0542  0.8455
  707SOL    HW1 2905   0.827   0.823   3.236 -1.7737  0.4670  0.3425
  707SOL    HW2 2906   0.706   0.822   3.328 -0.4645 -0.8598  2.1388
  708SOL     OW 2907   2.474   2.102   0.859 -0.0604  0.2513  0.1652
  708SOL    HW1 2908   2.509   2.023   0.900 -0.9070  0.1671  0.7649
  708SOL    HW2 2909   2.419   2.070   0.788  1.0047  0.3800 -0.7376
  709SOL     OW 2910   1.467   3.086   0.469 -0.2726  0.0641  0.2383
  709SOL    HW1 2911   1.512   3.047   0.544 -0.7541 -0.1118  0.4350
  709SOL    HW2 2912   1.389   3.032   0.456 -0.1914  0.0866 -0.3937
  710SOL     OW 2913   2.904   1.512   1.119 -0.1805 -0.0757 -0.6490
  710SOL    HW1 2914   2.927   1.569   1.045  0.1059  0.3324 -0.2498
  710SOL    HW2 2915   2.814   1.533   1.139 -0.3867 -0.4672 -1.1279
  711SOL     OW 2916   3.032   0.815   3.024 -0.4740 -0.2727  0.6583
  711SOL    HW1 2917   3.026   0.740   3.083 -0.5927 -0.0621  0.9158
  711SOL    HW2 2918   3.093   0.786   2.955 -0.0166 -0.3812  1.0969
  712SOL     OW 2919   1.789   2.394   3.333 -0.2381  0.2163 -0.2079
  712SOL    HW1 2920   1.745   2.313   3.308 -0.3116  0.6133 -1.4154
  712SOL    HW2 2921   1.808   2.438   3.250  0.4175  1.1116  0.4001
  713SOL     OW 2922   1.524   2.990   0.757 -0.5814 -0.3213  0.0580
  713SOL    HW1 2923   1.615   2.964   0.739 -0.7605  0.1614 -1.6611
  713SOL    HW2 2924   1.531   3.051   0.830  0.3462 -1.1423  0.6953
  714SOL     OW 2925   3.240   1.147   0.048  0.0467 -0.0894 -0.1609
  714SOL    HW1 2926   3.165   1.202   0.069  0.2434  0.4951 -0.9376
  714SOL    HW2 2927   3.213   1.100  -0.031 -0.2901 -1.4607  0.7439
  715SOL     OW 2928   1.216   0.751   2.433  0.4108  0.5319  0.4375
  715SOL    HW1 2929   1.285   0.710   2.487 -0.0576 -1.6030 -0.4836
  715SOL    HW2 2930   1.177   0.817   2.491  2.1258  0.6534  1.5436
  716SOL     OW 2931   1.706   0.362   0.446  0.2671  0.1191 -0.2098
  716SOL    HW1 2932   1.732   0.361   0.354  0.8506  2.2690 -0.1287
  716SOL    HW2 2933   1.613   0.337   0.446  0.4647 -0.6561 -1.2712
  717SOL     OW 2934   2.872   2.481   2.695 -0.0597 -0.7969  0.1058
  717SOL    HW1 2935   2.897   2.433   2.617  0.0763 -1.6378  0.6577
  717SOL    HW2 2936   2.840   2.565   2.662  0.2507 -1.0353 -0.8279
  718SOL     OW 2937   1.208   2.790   0.879 -0.0347  0.3063  0.3394
  718SOL    HW1 2938   1.211   2.884   0.863  1.9521  0.1376 -0.5236
  718SOL    HW2 2939   1.133   2.760   0.827  0.1469  1.2388 -0.5058
  719SOL     OW 2940   1.877   1.534   2.172  1.1337  0.0172  0.2649
  719SOL    HW1 2941   1.870   1.584   2.254 -0.9650 -1.3628  1.0242
  719SOL    HW2 2942   1.860   1.443   2.198  1.1807 -0.5657 -1.5998
  720SOL     OW 2943   1.626   0.634   2.380 -0.1886 -0.0335 -0.2490
  720SOL    HW1 2944   1.633   0.729   2.387 -2.2852  0.0462  2.9030
  720SOL    HW2 2945   1.711   0.601   2.407  0.1093  0.9544  0.0733
  721SOL     OW 2946   2.944   0.049   2.742  0.0843  0.0520  0.9124
  721SOL    HW1 2947   3.024   0.101   2.739  0.9649 -1.2544  0.9828
  721SOL    HW2 2948   2.874   0.112   2.724  1.2712  0.8527 -1.2920
  722SOL     OW 2949   2.872   0.891   2.196  0.0777  0.0446 -0.4552
  722SOL    HW1 2950   2.890   0.949   2.270 -0.7984  1.5680 -1.3738
  722SOL    HW2 2951   2.914   0.809   2.219  2.2290  1.3148  0.5140
  723SOL     OW 2952   2.174   2.683   1.415  0.1315  0.0307  0.1816
  723SOL    HW1 2953   2.156   2.632   1.336 -0.9441  0.2393  0.2795
  723SOL    HW2 2954   2.267   2.666   1.434  0.6767  0.7252 -1.6563
  724SOL     OW 2955   2.774   3.123   2.170 -0.2982  0.0816 -0.5296
  724SOL    HW1 2956   2.764   3.177   2.249 -1.5659 -0.5479 -0.2417
  724SOL    HW2 2957   2.854   3.156   2.129  0.6010  0.1762  1.2048
  725SOL     OW 2958   1.343   0.068   0.237  0.4722  0.0811  0.6683
  725SOL    HW1 2959   1.334   0.013   0.159  3.6005  0.3804 -0.0253
  725SOL    HW2 2960   1.291   0.022   0.304 -0.8703 -1.1184 -1.0885
  726SOL     OW 2961   1.349   3.306   2.403 -0.1574  0.2743 -0.4028
  726SOL    HW1 2962   1.385   3.327   2.316 -0.5100  1.1551 -0.3430
  726SOL    HW2 2963   1.290   3.378   2.423 -0.3156 -0.0765  0.4462
  727SOL     OW 2964   1.826   3.182   2.336  0.0425  0.3076  0.0314
  727SOL    HW1 2965   1.744   3.170   2.383 -0.6696  0.3282 -1.1707
  727SOL    HW2 2966   1.842   3.098   2.293 -0.3291  0.8532 -1.2232
  728SOL     OW 2967   2.866   2.729   3.110 -0.5711 -0.4292 -0.4902
  728SOL    HW1 2968   2.844   2.760   3.022 -1.9615 -0.7806 -0.2935
  728SOL    HW2 2969   2.907   2.644   3.096  1.3289  0.5224 -0.9104
  729SOL     OW 2970   1.326   3.017   0.012 -0.5187 -0.3919  0.6096
  729SOL    HW1 2971   1.284   2.965  -0.057 -2.2617 -1.7093  2.5144
  729SOL    HW2 2972   1.414   2.981   0.018  0.5259  1.3084 -2.3821
  730SOL     OW 2973   3.070   3.153   2.042 -0.0130  0.0184 -0.5599
  730SOL    HW1 2974   3.069   3.138   1.948 -0.1187  0.2877 -0.6042
  730SOL    HW2 2975   3.019   3.233   2.054  3.1431  2.2399 -0.6572
  731SOL     OW 2976   1.185   1.988   0.828 -0.0689 -0.1224  0.3659
  731SOL    HW1 2977   1.195   2.082   0.842 -1.3277  0.0589  0.1584
  731SOL    HW2 2978   1.155   1.980   0.738 -0.2267 -0.7103  0.4674
  732SOL     OW 2979   1.140   2.140   0.240 -0.3315  0.1431 -0.6530
  732SOL    HW1 2980   1.168   2.211   0.298 -1.1616  0.2402 -0.3614
  732SOL    HW2 2981   1.195   2.066   0.265 -1.2061 -0.0505  0.8089
  733SOL     OW 2982   1.182   1.324   1.551 -1.1076  0.1873 -0.0438
  733SOL    HW1 2983   1.174   1.409   1.593  1.0517  0.0763  0.7471
  733SOL    HW2 2984   1.208   1.344   1.461 -1.6073  0.3739 -0.1473
  734SOL     OW 2985   0.474   2.216   0.211 -0.3210  0.3916 -0.3010
  734SOL    HW1 2986   0.520   2.300   0.218  0.0719  0.4128 -2.4710
  734SOL    HW2 2987   0.490   2.187   0.121 -1.0034 -1.7078  0.1941
  735SOL     OW 2988   1.542   3.015   2.155 -0.4171  0.4471 -0.7784
  735SOL    HW1 2989   1.629   2.976   2.165 -1.0721 -1.3615 -1.5905
  735SOL    HW2 2990   1.556   3.092   2.100  0.7848  0.6848 -0.1469
  736SOL     OW 2991   3.118   1.923   1.227  0.5680  0.1131 -0.1632
  736SOL    HW1 2992   3.157   1.972   1.154 -1.5957  2.0757 -0.1544
  736SOL    HW2 2993   3.079   1.846   1.186 -0.5956  1.1746 -1.1619
  737SOL     OW 2994   1.048   3.155   1.862 -0.1819 -0.4762  0.2243
  737SOL    HW1 2995   0.973   3.098   1.877  0.2111 -0.6323  1.8063
  737SOL    HW2 2996   1.056   3.160   1.767 -2.4640 -0.0596  0.0010
  738SOL     OW 2997   0.034   1.405   1.023 -0.0182 -0.2016 -0.3285
  738SOL    HW1 2998   0.051   1.493   1.058 -3.0484  1.1261 -1.7965
  738SOL    HW2 2999   0.008   1.421   0.932 -0.5788 -2.6570 -0.6499
  739SOL     OW 3000   1.840   3.103   1.191 -0.4393  0.1589 -0.2592
  739SOL    HW1 3001   1.772   3.039   1.212  0.0199  0.1432  1.3121
  739SOL    HW2 3002   1.914   3.077   1.246 -0.0147  1.6328 -0.1022
  740SOL     OW 3003   1.735   0.055   0.388 -0.0582 -0.6015 -0.2907
  740SOL    HW1 3004   1.686   0.131   0.422  1.2128  0.2921 -0.3820
  740SOL    HW2 3005   1.816   0.055   0.440 -0.0575 -1.9303 -0.2781
  741SOL     OW 3006   0.505   3.036   2.751 -0.8167  0.7156 -0.0729
  741SOL    HW1 3007   0.528   3.126   2.730 -1.9745  0.8392 -0.9034
  741SOL    HW2 3008   0.442   3.011   2.683  0.1813 -1.0383 -0.4259
  742SOL     OW 3009   0.851   0.158   1.341 -0.1147 -0.1803 -0.2183
  742SOL    HW1 3010   0.931   0.207   1.363  0.5610 -0.5654 -1.6487
  742SOL    HW2 3011   0.810   0.210   1.272  1.6589 -2.4369 -3.2511
  743SOL     OW 3012   1.765   2.708   1.383 -0.3436 -0.0327  0.3347
  743SOL    HW1 3013   1.840   2.739   1.332  0.4049 -1.2027  0.6840
  743SOL    HW2 3014   1.721   2.787   1.413  1.7485  0.7273  1.5740
  744SOL     OW 3015   3.081   1.506   0.813 -0.8979  0.4251 -0.2827
  744SOL    HW1 3016   3.110   1.536   0.899 -1.1355  0.0807 -0.0785
  744SOL    HW2 3017   3.068   1.412   0.824  1.0903 -0.0166 -1.2463
  745SOL     OW 3018   1.884   0.838   2.375 -0.0773  0.7434  0.5928
  745SOL    HW1 3019   1.844   0.826   2.289  1.3482 -1.8376  0.1850
  745SOL    HW2 3020   1.810   0.843   2.436 -1.0724  1.0364 -0.6063
  746SOL     OW 3021   1.808   1.591   0.810 -0.2790 -0.1055 -1.1306
  746SOL    HW1 3022   1.852   1.641   0.741  0.8427  2.2353  1.1103
  746SOL    HW2 3023   1.716   1.588   0.782  0.4489 -1.1000 -3.6862
  747SOL     OW 3024   2.608   0.633   3.329 -0.7026  0.1552 -0.6145
  747SOL    HW1 3025   2.554   0.641   3.250 -1.5485  1.6359  0.0721
  747SOL    HW2 3026   2.668   0.708   3.325 -0.1106 -0.2910 -0.3106
  748SOL     OW 3027   0.541   2.852   1.396  0.1344 -0.3911 -0.4799
  748SOL    HW1 3028   0.511   2.939   1.368  1.5154 -0.1294 -1.2093
  748SOL    HW2 3029   0.485   2.791   1.348  0.1961  0.0866 -1.1665
  749SOL     OW 3030   3.192   0.125   2.629 -0.3663 -0.3815  0.7870
  749SOL    HW1 3031   3.228   0.209   2.658  0.8342  0.5264 -2.8233
  749SOL    HW2 3032   3.264   0.084   2.581 -1.8458 -2.1304 -0.0431
  750SOL     OW 3033   1.228   3.282   0.016 -0.4507  0.6193  0.2526
  750SOL    HW1 3034   1.231   3.188   0.029  0.1599  0.9124  2.6768
  750SOL    HW2 3035   1.237   3.293  -0.079 -0.0786 -1.7093 -0.0451
  751SOL     OW 3036   2.291   3.361   2.486 -0.5834  0.2541 -0.1888
  751SOL    HW1 3037   2.289   3.382   2.579  1.8156  0.0936 -0.0392
  751SOL    HW2 3038   2.277   3.445   2.442  0.1685  0.6602  0.3362
  752SOL     OW 3039   0.100   0.868   1.436  0.1564  0.5060  0.5544
  752SOL    HW1 3040   0.043   0.885   1.511 -0.1235 -2.8293  1.2522
  752SOL    HW2 3041   0.120   0.775   1.442  1.1054  0.3522 -2.8916
  753SOL     OW 3042   0.848   2.656   0.212  0.1274 -0.5189  0.0430
  753SOL    HW1 3043   0.860   2.713   0.288 -0.6902 -0.2231 -0.0408
  753SOL    HW2 3044   0.855   2.714   0.136 -2.4050 -0.1502 -0.0050
  754SOL     OW 3045   2.194   0.490   3.217  1.0085  0.1589 -0.1188
  754SOL    HW1 3046   2.117   0.447   3.180  1.7471 -0.1803 -1.3344
  754SOL    HW2 3047   2.159   0.570   3.257 -0.1411 -0.6624  0.5989
  755SOL     OW 3048   0.618   1.079   0.073 -0.0690  0.3539 -0.5628
  755SOL    HW1 3049   0.704   1.114   0.098 -0.1430 -0.2893  0.6927
  755SOL    HW2 3050   0.623   1.069  -0.022  2.6723 -3.1288 -0.2685
  756SOL     OW 3051   2.993   2.192   0.677  0.0557  0.0126  0.2104
  756SOL    HW1 3052   2.906   2.219   0.705 -0.2491 -1.2068  0.5010
  756SOL    HW2 3053   2.988   2.189   0.581 -1.5956 -4.0820  0.2241
  757SOL     OW 3054   1.749   3.022   0.228  0.6543 -0.3999  0.1090
  757SOL    HW1 3055   1.816   3.058   0.170  1.5327 -2.7173 -0.4413
  757SOL    HW2 3056   1.681   3.089   0.230  2.3976  1.5010 -0.3295
  758SOL     OW 3057   1.393   0.585   0.365  0.1526  0.1248 -0.4823
  758SOL    HW1 3058   1.418   0.499   0.330  3.1323  0.7375 -0.0701
  758SOL    HW2 3059   1.344   0.565   0.444 -0.3342 -1.1908 -1.0855
  759SOL     OW 3060   2.928   2.385   1.350  0.3741  0.1637  0.2364
  759SOL    HW1 3061   2.927   2.296   1.315 -2.1104  0.2496 -0.1142
  759SOL    HW2 3062   3.001   2.427   1.306  0.0904 -1.0143 -1.4858
  760SOL     OW 3063   3.306   0.805   1.643 -0.2856 -0.1674 -0.4094
  760SOL    HW1 3064   3.215   0.784   1.619  0.1961 -1.0342 -1.5509
  760SOL    HW2 3065   3.320   0.756   1.725 -0.8798  0.0659 -0.1609
  761SOL     OW 3066   1.337   1.447   3.080  0.0063  0.7963  0.1773
  761SOL    HW1 3067   1.403   1.446   3.011 -0.2850  1.2030 -0.1077
  761SOL    HW2 3068   1.359   1.524   3.133  0.2569  0.4607  0.5689
  762SOL     OW 3069   1.264   2.877   0.494 -0.4051  0.3702 -0.0365
  762SOL    HW1 3070   1.225   2.893   0.408 -1.0360 -0.3595  0.0952
  762SOL    HW2 3071   1.304   2.790   0.486  0.1511  0.6000  0.2002
  763SOL     OW 3072   1.714   2.757   0.647  0.7396  0.1106 -0.3681
  763SOL    HW1 3073   1.787   2.797   0.693  0.3809 -0.2104  0.5051
  763SOL    HW2 3074   1.755   2.706   0.577  1.2537  1.1024 -0.8020
  764SOL     OW 3075   1.316   1.131   2.860 -0.0793 -0.0930  0.1669
  764SOL    HW1 3076   1.399   1.177   2.872  0.7254 -0.8641 -2.0014
  764SOL    HW2 3077   1.257   1.197   2.825  0.4911 -0.2037 -1.0402
  765SOL     OW 3078   0.611   2.271   3.330 -0.3539 -0.2080 -0.0406
  765SOL    HW1 3079   0.599   2.182   3.299  1.4906 -0.5792  0.1535
  765SOL    HW2 3080   0.587   2.326   3.255 -0.9352 -0.8794 -0.3581
  766SOL     OW 3081   2.971   0.929   0.007  0.2542  0.8235  0.0330
  766SOL    HW1 3082   2.959   0.993   0.076 -0.1294  0.3517  0.4138
  766SOL    HW2 3083   3.060   0.943  -0.024  1.0116 -0.0296  1.7381
  767SOL     OW 3084   0.384   2.656   0.238 -0.2364  0.8028  0.4562
  767SOL    HW1 3085   0.312   2.718   0.230  0.0925  0.9777 -2.2431
  767SOL    HW2 3086   0.399   2.625   0.148  0.2988 -2.4196  1.5261
  768SOL     OW 3087   0.585   2.456   3.128  0.0523  0.4272  0.1762
  768SOL    HW1 3088   0.593   2.550   3.145 -4.5236  0.6735  2.5348
  768SOL    HW2 3089   0.567   2.449   3.034  1.8801  1.6427 -0.3171
  769SOL     OW 3090   0.031   3.372   0.712 -0.0621  0.5259  0.1660
  769SOL    HW1 3091   0.108   3.380   0.655 -0.5792 -1.9649 -1.0353
  769SOL    HW2 3092   0.066   3.375   0.801  1.0713  1.9422 -0.2848
  770SOL     OW 3093   1.588   2.746   0.203  0.4021  0.4646 -0.3174
  770SOL    HW1 3094   1.682   2.764   0.210  0.3606  0.5374  0.0493
  770SOL    HW2 3095   1.557   2.742   0.293  0.0969  0.1944 -0.4323
  771SOL     OW 3096   1.726   2.421   0.799 -0.3648  0.1247  0.1751
  771SOL    HW1 3097   1.729   2.514   0.819 -1.2808  0.0446  0.7935
  771SOL    HW2 3098   1.805   2.385   0.839 -0.9952  0.3455  1.7058
  772SOL     OW 3099   0.626   0.049   2.990 -0.1446 -0.9557 -0.4278
  772SOL    HW1 3100   0.540   0.083   3.014  0.2782  0.1079 -0.3409
  772SOL    HW2 3101   0.651   0.100   2.913  0.2063 -1.5930 -0.7442
  773SOL     OW 3102   0.615   3.176   0.239 -0.2529 -0.3197  0.0325
  773SOL    HW1 3103   0.624   3.104   0.302 -1.1850 -1.8071 -1.4647
  773SOL    HW2 3104   0.521   3.195   0.237 -0.5688 -1.6945 -2.3096
  774SOL     OW 3105   1.252   2.789   1.162  0.0138  0.8679  0.3810
  774SOL    HW1 3106   1.223   2.809   1.073  0.9826  0.8054  0.0414
  774SOL    HW2 3107   1.172   2.765   1.208 -0.2544 -1.2659 -1.0418
  775SOL     OW 3108   2.544   2.482   2.382  0.1453  0.1000 -0.4502
  775SOL    HW1 3109   2.613   2.419   2.363  0.1533  0.2072 -0.7902
  775SOL    HW2 3110   2.549   2.496   2.476  0.2847 -0.2420 -0.4068
  776SOL     OW 3111   3.211   1.504   3.337  0.0709 -0.0604  0.2642
  776SOL    HW1 3112   3.242   1.457   3.259 -0.0952 -1.0735  0.7848
  776SOL    HW2 3113   3.290   1.523   3.387  0.1016 -0.1427  0.2464
  777SOL     OW 3114   1.470   0.818   1.805 -0.6879 -0.6590  0.3350
  777SOL    HW1 3115   1.472   0.874   1.883  1.4786 -1.2397  0.7737
  777SOL    HW2 3116   1.464   0.880   1.732 -2.8792 -0.1127  0.9137
  778SOL     OW 3117   1.933   2.887   1.709 -0.6999 -0.3476  0.0659
  778SOL    HW1 3118   1.915   2.950   1.639 -1.3811 -1.4865 -0.8092
  778SOL    HW2 3119   2.026   2.901   1.730 -0.3638 -0.2731 -1.3759
  779SOL     OW 3120   0.341   1.943   0.218  1.0785  0.2046  0.2194
  779SOL    HW1 3121   0.385   2.027   0.226 -1.5722  1.5859  1.7057
  779SOL    HW2 3122   0.294   1.933   0.300 -1.0186 -1.3128 -1.0646
  780SOL     OW 3123   2.725   1.717   1.291 -0.0473 -0.0030 -0.0699
  780SOL    HW1 3124   2.668   1.642   1.271 -0.7632  0.5393 -0.1043
  780SOL    HW2 3125   2.785   1.684   1.358 -0.1816 -0.6866 -0.2826
  781SOL     OW 3126   3.204   1.366   0.315  0.1061 -0.1001 -0.0112
  781SOL    HW1 3127   3.155   1.443   0.343  0.7673  0.4467 -0.3456
  781SOL    HW2 3128   3.290   1.399   0.291  0.1547 -0.8242 -0.8985
  782SOL     OW 3129   1.940   3.047   2.625 -0.0752  0.0206  0.4882
  782SOL    HW1 3130   1.850   3.040   2.657  0.0106 -0.2747  0.6692
  782SOL    HW2 3131   1.942   3.131   2.579 -0.1882  0.4646  1.2876
  783SOL     OW 3132   0.642   2.557   2.462 -0.0146 -0.1794  0.5340
  783SOL    HW1 3133   0.579   2.498   2.422  0.7644 -0.4474 -0.3488
  783SOL    HW2 3134   0.670   2.512   2.542  1.4902 -1.6660 -0.7411
  784SOL     OW 3135   2.194   1.735   1.161  0.1985  0.2346  0.3208
  784SOL    HW1 3136   2.208   1.756   1.253  0.6811 -1.1401  0.5880
  784SOL    HW2 3137   2.111   1.777   1.139 -1.0194 -1.1527  1.9851
  785SOL     OW 3138   2.153   1.294   2.363  0.3123 -0.4880 -0.3849
  785SOL    HW1 3139   2.178   1.370   2.309 -2.5714  0.9962  0.1955
  785SOL    HW2 3140   2.075   1.259   2.320 -0.5547 -0.8168  1.3830
  786SOL     OW 3141   0.351   1.560   2.910 -0.3094  0.2146  0.2270
  786SOL    HW1 3142   0.390   1.475   2.890  0.2684  0.0682  1.8010
  786SOL    HW2 3143   0.411   1.624   2.873  0.3224 -0.0531  0.7689
  787SOL     OW 3144   2.740   0.866   0.290 -0.1859 -0.1082  0.7594
  787SOL    HW1 3145   2.832   0.888   0.278 -0.3682  0.5296  0.4675
  787SOL    HW2 3146   2.702   0.944   0.331 -1.1969  0.8976 -1.8458
  788SOL     OW 3147   0.962   2.439   3.236 -0.1694  0.6055 -0.2498
  788SOL    HW1 3148   0.982   2.532   3.234 -0.6601  0.7139 -0.4107
  788SOL    HW2 3149   0.960   2.416   3.328  0.5589  0.6171 -0.2288
  789SOL     OW 3150   1.734   1.962   0.867 -0.2050 -0.4765 -0.1764
  789SOL    HW1 3151   1.686   2.045   0.862  0.5774  0.1320  1.7126
  789SOL    HW2 3152   1.678   1.905   0.920  0.1468 -0.4869  0.1913
  790SOL     OW 3153   1.859   1.280   2.325 -0.2761 -0.3200  0.2313
  790SOL    HW1 3154   1.796   1.211   2.304 -0.4345  0.1586 -0.9174
  790SOL    HW2 3155   1.829   1.315   2.409 -1.5490 -0.1176 -0.2799
  791SOL     OW 3156   1.139   0.825   2.810  0.1003  0.0029  0.1902
  791SOL    HW1 3157   1.134   0.885   2.736  0.7050 -0.2149 -0.0300
  791SOL    HW2 3158   1.165   0.879   2.885  0.6103  0.0222 -0.0004
  792SOL     OW 3159   0.511   0.691   3.262  0.2827 -0.1989  0.3809
  792SOL    HW1 3160   0.453   0.747   3.210  0.8806  2.7934  2.6570
  792SOL    HW2 3161   0.543   0.625   3.200 -1.6888  1.0268 -2.1187
  793SOL     OW 3162   0.555   0.049   1.703 -0.2609 -0.1834 -0.4349
  793SOL    HW1 3163   0.616  -0.019   1.675  1.5208  0.5454  1.4088
  793SOL    HW2 3164   0.549   0.037   1.798  0.5673  2.5149  0.0386
  794SOL     OW 3165   2.477   1.261   3.040 -0.0904  0.0075  0.1558
  794SOL    HW1 3166   2.426   1.179   3.043 -2.8205  1.6119  1.9481
  794SOL    HW2 3167   2.432   1.314   2.974  0.9291  0.5206 -0.1388
  795SOL     OW 3168   2.744   3.330   2.938  0.5306  0.3428  0.1210
  795SOL    HW1 3169   2.800   3.331   2.860 -1.1332 -0.9037 -1.1580
  795SOL    HW2 3170   2.731   3.238   2.958  0.5927  0.6439  1.6496
  796SOL     OW 3171   1.389   2.176   1.001  0.4029  0.4409  0.3694
  796SOL    HW1 3172   1.336   2.136   1.070  0.6751 -0.2334  0.2011
  796SOL    HW2 3173   1.327   2.228   0.950  0.3181  1.5437  1.5356
  797SOL     OW 3174   1.934   0.974   0.601 -0.2850 -0.1956  0.4836
  797SOL    HW1 3175   1.851   1.016   0.577 -0.1361 -0.5102 -0.6276
  797SOL    HW2 3176   1.987   1.046   0.638 -1.5969 -0.3010  2.7636
  798SOL     OW 3177   2.935   2.481   2.978  0.4096  0.1088  0.1334
  798SOL    HW1 3178   3.030   2.468   2.972  0.6250  1.3373  0.6646
  798SOL    HW2 3179   2.906   2.494   2.888  0.8475  0.4224  0.0368
  799SOL     OW 3180   0.718   2.813   0.808  0.3023  0.6255  0.7594
  799SOL    HW1 3181   0.644   2.805   0.747 -0.1448  1.8274  1.1267
  799SOL    HW2 3182   0.695   2.753   0.880  0.3044  0.0421  0.2865
  800SOL     OW 3183   0.595   2.920   0.392 -0.1456  0.3316  0.5949
  800SOL    HW1 3184   0.586   2.863   0.468  1.6095 -4.3313 -2.2981
  800SOL    HW2 3185   0.505   2.937   0.363 -0.7446  0.3476  2.3789
  801SOL     OW 3186   2.356   2.657   1.127 -0.2827  0.0261  0.1155
  801SOL    HW1 3187   2.401   2.687   1.207 -1.5151  0.2028  0.7619
  801SOL    HW2 3188   2.364   2.731   1.066  0.6858 -0.1167  0.0531
  802SOL     OW 3189   1.565   1.636   2.977 -0.6685 -0.8618  0.0274
  802SOL    HW1 3190   1.635   1.701   2.970 -0.3289 -1.2068  0.1307
  802SOL    HW2 3191   1.497   1.666   2.917 -1.4342  0.7123  1.5902
  803SOL     OW 3192   2.899   1.604   3.222  0.0638  0.6095 -0.0333
  803SOL    HW1 3193   2.972   1.655   3.188  0.2301 -0.7342 -1.8351
  803SOL    HW2 3194   2.940   1.531   3.268 -0.0309 -0.7373 -1.9415
  804SOL     OW 3195   0.905   2.746   3.333  0.1612  0.8486  0.0883
  804SOL    HW1 3196   0.848   2.730   3.258  0.1355  0.4688  0.1863
  804SOL    HW2 3197   0.942   2.833   3.318  1.4837  0.0951 -1.2185
  805SOL     OW 3198   2.329   1.178   2.579 -0.3688 -0.4474 -0.2202
  805SOL    HW1 3199   2.391   1.141   2.516 -0.1193  0.6901 -0.6698
  805SOL    HW2 3200   2.252   1.199   2.528  0.1387  1.2601 -0.3595
  806SOL     OW 3201   1.503   1.918   3.079  0.3464 -0.1459 -0.3299
  806SOL    HW1 3202   1.598   1.926   3.076  0.5127 -1.4123  0.6281
  806SOL    HW2 3203   1.481   1.860   3.006  0.5645 -1.5710  0.6910
  807SOL     OW 3204   1.525   1.616   1.419 -0.8841  0.2463  0.0628
  807SOL    HW1 3205   1.568   1.693   1.381 -1.6100  0.7899  0.3344
  807SOL    HW2 3206   1.597   1.564   1.454 -0.2178 -0.0592 -1.6496
  808SOL     OW 3207   2.091   2.519   1.172  0.2015 -0.0679  0.0091
  808SOL    HW1 3208   2.171   2.565   1.148 -0.0700  0.4204  0.0282
  808SOL    HW2 3209   2.116   2.427   1.173  0.6773  0.0549 -0.3123
  809SOL     OW 3210   2.077   2.075   1.570 -0.6907 -0.1192  0.1462
  809SOL    HW1 3211   2.165   2.111   1.558  0.1362 -1.5715  1.4723
  809SOL    HW2 3212   2.019   2.142   1.534  0.9194  1.1334 -0.2589
  810SOL     OW 3213   1.915   1.642   1.054 -0.0513  0.0764 -0.3110
  810SOL    HW1 3214   1.937   1.735   1.063  0.0999 -0.0699  1.1265
  810SOL    HW2 3215   1.869   1.636   0.971 -1.5228  1.7493  0.3194
  811SOL     OW 3216   0.059   0.100   3.316  0.2338 -0.2174 -0.1713
  811SOL    HW1 3217   0.036   0.021   3.267 -0.2295  0.9520 -1.9235
  811SOL    HW2 3218  -0.017   0.118   3.371  0.8993 -1.7406  1.3390
  812SOL     OW 3219   0.419   1.840   0.554 -0.3919  0.0139 -0.0660
  812SOL    HW1 3220   0.425   1.882   0.640  0.6220 -0.7159  0.2306
  812SOL    HW2 3221   0.343   1.881   0.513 -0.1366  1.2826  0.6768
  813SOL     OW 3222   3.163   1.204   0.534 -0.4564 -0.6723 -0.4755
  813SOL    HW1 3223   3.076   1.232   0.564 -0.2321  0.8848 -1.1545
  813SOL    HW2 3224   3.162   1.221   0.440  0.8840  0.2716 -0.3466
  814SOL     OW 3225   2.299   2.581   2.927  0.2601 -0.7874 -0.4270
  814SOL    HW1 3226   2.383   2.625   2.938 -0.3380  0.4238 -0.6011
  814SOL    HW2 3227   2.235   2.651   2.918 -0.7300 -1.6892 -0.7123
  815SOL     OW 3228   0.327   2.840   2.377  0.1389  0.3773  0.3676
  815SOL    HW1 3229   0.400   2.893   2.411  0.3364  1.5877 -1.7584
  815SOL    HW2 3230   0.370   2.773   2.324 -0.2349  1.5311 -1.4897
  816SOL     OW 3231   3.339   2.627   1.014 -0.5880  0.0408 -0.4548
  816SOL    HW1 3232   3.267   2.565   1.004  0.6346 -1.4710 -0.2993
  816SOL    HW2 3233   3.418   2.576   0.994  0.5416  1.3270  0.4832
  817SOL     OW 3234   1.226   0.214   3.299  0.3654 -0.3636 -0.1280
  817SOL    HW1 3235   1.269   0.187   3.380  0.3772 -1.9001 -0.6231
  817SOL    HW2 3236   1.145   0.256   3.328 -0.1802 -1.8864  0.6767
  818SOL     OW 3237   0.959   2.703   2.110  0.2661  0.2720 -0.2917
  818SOL    HW1 3238   1.032   2.754   2.075  0.2277  0.5969  0.0933
  818SOL    HW2 3239   0.946   2.738   2.198  0.6629 -0.8322  0.2255
  819SOL     OW 3240   0.315   3.286   0.606 -0.5569  0.2299  0.1761
  819SOL    HW1 3241   0.398   3.292   0.558  1.0689 -1.5584  2.5110
  819SOL    HW2 3242   0.269   3.367   0.585  1.8512  1.3760 -1.1002
  820SOL     OW 3243   2.522   2.028   3.111 -0.1621 -0.0304  0.4084
  820SOL    HW1 3244   2.576   2.090   3.160  1.5985 -1.0119 -0.1961
  820SOL    HW2 3245   2.505   2.071   3.027  2.9201 -1.1155 -0.9011
  821SOL     OW 3246   1.092   0.005   0.430  1.1134 -0.9224 -0.8633
  821SOL    HW1 3247   1.056  -0.054   0.364 -2.4958 -1.5812  1.4202
  821SOL    HW2 3248   1.163  -0.045   0.470 -0.6887 -3.1292 -0.1975
  822SOL     OW 3249   2.580   2.904   2.612  0.2260  0.1324  0.9635
  822SOL    HW1 3250   2.589   2.965   2.685 -2.0121  1.0183  0.6048
  822SOL    HW2 3251   2.521   2.949   2.551  0.3771 -1.4488 -0.4191
  823SOL     OW 3252   1.616   1.019   0.214 -0.0504 -0.0847  0.3668
  823SOL    HW1 3253   1.641   1.102   0.174  1.0897 -0.1128  0.9591
  823SOL    HW2 3254   1.644   0.952   0.151  0.1182 -0.0554  0.4088
  824SOL     OW 3255   3.016   3.024   1.289 -0.4743  0.0568 -0.2245
  824SOL    HW1 3256   3.106   3.042   1.317  0.0334  1.5426 -2.5149
  824SOL    HW2 3257   3.003   2.931   1.307  1.0469  0.1154  1.3646
  825SOL     OW 3258   1.281   0.981   0.806 -0.0200  0.3497 -0.0559
  825SOL    HW1 3259   1.189   0.956   0.804  0.0041  0.3028 -0.9184
  825SOL    HW2 3260   1.320   0.926   0.874 -0.2230 -1.0870 -1.0653
  826SOL     OW 3261   3.311   2.105   1.393 -0.0989 -0.1488 -0.3864
  826SOL    HW1 3262   3.365   2.050   1.448 -1.6835 -0.6396  0.7476
  826SOL    HW2 3263   3.239   2.049   1.364 -0.0756  0.4886 -1.8122
  827SOL     OW 3264   0.036   0.789   3.143  0.6496  0.5839  0.0605
  827SOL    HW1 3265   0.077   0.764   3.060  0.5589  1.6797 -0.3285
  827SOL    HW2 3266   0.110   0.803   3.203  0.8080  1.5111 -0.3392
  828SOL     OW 3267   0.351   0.576   0.108  0.2736 -0.0270  0.4272
  828SOL    HW1 3268   0.321   0.538   0.026 -0.5179 -1.6381  1.4173
  828SOL    HW2 3269   0.401   0.653   0.082  1.3657 -1.3522 -1.6415
  829SOL     OW 3270   0.242   2.506   0.540  0.0941  0.5179 -0.0008
  829SOL    HW1 3271   0.251   2.571   0.610  1.2718  0.5178 -0.1368
  829SOL    HW2 3272   0.329   2.468   0.531 -0.3664 -0.4362 -0.5575
  830SOL     OW 3273   1.513   0.888   1.326  0.0368  0.0247  0.0817
  830SOL    HW1 3274   1.466   0.916   1.405 -0.3600  0.1046 -0.1844
  830SOL    HW2 3275   1.547   0.969   1.288  1.0871 -0.1004  0.7071
  831NA      NA 3276   2.333   0.967   0.535 -0.2981  0.0308  0.3213
  832NA      NA 3277   2.172   0.029   1.461 -0.5519 -0.3463 -0.4323
  833NA      NA 3278   2.821   0.605   0.913 -0.4533  0.1749 -0.0591
  834NA      NA 3279   1.796   0.614   1.599  0.3744 -0.1048 -0.6543
  835NA      NA 3280   3.025   2.968   0.248 -0.1522 -0.0085  0.6631
  836NA      NA 3281   2.154   0.590   1.375 -0.7823 -0.0466  0.1878
  837NA      NA 3282   1.840   0.075   1.717 -0.4909 -0.6628  0.8477
  838NA      NA 3283   2.813   2.863   3.303  0.3552  0.0059  0.1879
  839NA      NA 3284   2.249   3.312   0.935  0.3868  0.4025  0.3071
  840NA      NA 3285   2.055   0.912   1.606 -0.1141 -0.1083  0.2863
  841NA      NA 3286   2.393   0.953   1.407  0.6105  0.0256 -0.6146
  842NA      NA 3287   1.765   1.178   1.559  0.3022  0.7715 -0.5174
  843NA      NA 3288   3.127   0.581   0.627  0.0652  0.2349 -0.1354
  844NA      NA 3289   1.914   1.685   1.587  0.3625 -0.7428 -0.0678
  845NA      NA 3290   2.896   0.031   1.043 -0.0012  0.1274 -0.1277
  846NA      NA 3291   2.899   0.276   0.669  0.3171  0.3062  0.4670
  847NA      NA 3292   2.391   3.243   0.385 -0.6364  0.5688  0.3091
  848NA      NA 3293   2.222   0.268   1.153 -0.3893 -0.3389 -0.3723
  849NA      NA 3294   2.370   2.990   0.730  0.2194 -0.0002  0.0929
  850NA      NA 3295   1.882   0.172   3.359 -0.6203 -0.2020  0.3882
  851NA      NA 3296   1.917   3.359   1.148  0.4764 -0.4261 -0.0884
  852NA      NA 3297   2.130   1.085   0.213 -0.3378 -1.0279  0.1330
  853NA      NA 3298   2.956   3.066   0.798 -0.4286 -0.0045  0.0456
  854NA      NA 3299   2.406   0.053   0.037  0.3139  0.1337 -0.1702
  855NA      NA 3300   2.750   0.060   3.173  0.0738 -0.9440 -0.6321
  856NA      NA 3301   3.065   0.700   1.243  0.0930  0.1526 -0.2760
  857NA      NA 3302   1.853   1.373   1.231 -0.0128  0.0747 -0.1525
  858NA      NA 3303   2.156   0.859   1.056 -0.6091  0.2805  0.1331
  859NA      NA 3304   2.461   0.566   1.151 -0.0822 -0.0318  0.3653
  860NA      NA 3305   3.112   0.621   0.034  0.1439  0.0577  0.6701
  861NA      NA 3306   2.645   1.007   1.734  0.6276  0.3275 -0.1244
  862NA      NA 3307   1.840   0.851   1.294 -0.2278  0.1328 -0.1748
  863NA      NA 3308   2.470   2.884   0.181  0.2432 -0.0073  0.6528
  864NA      NA 3309   2.149   3.129   0.076  0.2350  0.4306  0.3013
  865NA      NA 3310   1.773   1.627   1.973 -0.2440  0.3536  0.0534
  866NA      NA 3311   2.820   0.835   0.574  0.3545  0.2118  0.2011
  867NA      NA 3312   2.984   1.229   1.138  0.3756 -0.2863  0.4557
  868NA      NA 3313   2.170   3.365   3.111 -0.2668 -0.0418 -0.1950
  869NA      NA 3314   0.056   0.488   0.314  0.3313  0.1122  0.4995
  870NA      NA 3315   2.257   0.500   0.836  0.1044  0.3209  0.0855
  871NA      NA 3316   2.588   0.263   0.911  0.1635 -0.1748 -0.2217
  872NA      NA 3317   1.891   0.630   0.112 -0.0305  0.2186 -0.2531
  873NA      NA 3318   2.575   1.229   0.512  0.1354  0.0738 -0.0702
  874NA      NA 3319   3.346   2.905   0.010 -0.1362  0.0273  0.7333
  875NA      NA 3320   2.996   2.700   0.606 -0.4770 -0.1351 -0.5484
  876NA      NA 3321   2.670   2.798   0.825 -0.0820  0.1797  0.0620
  877NA      NA 3322   3.314   2.713   0.361 -0.3241  0.2115 -0.4469
  878NA      NA 3323   2.976   3.320   0.456 -0.2984  0.3053 -0.4944
  879NA      NA 3324   3.268   2.833   0.913 -0.3535 -0.3517  0.3465
  880NA      NA 3325   3.075   3.179   3.274 -0.1475 -0.2222  0.4118
  881NA      NA 3326   2.222   2.826   3.253  0.2100 -0.0588 -0.8234
  882NA      NA 3327   2.677   0.665   1.462  0.1398 -0.0402 -0.0662
  883NA      NA 3328   3.061   0.946   0.941 -0.2092 -0.6856  0.3906
  884NA      NA 3329   2.218   2.575   0.218  0.4928  0.0230  0.7598
  885NA      NA 3330   2.697   0.419   1.783 -0.0685 -0.3438  0.1791
  886NA      NA 3331   2.920   0.454   0.330 -0.6016 -0.8046  0.4000
  887NA      NA 3332   3.187   0.023   0.783 -0.1956 -0.5040  0.3016
  888NA      NA 3333   1.938   0.410   0.486  0.4696  0.1095  0.2996
  889NA      NA 3334   2.671   0.386   3.377 -0.3494 -0.2234 -0.3126
  890NA      NA 3335   2.440   2.653   0.527  0.3873 -0.3768 -0.1793
  891NA      NA 3336   2.720   0.940   1.158 -0.0768  0.3987  0.2884
  892NA      NA 3337   2.982   0.365   3.163 -0.2483 -0.0374  0.2578
  893NA      NA 3338   2.762   2.595   0.262  0.3335  0.0825  0.6166
  894NA      NA 3339   2.557   0.727   0.239 -0.0808  0.3627 -0.1270
  895NA      NA 3340   2.630   3.313   0.680 -0.0904 -0.4681  0.4176
  896NA      NA 3341   1.416   0.707   3.308  0.0863 -0.3117  0.2101
  897NA      NA 3342   2.110   0.356   1.731  0.0502  0.0480  0.0618
  898NA      NA 3343   1.634   2.622   1.908  0.2723 -0.5463 -0.1674
  899NA      NA 3344   2.492   3.365   2.869  0.0810 -0.0107 -0.2978
  900NA      NA 3345   2.483   3.135   3.156  0.1726 -0.4445 -0.6832
  901NA      NA 3346   1.918   0.552   1.021  0.2550  0.1420 -0.4378
  902NA      NA 3347   2.089   0.095   0.282  0.5290  0.1432 -0.1929
  903NA      NA 3348   1.959   0.739   0.675 -0.2693  0.6273  0.0083
  904NA      NA 3349   2.709   2.986   0.467  0.1360  0.2637  0.4685
  905NA      NA 3350   2.325   1.421   0.253  0.3884  0.1303 -0.5766
  906NA      NA 3351   2.658   0.191   0.357 -0.4694  0.0932  0.1737
  907NA      NA 3352   1.914   0.309   1.357 -0.1907 -0.0753 -0.0790
  908NA      NA 3353   1.846   0.335   3.000  0.0533 -0.0342  0.0183
  909NA      NA 3354   2.732   3.221   0.143  0.4981 -0.3740 -0.2236
  910NA      NA 3355   2.771   1.166   0.793 -0.0851  0.2817 -0.2163
  911NA      NA 3356   3.006   0.140   0.111 -0.0742 -0.3023  0.2084
  912NA      NA 3357   2.809   0.385   1.226  0.2864  0.2960 -0.3722
  913NA      NA 3358   2.482   0.826   0.828 -0.3701  0.1096 -0.1011
  914NA      NA 3359   2.114   2.910   0.414 -0.0859  0.2602 -0.3146
  915NA      NA 3360   3.064   0.455   1.550  0.5190  0.0969 -0.3058
  916NA      NA 3361   1.955   0.181   0.812 -0.5459 -0.2624 -0.1546
  917NA      NA 3362   1.929   3.286   2.779  0.4908 -0.0114  0.0345
  918NA      NA 3363   3.168   0.377   0.987  0.4589 -0.1464 -0.6132
  919NA      NA 3364   1.999   1.014   3.240 -0.4713  0.5167 -0.2127
  920NA      NA 3365   2.000   3.187   0.615  0.2199  0.0433 -0.1284
  921NA      NA 3366   2.158   2.667   0.755 -0.0106  0.4116 -0.6455
  922NA      NA 3367   2.473   0.324   1.499 -0.4337 -0.2697 -0.0574
  923NA      NA 3368   2.303   0.165   0.589 -0.0784 -0.1291  0.0377
  924NA      NA 3369   2.932   0.986   1.472  0.3559 -0.2442 -0.4089
  925NA      NA 3370   2.937   0.743   1.823  0.1482 -0.4138  0.6366
  926NA      NA 3371   2.379   0.686   1.723 -0.2716 -0.8381 -0.2048
  927NA      NA 3372   1.490   0.826   0.287  0.1862 -0.1326  0.0305
  928NA      NA 3373   2.406   1.147   1.046  0.0436 -0.6212 -0.4707
  929NA      NA 3374   2.573   0.501   0.580 -0.1006 -0.0956 -0.0720
  930NA      NA 3375   3.253   3.028   0.558  0.5585 -0.4974 -0.6651
  931CL      CL 3376   2.539   0.541   0.877 -0.6456 -0.2323 -0.4413
  932CL      CL 3377   2.221   3.094   3.192  0.6002 -0.1599 -0.0160
  933CL      CL 3378   1.968   0.471   0.750  0.2332 -0.1485 -0.0777
  934CL      CL 3379   2.081   0.870   3.031 -0.1220  0.2159 -0.0751
  935CL      CL 3380   2.427   0.601   1.440  0.1107 -0.1920 -0.2271
  936CL      CL 3381   2.116   0.028   0.003 -0.1461  0.1718 -0.0562
  937CL      CL 3382   1.925   0.242   1.077  0.2020  0.2101 -0.1766
  938CL      CL 3383   1.885   0.819   0.991 -0.3158  0.4548 -0.4543
  939CL      CL 3384   2.349   0.956   1.671 -0.2956 -0.4280 -0.4458
  940CL      CL 3385   2.107   3.195   0.349  0.1057 -0.2044  0.0875
  941CL      CL 3386   2.650   3.059   0.843  0.4960 -0.0472  0.0798
  942CL      CL 3387   1.820   0.346   1.638 -0.7098  0.0694  0.2205
  943CL      CL 3388   2.662   0.955   1.458  0.1798  0.2767 -0.2614
  944CL      CL 3389   1.770   0.900   1.577  0.2830  0.2132  0.3223
  945CL      CL 3390   3.320   2.973   0.281 -0.2124  0.0141 -0.1853
  946CL      CL 3391   2.408   2.960   0.448  0.0547 -0.2429 -0.1106
  947CL      CL 3392   1.860   0.582   1.317 -0.4985 -0.6890 -0.2790
  948CL      CL 3393   1.807   0.437   3.257  0.2135  0.4038  0.2460
  949CL      CL 3394   2.142   2.606   0.486  0.0616 -0.3108  0.2590
  950CL      CL 3395   2.493   2.848   3.282  0.2527  0.0657  0.4301
  951CL      CL 3396   2.088   2.928   0.700 -0.0803 -0.0778 -0.3451
  952CL      CL 3397   2.612   0.217   0.645 -0.1968  0.0767  0.0201
  953CL      CL 3398   3.031   2.653   0.308 -0.4157  0.1162  0.0309
  954CL      CL 3399   3.005   0.956   1.218  0.2102 -0.3256 -0.3770
  955CL      CL 3400   2.544   0.778   0.531 -0.2469  0.2064  0.0762
  956CL      CL 3401   2.647   0.457   0.299  0.3901 -0.0325 -0.2891
  957CL      CL 3402   2.353   3.275   0.674 -0.1816 -0.4402  0.3304
  958CL      CL 3403   2.223   0.781   0.781 -0.1565  0.0481 -0.2861
  959CL      CL 3404   2.992   0.439   1.827  0.1346 -0.2239  0.0909
  960CL      CL 3405   2.663   0.721   1.794 -0.0398  0.0989 -0.3417
  961CL      CL 3406   2.452   1.104   0.740 -0.1254  0.2334  0.1659
  962CL      CL 3407   3.098   0.417   1.289 -0.6293  0.1148 -0.3284
  963CL      CL 3408   1.663   3.173   2.798 -0.6983  0.1406 -0.0642
  964CL      CL 3409   2.943   0.190   0.385 -0.1498  0.0146  0.3872
  965CL      CL 3410   2.741   0.375   1.527  0.0853  0.1061 -0.5194
  966CL      CL 3411   2.110   0.082   1.726  0.1672 -0.2450 -0.0667
  967CL      CL 3412   2.210   3.357   2.825  0.5659 -0.2646 -0.1370
  968CL      CL 3413   1.968   3.260   0.888 -0.1042 -0.2283 -0.2606
  969CL      CL 3414   2.327   1.227   1.311 -0.0766  0.2881 -0.3017
  970CL      CL 3415   2.595   1.762   0.456 -0.0612  0.6370  0.2237
  971CL      CL 3416   2.811   1.094   0.526  0.2718  0.1884 -0.2639
  972CL      CL 3417   2.754   0.650   1.190  0.2070  0.1061  0.0071
  973CL      CL 3418   3.194   0.308   0.685 -0.4121 -0.1172  0.1161
  974CL      CL 3419   3.040   1.196   0.871 -0.2305  0.1228 -0.3569
  975CL      CL 3420   2.995   0.710   1.546 -0.1246  0.3673  0.1872
  976CL      CL 3421   2.355   0.144   0.317 -0.2130 -0.2952 -0.0441
  977CL      CL 3422   1.725   1.284   0.041 -0.2821  0.1055 -0.1110
  978CL      CL 3423   1.941   0.316   0.221 -0.3556 -0.0122 -0.4736
  979CL      CL 3424   1.886   0.010   1.414 -0.1419 -0.2752  0.0568
  980CL      CL 3425   2.414   0.401   1.766 -0.3069 -0.0813 -0.2800
  981CL      CL 3426   2.936   1.060   1.734  0.1569  0.0015 -0.1417
  982CL      CL 3427   2.910   3.352   0.735  0.3684 -0.1517 -0.0041
  983CL      CL 3428   3.342   3.161   3.239 -0.2488  0.0453  0.2220
  984CL      CL 3429   2.085   0.649   1.667 -0.1250  0.0430 -0.2134
  985CL      CL 3430   2.488   2.603   0.260  0.3374 -0.3229  0.0672
  986CL      CL 3431   1.764   1.125   1.259 -0.0056  0.2696  0.4353
  987CL      CL 3432   2.511   0.301   1.178  0.3171 -0.1165  0.3790
  988CL      CL 3433   3.023   0.074   3.205 -0.1528  0.3375  0.3527
  989CL      CL 3434   1.905   0.683   0.410 -0.2466 -0.1294 -0.1368
  990CL      CL 3435   2.164   2.860   0.144 -0.3816  0.2093  0.5642
  991CL      CL 3436   3.077   2.895   3.360  0.0362 -0.4840  0.1185
  992CL      CL 3437   2.347   1.170   0.356  0.1502 -0.1123  0.0006
  993CL      CL 3438   1.747   0.792   2.082 -0.2761  0.0956 -0.0304
  994CL      CL 3439   2.453   0.040   3.136 -0.5678  0.3185  0.0573
  995CL      CL 3440   2.976   3.031   0.510  0.1715 -0.4034  0.1613
  996CL      CL 3441   2.263   0.220   0.868 -0.0645  0.3238  0.2329
  997CL      CL 3442   1.887   0.088   3.072 -0.6371  0.1570 -0.0114
  998CL      CL 3443   3.297   2.747   0.629  0.2957  0.3362 -0.2190
  999CL      CL 3444   1.797   1.464   1.490  0.1215 -0.1846 -0.1480
 1000CL      CL 3445   2.782   3.166   3.242  0.0876 -0.2315  0.5757
 1001CL      CL 3446   2.685   0.115   0.071 -0.2109  0.0364  0.1082
 1002CL      CL 3447   2.432   3.188   0.123 -0.3291 -0.0600  0.0528
 1003CL      CL 3448   2.680   3.265   0.428 -0.5321  0.0286 -0.3288
 1004CL      CL 3449   3.155   0.583   0.317 -0.2262  0.0747 -0.2387
 1005CL      CL 3450   3.171   0.446   2.941 -0.2186 -0.3435  0.0793
 1006CL      CL 3451   2.975   2.806   0.892 -0.6283 -0.0670  0.1858
 1007CL      CL 3452   2.129   0.873   1.336  0.0901  0.0155  0.0221
 1008CL      CL 3453   2.526   3.079   2.889 -0.1975 -0.1523  0.0466
 1009CL      CL 3454   2.186   0.555   1.102 -0.3348 -0.2434 -0.2389
 1010CL      CL 3455   2.057   0.855   0.077  0.0254  0.1311 -0.3422
 1011CL      CL 3456   2.449   0.883   1.103 -0.1088 -0.2975 -0.1629
 1012CL      CL 3457   2.720   0.345   3.113 -0.0642  0.1141  0.0206
 1013CL      CL 3458   2.786   0.868   0.863 -0.2373  0.0817 -0.1340
 1014CL      CL 3459   3.222   3.105   0.845  0.2740  0.1137  0.2568
 1015CL      CL 3460   1.760   2.295   0.362  0.2147 -0.2871 -0.1493
 1016CL      CL 3461   1.802   1.844   1.802  0.2153  0.0179  0.2080
 1017CL      CL 3462   2.178   0.309   1.417  0.2692 -0.4061  0.5070
 1018CL      CL 3463   2.015   0.129   0.559 -0.4092 -0.1704 -0.0012
 1019CL      CL 3464   2.721   2.737   0.553 -0.0050 -0.1102  0.2432
 1020CL      CL 3465   2.681   1.206   1.059 -0.1293  0.0515 -0.0864
 1021CL      CL 3466   3.179   0.092   1.058 -0.2007  0.3363 -0.1341
 1022CL      CL 3467   2.236   3.372   1.197  0.0105  0.1615 -0.4234
 1023CL      CL 3468   3.029   3.264   0.166  0.0713  0.1632 -0.4517
 1024CL      CL 3469   1.640   0.741   0.084 -0.1867 -0.1557 -0.3710
 1025CL      CL 3470   2.943   0.405   0.040 -0.1290  0.2209  0.2988
 1026CL      CL 3471   2.864   0.553   0.605  0.2793 -0.1074 -0.0220
 1027CL      CL 3472   2.877   0.304   0.943  0.1595 -0.3632  0.4222
 1028CL      CL 3473   2.414   2.743   0.813  0.0312 -0.3474 -0.2229
 1029CL      CL 3474   2.745   2.932   0.193  0.4537 -0.2252  0.1826
 1030CL      CL 3475   3.097   0.651   0.947  0.1547  0.2385 -0.5061
   3.37751   3.37751   3.37751
