Generic title
 3875
    1PET     C9    1   2.132   1.956   2.296
    1PET     H6    2   2.110   1.858   2.252
    1PET     H7    3   2.115   2.032   2.218
    1PET     O2    4   2.057   1.979   2.415
    1PET     C8    5   2.068   1.888   2.516
    1PET     O1    6   2.161   1.815   2.530
    1PET     C4    7   1.959   1.917   2.623
    1PET     C5    8   1.895   2.039   2.634
    1PET     C6    9   1.807   2.072   2.742
    1PET     H4   10   1.759   2.169   2.737
    1PET     H3   11   1.919   2.115   2.560
    1PET     C3   12   1.930   1.815   2.718
    1PET     H2   13   1.977   1.717   2.719
    1PET     C2   14   1.826   1.832   2.812
    1PET     H1   15   1.804   1.751   2.880
    1PET     C1   16   1.761   1.958   2.820
    1PET     C7   17   1.674   1.986   2.941
    1PET     O3   18   1.666   1.904   3.030
    1PET     O4   19   1.601   2.097   2.922
    1PET    C10   20   1.521   2.142   3.032
    1PET     H8   21   1.535   2.065   3.109
    1PET     H9   22   1.412   2.141   3.022
    1PET    C11   23   1.575   2.283   3.069
    1PET    H10   24   1.673   2.263   3.112
    1PET    H11   25   1.523   2.330   3.153
    1PET    C12   26   1.564   2.387   2.959
    1PET    H13   27   1.471   2.373   2.902
    1PET    H14   28   1.644   2.358   2.889
    2PEO     C1   29   1.571   2.537   2.991
    2PEO     H3   30   1.496   2.554   3.069
    2PEO     H4   31   1.533   2.606   2.915
    2PEO      O   32   1.711   2.575   3.037
    2PEO     C2   33   1.791   2.626   2.931
    2PEO     H5   34   1.756   2.728   2.909
    2PEO     H6   35   1.782   2.572   2.835
    2PEO     C3   36   1.938   2.627   2.972
    2PEO     H7   37   1.991   2.564   2.898
    2PEO     H8   38   1.953   2.586   3.073
    2PEO     O1   39   1.999   2.755   2.986
    2PEO     C4   40   1.965   2.822   3.107
    2PEO     H9   41   1.880   2.773   3.156
    2PEO    H10   42   1.946   2.928   3.085
    2PEO     C5   43   2.069   2.798   3.216
    2PEO    H11   44   2.081   2.689   3.224
    2PEO    H12   45   2.044   2.847   3.310
    2PEO     O2   46   2.199   2.850   3.183
    2PEO     C6   47   2.210   3.000   3.171
    2PEO    H13   48   2.148   3.054   3.098
    2PEO    H14   49   2.314   3.021   3.144
    2PEO     C7   50   2.183   3.060   3.307
    2PEO    H15   51   2.078   3.047   3.338
    2PEO    H16   52   2.193   3.169   3.299
    2PEO     O3   53   2.289   3.006   3.403
    2PEO     C8   54   2.281   3.056   3.544
    2PEO    H17   55   2.298   3.163   3.564
    2PEO    H18   56   2.360   3.012   3.605
    2PEO     C9   57   2.156   3.000   3.611
    2PEO    H19   58   2.171   2.988   3.719
    2PEO    H20   59   2.124   2.907   3.561
    2PEO     O4   60   2.056   3.094   3.590
    2PEO    C10   61   1.930   3.065   3.650
    2PEO    H21   62   1.866   3.154   3.653
    2PEO    H22   63   1.947   3.022   3.749
    3PET     C9   64   1.853   2.947   3.582
    3PET     H6   65   1.769   2.900   3.635
    3PET     H7   66   1.921   2.861   3.581
    3PET     O2   67   1.811   2.996   3.455
    3PET     C8   68   1.771   2.918   3.352
    3PET     O1   69   1.772   2.789   3.358
    3PET     C4   70   1.717   3.000   3.231
    3PET     C5   71   1.759   3.136   3.211
    3PET     C6   72   1.725   3.199   3.091
    3PET     H4   73   1.747   3.305   3.092
    3PET     H3   74   1.810   3.189   3.290
    3PET     C3   75   1.642   2.936   3.132
    3PET     H2   76   1.613   2.832   3.143
    3PET     C2   77   1.611   3.003   3.017
    3PET     H1   78   1.563   2.946   2.938
    3PET     C1   79   1.648   3.131   2.989
    3PET     C7   80   1.606   3.208   2.869
    3PET     O3   81   1.537   3.158   2.786
    3PET     O4   82   1.665   3.330   2.867
    3PET    C10   83   1.642   3.424   2.762
    3PET     H8   84   1.535   3.446   2.749
    3PET     H9   85   1.691   3.400   2.667
    3PET    C11   86   1.701   3.550   2.808
    3PET    H10   87   1.694   3.563   2.917
    3PET    H11   88   1.650   3.629   2.752
    3PET    C12   89   1.859   3.570   2.785
    3PET    H13   90   1.891   3.667   2.825
    3PET    H14   91   1.873   3.576   2.676
    4PET     C9   92   1.943   3.457   2.834
    4PET     H6   93   1.927   3.432   2.940
    4PET     H7   94   2.049   3.484   2.825
    4PET     O2   95   1.931   3.333   2.748
    4PET     C8   96   1.937   3.210   2.799
    4PET     O1   97   1.952   3.187   2.917
    4PET     C4   98   1.946   3.097   2.698
    4PET     C5   99   1.891   3.108   2.566
    4PET     C6  100   1.887   2.994   2.481
    4PET     H4  101   1.848   3.017   2.382
    4PET     H3  102   1.855   3.206   2.536
    4PET     C3  103   2.012   2.969   2.732
    4PET     H2  104   2.047   2.934   2.829
    4PET     C2  105   2.005   2.864   2.644
    4PET     H1  106   2.047   2.770   2.680
    4PET     C1  107   1.944   2.870   2.517
    4PET     C7  108   1.946   2.746   2.429
    4PET     O3  109   1.886   2.734   2.320
    4PET     O4  110   2.037   2.650   2.471
    4PET    C10  111   2.055   2.533   2.392
    4PET     H8  112   1.959   2.482   2.380
    4PET     H9  113   2.112   2.452   2.441
    4PET    C11  114   2.131   2.551   2.256
    4PET    H10  115   2.221   2.612   2.270
    4PET    H11  116   2.055   2.605   2.199
    4PET    C12  117   2.176   2.419   2.188
    4PET    H13  118   2.087   2.355   2.191
    4PET    H14  119   2.257   2.378   2.250
    5PET     C9  120   2.232   2.444   2.045
    5PET     H6  121   2.163   2.511   1.992
    5PET     H7  122   2.242   2.348   1.994
    5PET     O2  123   2.359   2.510   2.058
    5PET     C8  124   2.472   2.450   2.092
    5PET     O1  125   2.479   2.332   2.093
    5PET     C4  126   2.591   2.540   2.125
    5PET     C5  127   2.721   2.489   2.150
    5PET     C6  128   2.829   2.571   2.196
    5PET     H4  129   2.923   2.518   2.207
    5PET     H3  130   2.750   2.384   2.140
    5PET     C3  131   2.572   2.680   2.122
    5PET     H2  132   2.484   2.741   2.101
    5PET     C2  133   2.689   2.763   2.162
    5PET     H1  134   2.688   2.871   2.148
    5PET     C1  135   2.816   2.711   2.197
    5PET     C7  136   2.926   2.792   2.240
    5PET     O3  137   3.031   2.745   2.277
    5PET     O4  138   2.894   2.930   2.243
    5PET    C10  139   2.992   3.023   2.281
    5PET     H8  140   3.092   3.000   2.241
    5PET     H9  141   2.997   3.033   2.390
    5PET    C11  142   2.948   3.159   2.223
    5PET    H10  143   3.027   3.229   2.256
    5PET    H11  144   2.863   3.198   2.281
    5PET    C12  145   2.925   3.162   2.075
    5PET    H13  146   2.870   3.072   2.047
    5PET    H14  147   3.027   3.168   2.036
    6PEO     C1  148   2.846   3.285   2.023
    6PEO     H3  149   2.747   3.276   2.068
    6PEO     H4  150   2.835   3.281   1.914
    6PEO      O  151   2.925   3.404   2.070
    6PEO     C2  152   2.877   3.539   2.030
    6PEO     H5  153   2.861   3.554   1.922
    6PEO     H6  154   2.949   3.621   2.043
    6PEO     C3  155   2.747   3.579   2.106
    6PEO     H7  156   2.719   3.683   2.089
    6PEO     H8  157   2.768   3.572   2.213
    6PEO     O1  158   2.638   3.500   2.078
    6PEO     C4  159   2.524   3.540   2.166
    6PEO     H9  160   2.477   3.635   2.138
    6PEO    H10  161   2.563   3.561   2.266
    6PEO     C5  162   2.416   3.424   2.177
    6PEO    H11  163   2.357   3.410   2.085
    6PEO    H12  164   2.356   3.461   2.260
    6PEO     O2  165   2.480   3.294   2.196
    6PEO     C6  166   2.538   3.275   2.329
    6PEO    H13  167   2.471   3.318   2.405
    6PEO    H14  168   2.629   3.337   2.320
    6PEO     C7  169   2.591   3.133   2.355
    6PEO    H15  170   2.693   3.146   2.393
    6PEO    H16  171   2.601   3.064   2.270
    6PEO     O3  172   2.515   3.071   2.464
    6PEO     C8  173   2.374   3.031   2.435
    6PEO    H17  174   2.333   3.119   2.385
    6PEO    H18  175   2.323   3.004   2.529
    6PEO     C9  176   2.368   2.918   2.331
    6PEO    H19  177   2.282   2.853   2.352
    6PEO    H20  178   2.461   2.862   2.350
    6PEO     O4  179   2.369   2.977   2.198
    6PEO    C10  180   2.249   3.054   2.153
    6PEO    H21  181   2.263   3.162   2.140
    6PEO    H22  182   2.175   3.042   2.232
    7PET     C9  183   2.202   2.994   2.014
    7PET     H6  184   2.104   3.041   1.999
    7PET     H7  185   2.198   2.886   2.033
    7PET     O2  186   2.304   3.025   1.917
    7PET     C8  187   2.300   3.134   1.845
    7PET     O1  188   2.206   3.215   1.831
    7PET     C4  189   2.442   3.153   1.788
    7PET     C5  190   2.557   3.105   1.858
    7PET     C6  191   2.675   3.102   1.791
    7PET     H4  192   2.760   3.058   1.841
    7PET     H3  193   2.554   3.076   1.962
    7PET     C3  194   2.451   3.192   1.654
    7PET     H2  195   2.362   3.202   1.593
    7PET     C2  196   2.569   3.179   1.585
    7PET     H1  197   2.585   3.184   1.477
    7PET     C1  198   2.688   3.139   1.655
    7PET     C7  199   2.813   3.116   1.582
    7PET     O3  200   2.825   3.086   1.463
    7PET     O4  201   2.922   3.128   1.666
    7PET    C10  202   3.049   3.054   1.640
    7PET     H8  203   3.136   3.089   1.697
    7PET     H9  204   3.084   3.066   1.536
    7PET    C11  205   3.030   2.900   1.662
    7PET    H10  206   3.111   2.844   1.614
    7PET    H11  207   2.939   2.874   1.608
    7PET    C12  208   3.032   2.867   1.810
    7PET    H13  209   2.966   2.924   1.876
    7PET    H14  210   3.135   2.877   1.846
    8PET     C9  211   2.986   2.727   1.830
    8PET     H6  212   3.009   2.703   1.935
    8PET     H7  213   3.038   2.647   1.776
    8PET     O2  214   2.851   2.720   1.814
    8PET     C8  215   2.784   2.599   1.818
    8PET     O1  216   2.830   2.493   1.863
    8PET     C4  217   2.638   2.607   1.785
    8PET     C5  218   2.559   2.487   1.787
    8PET     C6  219   2.417   2.492   1.765
    8PET     H4  220   2.352   2.408   1.742
    8PET     H3  221   2.599   2.386   1.785
    8PET     C3  222   2.572   2.724   1.769
    8PET     H2  223   2.639   2.810   1.767
    8PET     C2  224   2.432   2.743   1.755
    8PET     H1  225   2.394   2.842   1.731
    8PET     C1  226   2.354   2.626   1.761
    8PET     C7  227   2.207   2.634   1.734
    8PET     O3  228   2.129   2.542   1.729
    8PET     O4  229   2.168   2.758   1.716
    8PET    C10  230   2.030   2.768   1.707
    8PET     H8  231   1.982   2.761   1.806
    8PET     H9  232   1.971   2.709   1.636
    8PET    C11  233   2.013   2.916   1.667
    8PET    H10  234   2.029   2.974   1.759
    8PET    H11  235   1.913   2.934   1.625
    8PET    C12  236   2.084   2.990   1.557
    8PET    H13  237   2.186   3.014   1.590
    8PET    H14  238   2.059   3.097   1.557
    9PET     C9  239   2.095   2.926   1.415
    9PET     H6  240   2.109   3.011   1.346
    9PET     H7  241   2.015   2.867   1.369
    9PET     O2  242   2.209   2.840   1.419
    9PET     C8  243   2.338   2.890   1.399
    9PET     O1  244   2.364   3.009   1.400
    9PET     C4  245   2.449   2.793   1.415
    9PET     C5  246   2.424   2.654   1.408
    9PET     C6  247   2.525   2.554   1.441
    9PET     H4  248   2.496   2.451   1.423
    9PET     H3  249   2.327   2.613   1.380
    9PET     C3  250   2.583   2.829   1.451
    9PET     H2  251   2.608   2.934   1.463
    9PET     C2  252   2.685   2.733   1.473
    9PET     H1  253   2.787   2.764   1.498
    9PET     C1  254   2.655   2.594   1.469
    9PET     C7  255   2.768   2.502   1.505
    9PET     O3  256   2.882   2.539   1.537
    9PET     O4  257   2.726   2.369   1.513
    9PET    C10  258   2.830   2.273   1.560
    9PET     H8  259   2.782   2.205   1.631
    9PET     H9  260   2.914   2.322   1.609
    9PET    C11  261   2.871   2.199   1.434
    9PET    H10  262   2.902   2.274   1.361
    9PET    H11  263   2.785   2.141   1.398
    9PET    C12  264   2.987   2.109   1.446
    9PET    H13  265   3.061   2.136   1.522
    9PET    H14  266   3.035   2.104   1.348
   10PET     C9  267   2.946   1.960   1.465
   10PET     H6  268   3.031   1.901   1.499
   10PET     H7  269   2.914   1.913   1.371
   10PET     O2  270   2.856   1.944   1.580
   10PET     C8  271   2.721   1.924   1.548
   10PET     O1  272   2.670   1.924   1.438
   10PET     C4  273   2.651   1.923   1.680
   10PET     C5  274   2.708   1.862   1.795
   10PET     C6  275   2.632   1.859   1.918
   10PET     H4  276   2.676   1.803   2.001
   10PET     H3  277   2.792   1.795   1.777
   10PET     C3  278   2.532   1.986   1.697
   10PET     H2  279   2.487   2.037   1.613
   10PET     C2  280   2.450   1.974   1.815
   10PET     H1  281   2.351   2.018   1.825
   10PET     C1  282   2.508   1.921   1.931
   10PET     C7  283   2.436   1.919   2.053
   10PET     O3  284   2.312   1.926   2.068
   10PET     O4  285   2.522   1.924   2.156
   10PET    C10  286   2.479   1.930   2.292
   10PET     H8  287   2.430   1.834   2.314
   10PET     H9  288   2.396   2.002   2.297
   10PET    C11  289   2.595   1.938   2.387
   10PET    H10  290   2.665   1.854   2.379
   10PET    H11  291   2.564   1.936   2.492
   10PET    C12  292   2.681   2.057   2.356
   10PET    H13  293   2.620   2.147   2.370
   10PET    H14  294   2.713   2.067   2.251
   11PET     C9  295   2.799   2.059   2.454
   11PET     H6  296   2.854   1.965   2.466
   11PET     H7  297   2.762   2.109   2.544
   11PET     O2  298   2.906   2.139   2.390
   11PET     C8  299   2.959   2.084   2.275
   11PET     O1  300   2.949   1.963   2.256
   11PET     C4  301   3.022   2.190   2.185
   11PET     C5  302   3.105   2.297   2.235
   11PET     C6  303   3.159   2.390   2.141
   11PET     H4  304   3.191   2.485   2.184
   11PET     H3  305   3.118   2.308   2.342
   11PET     C3  306   2.998   2.189   2.046
   11PET     H2  307   2.923   2.119   2.010
   11PET     C2  308   3.045   2.282   1.956
   11PET     H1  309   3.010   2.284   1.853
   11PET     C1  310   3.137   2.374   2.001
   11PET     C7  311   3.209   2.465   1.908
   11PET     O3  312   3.280   2.554   1.946
   11PET     O4  313   3.209   2.427   1.781
   11PET    C10  314   3.296   2.481   1.680
   11PET     H8  315   3.281   2.590   1.671
   11PET     H9  316   3.280   2.438   1.580
   11PET    C11  317   3.444   2.473   1.713
   11PET    H10  318   3.479   2.378   1.671
   11PET    H11  319   3.464   2.457   1.820
   11PET    C12  320   3.532   2.575   1.648
   11PET    H13  321   3.529   2.542   1.543
   11PET    H14  322   3.638   2.561   1.674
   12PET     C9  323   3.498   2.726   1.645
   12PET     H6  324   3.403   2.753   1.597
   12PET     H7  325   3.574   2.792   1.604
   12PET     O2  326   3.482   2.768   1.782
   12PET     C8  327   3.449   2.897   1.807
   12PET     O1  328   3.433   2.977   1.719
   12PET     C4  329   3.433   2.934   1.950
   12PET     C5  330   3.422   2.835   2.046
   12PET     C6  331   3.401   2.873   2.187
   12PET     H4  332   3.373   2.800   2.262
   12PET     H3  333   3.417   2.727   2.033
   12PET     C3  334   3.406   3.070   1.993
   12PET     H2  335   3.412   3.147   1.917
   12PET     C2  336   3.390   3.104   2.127
   12PET     H1  337   3.389   3.210   2.150
   12PET     C1  338   3.393   3.008   2.227
   12PET     C7  339   3.382   3.039   2.375
   12PET     O3  340   3.310   3.135   2.409
   12PET     O4  341   3.418   2.945   2.455
   12PET    C10  342   3.374   2.946   2.594
   12PET     H8  343   3.380   2.843   2.629
   12PET     H9  344   3.269   2.972   2.611
   12PET    C11  345   3.477   3.029   2.679
   12PET    H10  346   3.448   3.018   2.784
   12PET    H11  347   3.467   3.136   2.660
   12PET    C12  348   3.629   2.984   2.683
   12PET    H13  349   3.616   2.878   2.708
   12PET    H14  350   3.676   3.034   2.769
   13PET     C9  351   3.725   3.018   2.568
   13PET     H6  352   3.701   2.971   2.472
   13PET     H7  353   3.827   2.996   2.600
   13PET     O2  354   3.710   3.165   2.547
   13PET     C8  355   3.797   3.250   2.611
   13PET     O1  356   3.897   3.215   2.675
   13PET     C4  357   3.777   3.386   2.558
   13PET     C5  358   3.826   3.496   2.628
   13PET     C6  359   3.798   3.628   2.594
   13PET     H4  360   3.840   3.709   2.652
   13PET     H3  361   3.871   3.463   2.721
   13PET     C3  362   3.703   3.414   2.432
   13PET     H2  363   3.651   3.331   2.386
   13PET     C2  364   3.694   3.547   2.394
   13PET     H1  365   3.650   3.576   2.299
   13PET     C1  366   3.739   3.659   2.470
   13PET     C7  367   3.712   3.802   2.423
   13PET     O3  368   3.719   3.896   2.502
   13PET     O4  369   3.686   3.815   2.287
   13PET    C10  370   3.694   3.941   2.222
   13PET     H8  371   3.797   3.977   2.206
   13PET     H9  372   3.645   4.023   2.275
   13PET    C11  373   3.634   3.933   2.076
   13PET    H10  374   3.597   3.833   2.055
   13PET    H11  375   3.726   3.935   2.016
   13PET    C12  376   3.532   4.042   2.038
   13PET    H13  377   3.469   4.001   1.959
   13PET    H14  378   3.581   4.133   2.002
   14PET     C9  379   3.420   4.088   2.131
   14PET     H6  380   3.337   4.092   2.059
   14PET     H7  381   3.429   4.192   2.164
   14PET     O2  382   3.394   4.006   2.241
   14PET     C8  383   3.373   3.867   2.226
   14PET     O1  384   3.347   3.804   2.127
   14PET     C4  385   3.378   3.787   2.360
   14PET     C5  386   3.423   3.845   2.479
   14PET     C6  387   3.452   3.767   2.586
   14PET     H4  388   3.485   3.823   2.672
   14PET     H3  389   3.423   3.954   2.474
   14PET     C3  390   3.352   3.646   2.361
   14PET     H2  391   3.315   3.595   2.272
   14PET     C2  392   3.383   3.562   2.469
   14PET     H1  393   3.376   3.456   2.450
   14PET     C1  394   3.439   3.624   2.582
   14PET     C7  395   3.473   3.549   2.715
   14PET     O3  396   3.477   3.426   2.713
   14PET     O4  397   3.524   3.636   2.817
   14PET    C10  398   3.579   3.566   2.930
   14PET     H8  399   3.652   3.494   2.891
   14PET     H9  400   3.500   3.506   2.976
   14PET    C11  401   3.642   3.668   3.033
   14PET    H10  402   3.560   3.721   3.084
   14PET    H11  403   3.715   3.730   2.980
   14PET    C12  404   3.721   3.596   3.150
   14PET    H13  405   3.639   3.533   3.188
   14PET    H14  406   3.749   3.674   3.222
   15PET     C9  407   3.845   3.513   3.113
   15PET     H6  408   3.917   3.526   3.195
   15PET     H7  409   3.903   3.546   3.027
   15PET     O2  410   3.796   3.374   3.105
   15PET     C8  411   3.887   3.266   3.126
   15PET     O1  412   4.004   3.289   3.158
   15PET     C4  413   3.841   3.125   3.092
   15PET     C5  414   3.703   3.094   3.095
   15PET     C6  415   3.658   2.961   3.060
   15PET     H4  416   3.553   2.932   3.064
   15PET     H3  417   3.628   3.172   3.107
   15PET     C3  418   3.932   3.028   3.076
   15PET     H2  419   4.036   3.051   3.092
   15PET     C2  420   3.889   2.892   3.051
   15PET     H1  421   3.973   2.827   3.030
   15PET     C1  422   3.751   2.858   3.036
   15PET     C7  423   3.708   2.719   2.995
   15PET     O3  424   3.598   2.670   3.020
   15PET     O4  425   3.794   2.660   2.911
   15PET    C10  426   3.761   2.523   2.869
   15PET     H8  427   3.725   2.446   2.938
   15PET     H9  428   3.857   2.482   2.836
   15PET    C11  429   3.666   2.531   2.744
   15PET    H10  430   3.666   2.634   2.707
   15PET    H11  431   3.564   2.512   2.779
   15PET    C12  432   3.712   2.440   2.635
   15PET    H13  433   3.730   2.341   2.678
   15PET    H14  434   3.809   2.472   2.595
   16PET     C9  435   3.615   2.448   2.514
   16PET     H6  436   3.654   2.387   2.432
   16PET     H7  437   3.620   2.551   2.476
   16PET     O2  438   3.479   2.424   2.559
   16PET     C8  439   3.383   2.494   2.492
   16PET     O1  440   3.401   2.573   2.398
   16PET     C4  441   3.240   2.464   2.547
   16PET     C5  442   3.135   2.549   2.512
   16PET     C6  443   3.004   2.521   2.553
   16PET     H4  444   2.927   2.598   2.553
   16PET     H3  445   3.151   2.653   2.484
   16PET     C3  446   3.221   2.336   2.608
   16PET     H2  447   3.298   2.265   2.639
   16PET     C2  448   3.086   2.301   2.633
   16PET     H1  449   3.080   2.209   2.690
   16PET     C1  450   2.975   2.392   2.619
   16PET     C7  451   2.844   2.363   2.675
   16PET     O3  452   2.816   2.263   2.742
   16PET     O4  453   2.747   2.441   2.627
   16PET    C10  454   2.609   2.420   2.652
   16PET     H8  455   2.594   2.427   2.760
   16PET     H9  456   2.582   2.324   2.604
   16PET    C11  457   2.530   2.525   2.563
   16PET    H10  458   2.577   2.534   2.465
   16PET    H11  459   2.535   2.620   2.619
   16PET    C12  460   2.379   2.503   2.546
   16PET    H13  461   2.374   2.419   2.476
   16PET    H14  462   2.334   2.583   2.487
   17PET     C9  463   2.304   2.475   2.678
   17PET     H6  464   2.197   2.487   2.662
   17PET     H7  465   2.322   2.550   2.756
   17PET     O2  466   2.329   2.331   2.701
   17PET     C8  467   2.245   2.265   2.793
   17PET     O1  468   2.166   2.323   2.860
   17PET     C4  469   2.276   2.116   2.820
   17PET     C5  470   2.375   2.047   2.750
   17PET     C6  471   2.395   1.912   2.775
   17PET     H4  472   2.465   1.854   2.717
   17PET     H3  473   2.429   2.089   2.666
   17PET     C3  474   2.196   2.047   2.917
   17PET     H2  475   2.104   2.096   2.947
   17PET     C2  476   2.213   1.905   2.932
   17PET     H1  477   2.147   1.846   2.995
   17PET     C1  478   2.314   1.839   2.867
   17PET     C7  479   2.328   1.689   2.888
   17PET     O3  480   2.238   1.619   2.934
   17PET     O4  481   2.448   1.632   2.836
   17PET    C10  482   2.474   1.493   2.841
   17PET     H8  483   2.562   1.470   2.779
   17PET     H9  484   2.378   1.442   2.828
   17PET    C11  485   2.516   1.461   2.978
   17PET    H10  486   2.443   1.495   3.052
   17PET    H11  487   2.612   1.506   3.006
   17PET    C12  488   2.535   1.306   3.010
   17PET    H13  489   2.542   1.288   3.118
   17PET    H14  490   2.623   1.266   2.959
   18PET     C9  491   2.429   1.212   2.960
   18PET     H6  492   2.448   1.108   2.988
   18PET     H7  493   2.422   1.222   2.851
   18PET     O2  494   2.313   1.269   3.014
   18PET     C8  495   2.187   1.207   2.994
   18PET     O1  496   2.175   1.100   2.940
   18PET     C4  497   2.078   1.284   3.055
   18PET     C5  498   2.093   1.394   3.141
   18PET     C6  499   1.980   1.474   3.176
   18PET     H4  500   1.995   1.564   3.235
   18PET     H3  501   2.192   1.422   3.177
   18PET     C3  502   1.945   1.259   3.007
   18PET     H2  503   1.940   1.186   2.927
   18PET     C2  504   1.834   1.338   3.043
   18PET     H1  505   1.740   1.322   2.991
   18PET     C1  506   1.847   1.448   3.127
   18PET     C7  507   1.720   1.532   3.160
   18PET     O3  508   1.612   1.524   3.109
   18PET     O4  509   1.755   1.632   3.246
   18PET    C10  510   1.654   1.718   3.284
   18PET     H8  511   1.561   1.661   3.299
   18PET     H9  512   1.633   1.795   3.209
   18PET    C11  513   1.705   1.805   3.413
   18PET    H10  514   1.622   1.867   3.448
   18PET    H11  515   1.778   1.859   3.351
   18PET    C12  516   1.769   1.722   3.527
   18PET    H13  517   1.859   1.666   3.499
   18PET    H14  518   1.689   1.659   3.569
   19PET     C9  519   1.802   1.822   3.637
   19PET     H6  520   1.775   1.780   3.735
   19PET     H7  521   1.734   1.908   3.626
   19PET     O2  522   1.934   1.853   3.630
   19PET     C8  523   1.979   1.983   3.648
   19PET     O1  524   1.904   2.075   3.681
   19PET     C4  525   2.122   1.996   3.612
   19PET     C5  526   2.188   1.906   3.521
   19PET     C6  527   2.317   1.941   3.476
   19PET     H4  528   2.370   1.887   3.398
   19PET     H3  529   2.132   1.832   3.465
   19PET     C3  530   2.193   2.099   3.667
   19PET     H2  531   2.153   2.162   3.745
   19PET     C2  532   2.336   2.110   3.636
   19PET     H1  533   2.390   2.195   3.676
   19PET     C1  534   2.394   2.026   3.545
   19PET     C7  535   2.544   2.058   3.509
   19PET     O3  536   2.625   2.113   3.590
   19PET     O4  537   2.577   2.042   3.376
   19PET    C10  538   2.711   2.051   3.325
   19PET     H8  539   2.774   1.970   3.363
   19PET     H9  540   2.754   2.145   3.361
   19PET    C11  541   2.708   2.047   3.164
   19PET    H10  542   2.806   2.024   3.122
   19PET    H11  543   2.678   2.152   3.148
   19PET    C12  544   2.603   1.963   3.095
   19PET    H13  545   2.573   2.011   3.001
   19PET    H14  546   2.512   1.967   3.156
   20PET     C9  547   2.643   1.808   3.076
   20PET     H6  548   2.570   1.742   3.027
   20PET     H7  549   2.633   1.762   3.175
   20PET     O2  550   2.782   1.808   3.027
   20PET     C8  551   2.802   1.801   2.891
   20PET     O1  552   2.713   1.773   2.809
   20PET     C4  553   2.941   1.822   2.849
   20PET     C5  554   3.038   1.857   2.947
   20PET     C6  555   3.173   1.863   2.913
   20PET     H4  556   3.255   1.862   2.983
   20PET     H3  557   3.027   1.852   3.055
   20PET     C3  558   2.976   1.828   2.715
   20PET     H2  559   2.905   1.801   2.638
   20PET     C2  560   3.113   1.855   2.677
   20PET     H1  561   3.127   1.851   2.569
   20PET     C1  562   3.210   1.869   2.778
   20PET     C7  563   3.356   1.881   2.730
   20PET     O3  564   3.385   1.895   2.615
   20PET     O4  565   3.449   1.865   2.829
   20PET    C10  566   3.582   1.891   2.784
   20PET     H8  567   3.594   1.849   2.684
   20PET     H9  568   3.662   1.849   2.847
   20PET    C11  569   3.596   2.044   2.798
   20PET    H10  570   3.512   2.084   2.739
   20PET    H11  571   3.684   2.086   2.748
   20PET    C12  572   3.604   2.102   2.934
   20PET    H13  573   3.677   2.183   2.935
   20PET    H14  574   3.655   2.029   2.999
   21PET     C9  575   3.475   2.128   3.007
   21PET     H6  576   3.500   2.136   3.114
   21PET     H7  577   3.403   2.046   2.998
   21PET     O2  578   3.411   2.255   2.961
   21PET     C8  579   3.276   2.257   2.971
   21PET     O1  580   3.208   2.157   2.985
   21PET     C4  581   3.219   2.398   2.950
   21PET     C5  582   3.081   2.425   2.956
   21PET     C6  583   3.033   2.547   2.941
   21PET     H4  584   2.926   2.568   2.944
   21PET     H3  585   3.015   2.342   2.978
   21PET     C3  586   3.309   2.505   2.935
   21PET     H2  587   3.416   2.492   2.948
   21PET     C2  588   3.263   2.631   2.915
   21PET     H1  589   3.333   2.713   2.903
   21PET     C1  590   3.123   2.651   2.915
   21PET     C7  591   3.075   2.792   2.887
   21PET     O3  592   3.153   2.892   2.900
   21PET     O4  593   2.958   2.794   2.813
   21PET    C10  594   2.903   2.920   2.781
   21PET     H8  595   2.972   2.988   2.729
   21PET     H9  596   2.881   2.974   2.874
   21PET    C11  597   2.772   2.906   2.701
   21PET    H10  598   2.798   2.884   2.597
   21PET    H11  599   2.724   3.005   2.698
   21PET    C12  600   2.676   2.811   2.762
   21PET    H13  601   2.726   2.713   2.751
   21PET    H14  602   2.589   2.800   2.696
   22PET     C9  603   2.645   2.849   2.913
   22PET     H6  604   2.609   2.953   2.922
   22PET     H7  605   2.741   2.840   2.964
   22PET     O2  606   2.548   2.763   2.975
   22PET     C8  607   2.594   2.632   2.993
   22PET     O1  608   2.711   2.605   2.984
   22PET     C4  609   2.490   2.531   3.044
   22PET     C5  610   2.360   2.566   3.061
   22PET     C6  611   2.256   2.482   3.106
   22PET     H4  612   2.151   2.508   3.119
   22PET     H3  613   2.327   2.669   3.050
   22PET     C3  614   2.523   2.397   3.069
   22PET     H2  615   2.626   2.361   3.062
   22PET     C2  616   2.428   2.309   3.114
   22PET     H1  617   2.462   2.207   3.127
   22PET     C1  618   2.292   2.347   3.136
   22PET     C7  619   2.203   2.249   3.197
   22PET     O3  620   2.240   2.139   3.228
   22PET     O4  621   2.080   2.295   3.236
   22PET    C10  622   1.993   2.207   3.316
   22PET     H8  623   2.030   2.178   3.415
   22PET     H9  624   1.967   2.118   3.258
   22PET    C11  625   1.867   2.298   3.331
   22PET    H10  626   1.791   2.232   3.374
   22PET    H11  627   1.828   2.334   3.235
   22PET    C12  628   1.883   2.424   3.415
   22PET    H13  629   1.790   2.482   3.420
   22PET    H14  630   1.952   2.488   3.359
   23PET     C9  631   1.935   2.414   3.557
   23PET     H6  632   1.880   2.336   3.611
   23PET     H7  633   1.900   2.509   3.597
   23PET     O2  634   2.082   2.407   3.543
   23PET     C8  635   2.150   2.521   3.519
   23PET     O1  636   2.097   2.627   3.529
   23PET     C4  637   2.291   2.513   3.479
   23PET     C5  638   2.387   2.619   3.493
   23PET     C6  639   2.517   2.613   3.451
   23PET     H4  640   2.575   2.703   3.435
   23PET     H3  641   2.358   2.719   3.525
   23PET     C3  642   2.348   2.393   3.439
   23PET     H2  643   2.281   2.308   3.432
   23PET     C2  644   2.480   2.381   3.405
   23PET     H1  645   2.523   2.287   3.373
   23PET     C1  646   2.574   2.489   3.415
   23PET     C7  647   2.713   2.468   3.363
   23PET     O3  648   2.734   2.372   3.281
   23PET     O4  649   2.808   2.557   3.412
   23PET    C10  650   2.948   2.548   3.382
   23PET     H8  651   2.982   2.445   3.363
   23PET     H9  652   3.019   2.585   3.458
   23PET    C11  653   2.955   2.611   3.242
   23PET    H10  654   2.880   2.570   3.173
   23PET    H11  655   3.058   2.587   3.214
   23PET    C12  656   2.933   2.761   3.227
   23PET    H13  657   2.946   2.777   3.119
   23PET    H14  658   3.015   2.824   3.264
   24PET     C9  659   2.802   2.817   3.281
   24PET     H6  660   2.812   2.818   3.390
   24PET     H7  661   2.716   2.755   3.254
   24PET     O2  662   2.795   2.950   3.233
   24PET     C8  663   2.675   3.012   3.245
   24PET     O1  664   2.581   2.949   3.287
   24PET     C4  665   2.666   3.147   3.199
   24PET     C5  666   2.780   3.203   3.126
   24PET     C6  667   2.778   3.333   3.077
   24PET     H4  668   2.870   3.376   3.038
   24PET     H3  669   2.870   3.144   3.110
   24PET     C3  670   2.566   3.235   3.243
   24PET     H2  671   2.492   3.199   3.313
   24PET     C2  672   2.558   3.365   3.184
   24PET     H1  673   2.467   3.419   3.212
   24PET     C1  674   2.667   3.415   3.108
   24PET     C7  675   2.658   3.557   3.065
   24PET     O3  676   2.579   3.634   3.120
   24PET     O4  677   2.772   3.606   3.006
   24PET    C10  678   2.774   3.731   2.937
   24PET     H8  679   2.874   3.745   2.894
   24PET     H9  680   2.738   3.810   3.004
   24PET    C11  681   2.672   3.728   2.816
   24PET    H10  682   2.652   3.830   2.781
   24PET    H11  683   2.572   3.694   2.844
   24PET    C12  684   2.719   3.654   2.682
   24PET    H13  685   2.814   3.700   2.655
   24PET    H14  686   2.638   3.672   2.611
   25PEO     C1  687   2.736   3.497   2.685
   25PEO     H3  688   2.831   3.460   2.727
   25PEO     H4  689   2.742   3.459   2.583
   25PEO      O  690   2.621   3.427   2.749
   25PEO     C2  691   2.615   3.286   2.717
   25PEO     H5  692   2.699   3.239   2.769
   25PEO     H6  693   2.628   3.263   2.611
   25PEO     C3  694   2.477   3.235   2.779
   25PEO     H7  695   2.453   3.264   2.882
   25PEO     H8  696   2.482   3.126   2.776
   25PEO     O1  697   2.372   3.273   2.686
   25PEO     C4  698   2.337   3.410   2.694
   25PEO     H9  699   2.419   3.477   2.667
   25PEO    H10  700   2.300   3.421   2.797
   25PEO     C5  701   2.224   3.437   2.601
   25PEO    H11  702   2.132   3.486   2.635
   25PEO    H12  703   2.190   3.339   2.565
   25PEO     O2  704   2.284   3.512   2.488
   25PEO     C6  705   2.295   3.652   2.522
   25PEO    H13  706   2.357   3.660   2.612
   25PEO    H14  707   2.195   3.681   2.559
   25PEO     C7  708   2.344   3.743   2.405
   25PEO    H15  709   2.286   3.835   2.419
   25PEO    H16  710   2.322   3.705   2.304
   25PEO     O3  711   2.489   3.776   2.416
   25PEO     C8  712   2.549   3.865   2.316
   25PEO    H17  713   2.511   3.968   2.323
   25PEO    H18  714   2.532   3.846   2.209
   25PEO     C9  715   2.699   3.888   2.343
   25PEO    H19  716   2.753   3.802   2.302
   25PEO    H20  717   2.705   3.911   2.450
   25PEO     O4  718   2.735   3.999   2.272
   25PEO    C10  719   2.863   4.058   2.301
   25PEO    H21  720   2.860   4.057   2.411
   25PEO    H22  721   2.868   4.160   2.262
   26PET     C9  722   2.974   3.982   2.230
   26PET     H6  723   3.068   4.037   2.213
   26PET     H7  724   2.940   3.951   2.131
   26PET     O2  725   3.000   3.866   2.307
   26PET     C8  726   3.063   3.876   2.424
   26PET     O1  727   3.118   3.979   2.468
   26PET     C4  728   3.052   3.738   2.493
   26PET     C5  729   3.013   3.616   2.425
   26PET     C6  730   3.018   3.487   2.479
   26PET     H4  731   2.985   3.395   2.432
   26PET     H3  732   2.968   3.623   2.326
   26PET     C3  733   3.098   3.723   2.628
   26PET     H2  734   3.123   3.811   2.687
   26PET     C2  735   3.110   3.593   2.684
   26PET     H1  736   3.153   3.592   2.783
   26PET     C1  737   3.066   3.478   2.609
   26PET     C7  738   3.046   3.351   2.685
   26PET     O3  739   2.995   3.249   2.640
   26PET     O4  740   3.114   3.344   2.797
   26PET    C10  741   3.134   3.216   2.866
   26PET     H8  742   3.205   3.157   2.806
   26PET     H9  743   3.045   3.155   2.888
   26PET    C11  744   3.190   3.242   3.007
   26PET    H10  745   3.216   3.148   3.058
   26PET    H11  746   3.104   3.266   3.070
   26PET    C12  747   3.296   3.352   3.021
   26PET    H13  748   3.256   3.445   2.981
   26PET    H14  749   3.376   3.330   2.950
   27PET     C9  750   3.335   3.392   3.168
   27PET     H6  751   3.344   3.501   3.179
   27PET     H7  752   3.433   3.350   3.192
   27PET     O2  753   3.247   3.330   3.264
   27PET     C8  754   3.122   3.400   3.277
   27PET     O1  755   3.109   3.512   3.230
   27PET     C4  756   3.015   3.331   3.361
   27PET     C5  757   3.037   3.205   3.408
   27PET     C6  758   2.941   3.140   3.485
   27PET     H4  759   2.977   3.041   3.513
   27PET     H3  760   3.130   3.154   3.387
   27PET     C3  761   2.894   3.390   3.381
   27PET     H2  762   2.869   3.489   3.344
   27PET     C2  763   2.801   3.330   3.465
   27PET     H1  764   2.705   3.380   3.480
   27PET     C1  765   2.820   3.194   3.513
   27PET     C7  766   2.712   3.120   3.581
   27PET     O3  767   2.603   3.167   3.615
   27PET     O4  768   2.752   2.998   3.623
   27PET    C10  769   2.658   2.915   3.697
   27PET     H8  770   2.584   2.877   3.625
   27PET     H9  771   2.605   2.965   3.779
   27PET    C11  772   2.734   2.784   3.733
   27PET    H10  773   2.826   2.803   3.790
   27PET    H11  774   2.769   2.746   3.637
   27PET    C12  775   2.657   2.672   3.801
   27PET    H13  776   2.574   2.638   3.739
   27PET    H14  777   2.599   2.716   3.883
   28PEO     C1  778   2.762   2.554   3.845
   28PEO     H3  779   2.845   2.546   3.774
   28PEO     H4  780   2.715   2.456   3.856
   28PEO      O  781   2.828   2.596   3.960
   28PEO     C2  782   2.929   2.499   4.005
   28PEO     H5  783   2.913   2.394   3.979
   28PEO     H6  784   2.935   2.502   4.115
   28PEO     C3  785   3.056   2.534   3.937
   28PEO     H7  786   3.130   2.573   4.008
   28PEO     H8  787   3.039   2.616   3.866
   28PEO     O1  788   3.117   2.426   3.871
   28PEO     C4  789   3.060   2.394   3.740
   28PEO     H9  790   3.087   2.479   3.676
   28PEO    H10  791   2.951   2.379   3.742
   28PEO     C5  792   3.128   2.254   3.689
   28PEO    H11  793   3.072   2.173   3.738
   28PEO    H12  794   3.233   2.252   3.719
   28PEO     O2  795   3.112   2.241   3.547
   28PEO     C6  796   3.164   2.116   3.484
   28PEO    H13  797   3.105   2.030   3.517
   28PEO    H14  798   3.266   2.098   3.520
   28PEO     C7  799   3.167   2.132   3.328
   28PEO    H15  800   3.083   2.194   3.294
   28PEO    H16  801   3.172   2.038   3.273
   28PEO     O3  802   3.279   2.204   3.287
   28PEO     C8  803   3.266   2.343   3.286
   28PEO    H17  804   3.223   2.377   3.381
   28PEO    H18  805   3.195   2.374   3.208
   28PEO     C9  806   3.416   2.388   3.268
   28PEO    H19  807   3.433   2.496   3.257
   28PEO    H20  808   3.455   2.333   3.182
   28PEO     O4  809   3.495   2.344   3.390
   28PEO    C10  810   3.638   2.374   3.374
   28PEO    H21  811   3.666   2.344   3.272
   28PEO    H22  812   3.692   2.304   3.439
   29PEO     C1  813   3.664   2.529   3.384
   29PEO     H3  814   3.623   2.597   3.309
   29PEO     H4  815   3.772   2.538   3.365
   29PEO      O  816   3.635   2.565   3.518
   29PEO     C2  817   3.505   2.593   3.560
   29PEO     H5  818   3.447   2.500   3.567
   29PEO     H6  819   3.461   2.648   3.477
   29PEO     C3  820   3.505   2.679   3.694
   29PEO     H7  821   3.553   2.774   3.669
   29PEO     H8  822   3.568   2.626   3.766
   29PEO     O1  823   3.373   2.683   3.749
   29PEO     C4  824   3.271   2.741   3.672
   29PEO     H9  825   3.183   2.708   3.728
   29PEO    H10  826   3.258   2.693   3.574
   29PEO     C5  827   3.292   2.899   3.663
   29PEO    H11  828   3.368   2.917   3.740
   29PEO    H12  829   3.198   2.954   3.674
   29PEO     O2  830   3.341   2.932   3.534
   29PEO     C6  831   3.394   3.069   3.529
   29PEO    H13  832   3.468   3.080   3.610
   29PEO    H14  833   3.317   3.146   3.544
   29PEO     C7  834   3.457   3.080   3.389
   29PEO    H15  835   3.477   3.186   3.370
   29PEO    H16  836   3.378   3.053   3.318
   29PEO     O3  837   3.570   2.991   3.374
   29PEO     C8  838   3.684   3.022   3.458
   29PEO    H17  839   3.760   2.952   3.422
   29PEO    H18  840   3.668   2.994   3.563
   29PEO     C9  841   3.745   3.156   3.441
   29PEO    H19  842   3.747   3.191   3.337
   29PEO    H20  843   3.853   3.158   3.461
   29PEO     O4  844   3.670   3.258   3.519
   29PEO    C10  845   3.713   3.391   3.499
   29PEO    H21  846   3.760   3.409   3.402
   29PEO    H22  847   3.779   3.416   3.583
   30PET     C9  848   3.593   3.485   3.498
   30PET     H6  849   3.527   3.473   3.411
   30PET     H7  850   3.623   3.589   3.509
   30PET     O2  851   3.517   3.451   3.613
   30PET     C8  852   3.388   3.494   3.612
   30PET     O1  853   3.347   3.589   3.546
   30PET     C4  854   3.306   3.417   3.702
   30PET     C5  855   3.359   3.319   3.789
   30PET     C6  856   3.275   3.259   3.879
   30PET     H4  857   3.327   3.190   3.944
   30PET     H3  858   3.468   3.310   3.793
   30PET     C3  859   3.163   3.445   3.715
   30PET     H2  860   3.117   3.515   3.646
   30PET     C2  861   3.084   3.370   3.803
   30PET     H1  862   2.978   3.391   3.814
   30PET     C1  863   3.141   3.284   3.896
   30PET     C7  864   3.060   3.220   4.009
   30PET     O3  865   2.932   3.227   4.010
   30PET     O4  866   3.132   3.156   4.097
   30PET    C10  867   3.061   3.083   4.207
   30PET     H8  868   2.997   3.004   4.164
   30PET     H9  869   2.993   3.155   4.255
   30PET    C11  870   3.158   3.030   4.312
   30PET    H10  871   3.104   2.977   4.391
   30PET    H11  872   3.211   3.111   4.363
   30PET    C12  873   3.268   2.927   4.254
   30PET    H13  874   3.298   2.870   4.343
   30PET    H14  875   3.244   2.852   4.179
   31SOL     OW  876   0.225   0.275   0.996
   31SOL    HW1  877   0.260   0.258   1.088
   31SOL    HW2  878   0.137   0.230   0.984
   32SOL     OW  879   0.019   0.368   0.647
   32SOL    HW1  880  -0.063   0.411   0.686
   32SOL    HW2  881  -0.009   0.295   0.584
   33SOL     OW  882   1.555   1.511   0.703
   33SOL    HW1  883   1.498   1.495   0.784
   33SOL    HW2  884   1.496   1.521   0.623
   34SOL     OW  885   1.755   0.607   0.231
   34SOL    HW1  886   1.743   0.594   0.132
   34SOL    HW2  887   1.725   0.526   0.280
   35SOL     OW  888   0.768   1.144   1.023
   35SOL    HW1  889   0.690   1.161   1.083
   35SOL    HW2  890   0.802   1.231   0.987
   36SOL     OW  891   0.231   1.713   0.483
   36SOL    HW1  892   0.265   1.790   0.537
   36SOL    HW2  893   0.275   1.713   0.393
   37SOL     OW  894   1.594   0.114   1.480
   37SOL    HW1  895   1.576   0.181   1.408
   37SOL    HW2  896   1.591   0.160   1.569
   38SOL     OW  897   1.293   1.228   1.423
   38SOL    HW1  898   1.330   1.155   1.365
   38SOL    HW2  899   1.345   1.233   1.508
   39SOL     OW  900   1.525   0.999   0.190
   39SOL    HW1  901   1.462   0.923   0.203
   39SOL    HW2  902   1.573   1.017   0.276
   40SOL     OW  903   1.187   1.792   1.616
   40SOL    HW1  904   1.211   1.852   1.540
   40SOL    HW2  905   1.194   1.697   1.586
   41SOL     OW  906   0.598   0.729   0.270
   41SOL    HW1  907   0.622   0.798   0.202
   41SOL    HW2  908   0.520   0.762   0.324
   42SOL     OW  909   1.281   0.345   0.944
   42SOL    HW1  910   1.195   0.295   0.931
   42SOL    HW2  911   1.343   0.291   1.000
   43SOL     OW  912   1.394   0.469   1.674
   43SOL    HW1  913   1.374   0.512   1.762
   43SOL    HW2  914   1.472   0.407   1.683
   44SOL     OW  915   0.973   0.890   1.572
   44SOL    HW1  916   1.019   0.806   1.543
   44SOL    HW2  917   0.917   0.924   1.497
   45SOL     OW  918   1.795   1.066   0.873
   45SOL    HW1  919   1.733   1.051   0.797
   45SOL    HW2  920   1.743   1.077   0.958
   46SOL     OW  921   1.227   1.550   1.506
   46SOL    HW1  922   1.233   1.473   1.570
   46SOL    HW2  923   1.175   1.524   1.426
   47SOL     OW  924   1.632   1.377   0.081
   47SOL    HW1  925   1.600   1.471   0.071
   47SOL    HW2  926   1.556   1.314   0.069
   48SOL     OW  927   0.464   1.743   0.323
   48SOL    HW1  928   0.497   1.782   0.409
   48SOL    HW2  929   0.540   1.736   0.258
   49SOL     OW  930   0.935   0.236   0.480
   49SOL    HW1  931   0.887   0.277   0.402
   49SOL    HW2  932   1.034   0.234   0.461
   50SOL     OW  933   0.459   1.152   0.741
   50SOL    HW1  934   0.388   1.125   0.806
   50SOL    HW2  935   0.433   1.124   0.648
   51SOL     OW  936   1.390   0.575   0.078
   51SOL    HW1  937   1.336   0.554   0.159
   51SOL    HW2  938   1.481   0.534   0.087
   52SOL     OW  939   1.064   1.347   1.340
   52SOL    HW1  940   0.984   1.324   1.395
   52SOL    HW2  941   1.147   1.321   1.389
   53SOL     OW  942   1.638   1.099   1.079
   53SOL    HW1  943   1.643   1.180   1.138
   53SOL    HW2  944   1.552   1.101   1.028
   54SOL     OW  945   0.367   1.100   0.501
   54SOL    HW1  946   0.360   1.183   0.445
   54SOL    HW2  947   0.371   1.020   0.441
   55SOL     OW  948   0.354   1.510   1.329
   55SOL    HW1  949   0.333   1.466   1.242
   55SOL    HW2  950   0.451   1.536   1.332
   56SOL     OW  951   0.402   0.751   1.598
   56SOL    HW1  952   0.470   0.806   1.551
   56SOL    HW2  953   0.442   0.663   1.625
   57SOL     OW  954   1.013   0.105   1.770
   57SOL    HW1  955   1.019   0.190   1.718
   57SOL    HW2  956   1.045   0.029   1.713
   58SOL     OW  957   0.573   0.870   1.029
   58SOL    HW1  958   0.617   0.959   1.020
   58SOL    HW2  959   0.510   0.870   1.106
   59SOL     OW  960   1.360   0.862   1.045
   59SOL    HW1  961   1.285   0.862   0.979
   59SOL    HW2  962   1.397   0.770   1.054
   60SOL     OW  963   1.303   0.838   0.042
   60SOL    HW1  964   1.337   0.745   0.057
   60SOL    HW2  965   1.321   0.865  -0.053
   61SOL     OW  966   0.339   0.509   1.006
   61SOL    HW1  967   0.287   0.426   0.989
   61SOL    HW2  968   0.416   0.514   0.942
   62SOL     OW  969   1.759   1.747   1.154
   62SOL    HW1  970   1.820   1.777   1.081
   62SOL    HW2  971   1.721   1.658   1.132
   63SOL     OW  972   0.263   0.326   0.720
   63SOL    HW1  973   0.184   0.377   0.686
   63SOL    HW2  974   0.254   0.311   0.818
   64SOL     OW  975   0.822   1.002   1.372
   64SOL    HW1  976   0.862   1.001   1.280
   64SOL    HW2  977   0.832   1.094   1.412
   65SOL     OW  978   0.590   1.487   0.491
   65SOL    HW1  979   0.632   1.429   0.421
   65SOL    HW2  980   0.546   1.566   0.447
   66SOL     OW  981   0.672   0.203   1.489
   66SOL    HW1  982   0.762   0.187   1.449
   66SOL    HW2  983   0.680   0.208   1.588
   67SOL     OW  984   1.440   0.856   1.398
   67SOL    HW1  985   1.383   0.908   1.335
   67SOL    HW2  986   1.536   0.868   1.374
   68SOL     OW  987   0.613   0.842   1.431
   68SOL    HW1  988   0.669   0.923   1.414
   68SOL    HW2  989   0.672   0.762   1.434
   69SOL     OW  990   0.716   0.565   1.708
   69SOL    HW1  991   0.735   0.630   1.782
   69SOL    HW2  992   0.776   0.485   1.717
   70SOL     OW  993   0.661   1.790   0.953
   70SOL    HW1  994   0.615   1.878   0.940
   70SOL    HW2  995   0.760   1.802   0.946
   71SOL     OW  996   1.083   0.984   0.087
   71SOL    HW1  997   1.060   1.037   0.005
   71SOL    HW2  998   1.164   0.928   0.068
   72SOL     OW  999   0.672   1.391   1.624
   72SOL    HW1 1000   0.594   1.341   1.662
   72SOL    HW2 1001   0.669   1.486   1.655
   73SOL     OW 1002   1.705   1.487   1.104
   73SOL    HW1 1003   1.612   1.462   1.077
   73SOL    HW2 1004   1.731   1.437   1.186
   74SOL     OW 1005   0.317   0.547   1.280
   74SOL    HW1 1006   0.355   0.488   1.352
   74SOL    HW2 1007   0.357   0.521   1.192
   75SOL     OW 1008   0.039   1.077   0.300
   75SOL    HW1 1009   0.138   1.066   0.291
   75SOL    HW2 1010  -0.001   0.991   0.332
   76SOL     OW 1011   0.230   1.434   2.400
   76SOL    HW1 1012   0.204   1.530   2.400
   76SOL    HW2 1013   0.159   1.380   2.445
   77SOL     OW 1014   0.606   0.964   1.985
   77SOL    HW1 1015   0.613   1.048   1.931
   77SOL    HW2 1016   0.652   0.977   2.073
   78SOL     OW 1017   1.594   0.114   3.342
   78SOL    HW1 1018   1.576   0.181   3.270
   78SOL    HW2 1019   1.591   0.160   3.431
   79SOL     OW 1020   0.122   0.643   2.425
   79SOL    HW1 1021   0.077   0.555   2.442
   79SOL    HW2 1022   0.121   0.697   2.509
   80SOL     OW 1023   1.293   1.228   3.285
   80SOL    HW1 1024   1.330   1.155   3.227
   80SOL    HW2 1025   1.345   1.233   3.370
   81SOL     OW 1026   1.394   0.469   3.536
   81SOL    HW1 1027   1.374   0.512   3.624
   81SOL    HW2 1028   1.472   0.407   3.545
   82SOL     OW 1029   0.973   0.890   3.434
   82SOL    HW1 1030   1.019   0.806   3.405
   82SOL    HW2 1031   0.917   0.924   3.359
   83SOL     OW 1032   1.227   1.550   3.368
   83SOL    HW1 1033   1.233   1.473   3.432
   83SOL    HW2 1034   1.175   1.524   3.288
   84SOL     OW 1035   0.461   1.266   3.589
   84SOL    HW1 1036   0.411   1.267   3.503
   84SOL    HW2 1037   0.398   1.248   3.665
   85SOL     OW 1038   0.464   1.743   2.185
   85SOL    HW1 1039   0.497   1.782   2.271
   85SOL    HW2 1040   0.540   1.736   2.120
   86SOL     OW 1041   0.249   1.785   3.103
   86SOL    HW1 1042   0.306   1.720   3.153
   86SOL    HW2 1043   0.233   1.752   3.010
   87SOL     OW 1044   1.547   0.222   3.591
   87SOL    HW1 1045   1.542   0.259   3.683
   87SOL    HW2 1046   1.475   0.153   3.579
   88SOL     OW 1047   0.614   0.122   1.979
   88SOL    HW1 1048   0.712   0.100   1.986
   88SOL    HW2 1049   0.583   0.105   1.886
   89SOL     OW 1050   0.781   0.264   3.611
   89SOL    HW1 1051   0.848   0.203   3.654
   89SOL    HW2 1052   0.708   0.283   3.676
   90SOL     OW 1053   1.434   1.188   1.903
   90SOL    HW1 1054   1.466   1.112   1.960
   90SOL    HW2 1055   1.342   1.215   1.933
   91SOL     OW 1056   1.032   0.549   1.878
   91SOL    HW1 1057   0.991   0.631   1.839
   91SOL    HW2 1058   1.096   0.575   1.951
   92SOL     OW 1059   1.429   1.173   2.729
   92SOL    HW1 1060   1.374   1.089   2.722
   92SOL    HW2 1061   1.455   1.202   2.637
   93SOL     OW 1062   1.466   0.590   2.854
   93SOL    HW1 1063   1.436   0.495   2.861
   93SOL    HW2 1064   1.539   0.606   2.920
   94SOL     OW 1065   0.488   1.385   2.036
   94SOL    HW1 1066   0.401   1.370   2.083
   94SOL    HW2 1067   0.471   1.411   1.941
   95SOL     OW 1068   1.664   1.280   2.519
   95SOL    HW1 1069   1.763   1.288   2.533
   95SOL    HW2 1070   1.619   1.364   2.550
   96SOL     OW 1071   0.527   0.256   2.190
   96SOL    HW1 1072   0.554   0.197   2.115
   96SOL    HW2 1073   0.527   0.351   2.159
   97SOL     OW 1074   1.754   1.223   3.450
   97SOL    HW1 1075   1.845   1.184   3.437
   97SOL    HW2 1076   1.762   1.319   3.474
   98SOL     OW 1077   0.705   1.050   2.230
   98SOL    HW1 1078   0.691   1.057   2.329
   98SOL    HW2 1079   0.789   0.999   2.212
   99SOL     OW 1080   0.566   0.537   2.727
   99SOL    HW1 1081   0.578   0.603   2.653
   99SOL    HW2 1082   0.612   0.571   2.810
  100SOL     OW 1083   1.582   0.639   2.334
  100SOL    HW1 1084   1.551   0.700   2.407
  100SOL    HW2 1085   1.632   0.691   2.265
  101SOL     OW 1086   0.732   0.634   2.926
  101SOL    HW1 1087   0.791   0.608   2.850
  101SOL    HW2 1088   0.704   0.730   2.915
  102SOL     OW 1089   0.980   1.573   3.562
  102SOL    HW1 1090   0.960   1.617   3.474
  102SOL    HW2 1091   1.019   1.482   3.546
  103SOL     OW 1092   1.388   1.573   2.339
  103SOL    HW1 1093   1.455   1.585   2.265
  103SOL    HW2 1094   1.348   1.662   2.362
  104SOL     OW 1095   1.280   0.927   2.534
  104SOL    HW1 1096   1.340   0.846   2.536
  104SOL    HW2 1097   1.320   0.996   2.474
  105SOL     OW 1098   0.263   0.326   2.582
  105SOL    HW1 1099   0.184   0.377   2.548
  105SOL    HW2 1100   0.254   0.311   2.680
  106SOL     OW 1101   1.194   1.612   1.893
  106SOL    HW1 1102   1.200   1.519   1.930
  106SOL    HW2 1103   1.135   1.612   1.813
  107SOL     OW 1104   1.014   0.236   2.833
  107SOL    HW1 1105   1.006   0.200   2.740
  107SOL    HW2 1106   1.012   0.160   2.898
  108SOL     OW 1107   0.075   0.345   1.895
  108SOL    HW1 1108  -0.017   0.317   1.866
  108SOL    HW2 1109   0.106   0.422   1.839
  109SOL     OW 1110   1.493   1.767   2.821
  109SOL    HW1 1111   1.526   1.831   2.752
  109SOL    HW2 1112   1.559   1.761   2.896
  110SOL     OW 1113   0.716   0.565   3.570
  110SOL    HW1 1114   0.735   0.630   3.644
  110SOL    HW2 1115   0.776   0.485   3.579
  111SOL     OW 1116   0.594   0.745   2.514
  111SOL    HW1 1117   0.644   0.830   2.495
  111SOL    HW2 1118   0.506   0.747   2.466
  112SOL     OW 1119   1.777   0.342   3.504
  112SOL    HW1 1120   1.760   0.373   3.410
  112SOL    HW2 1121   1.693   0.305   3.542
  113SOL     OW 1122   0.859   1.374   1.878
  113SOL    HW1 1123   0.813   1.389   1.966
  113SOL    HW2 1124   0.903   1.459   1.848
  114SOL     OW 1125   0.221   1.314   3.706
  114SOL    HW1 1126   0.156   1.241   3.685
  114SOL    HW2 1127   0.225   1.328   3.804
  115SOL     OW 1128   0.428   0.424   2.382
  115SOL    HW1 1129   0.458   0.352   2.320
  115SOL    HW2 1130   0.389   0.384   2.465
  116SOL     OW 1131   1.460   1.505   5.063
  116SOL    HW1 1132   1.484   1.599   5.089
  116SOL    HW2 1133   1.444   1.451   5.145
  117SOL     OW 1134   0.438   0.392   5.223
  117SOL    HW1 1135   0.520   0.336   5.232
  117SOL    HW2 1136   0.357   0.334   5.227
  118SOL     OW 1137   1.689   0.922   4.336
  118SOL    HW1 1138   1.784   0.893   4.344
  118SOL    HW2 1139   1.681   0.987   4.261
  119SOL     OW 1140   0.613   1.365   4.450
  119SOL    HW1 1141   0.564   1.278   4.459
  119SOL    HW2 1142   0.590   1.408   4.363
  120SOL     OW 1143   1.293   1.228   5.147
  120SOL    HW1 1144   1.330   1.155   5.089
  120SOL    HW2 1145   1.345   1.233   5.232
  121SOL     OW 1146   0.807   0.605   5.189
  121SOL    HW1 1147   0.760   0.602   5.278
  121SOL    HW2 1148   0.756   0.550   5.123
  122SOL     OW 1149   1.041   0.701   4.153
  122SOL    HW1 1150   1.067   0.697   4.249
  122SOL    HW2 1151   0.956   0.650   4.139
  123SOL     OW 1152   0.076   0.811   4.513
  123SOL    HW1 1153   0.175   0.799   4.522
  123SOL    HW2 1154   0.052   0.906   4.534
  124SOL     OW 1155   0.351   1.801   4.577
  124SOL    HW1 1156   0.401   1.715   4.583
  124SOL    HW2 1157   0.416   1.878   4.574
  125SOL     OW 1158   0.464   1.743   4.047
  125SOL    HW1 1159   0.497   1.782   4.133
  125SOL    HW2 1160   0.540   1.736   3.982
  126SOL     OW 1161   1.400   0.107   4.150
  126SOL    HW1 1162   1.376   0.070   4.060
  126SOL    HW2 1163   1.499   0.123   4.154
  127SOL     OW 1164   0.614   0.122   3.841
  127SOL    HW1 1165   0.712   0.100   3.848
  127SOL    HW2 1166   0.583   0.105   3.748
  128SOL     OW 1167   0.781   0.264   5.473
  128SOL    HW1 1168   0.848   0.203   5.516
  128SOL    HW2 1169   0.708   0.283   5.538
  129SOL     OW 1170   0.297   0.035   3.895
  129SOL    HW1 1171   0.346   0.119   3.874
  129SOL    HW2 1172   0.359  -0.030   3.940
  130SOL     OW 1173   0.935   0.236   4.204
  130SOL    HW1 1174   0.887   0.277   4.126
  130SOL    HW2 1175   1.034   0.234   4.185
  131SOL     OW 1176   1.064   1.347   5.064
  131SOL    HW1 1177   0.984   1.324   5.119
  131SOL    HW2 1178   1.147   1.321   5.113
  132SOL     OW 1179   1.638   1.099   4.803
  132SOL    HW1 1180   1.643   1.180   4.862
  132SOL    HW2 1181   1.552   1.101   4.752
  133SOL     OW 1182   0.367   1.100   4.225
  133SOL    HW1 1183   0.360   1.183   4.169
  133SOL    HW2 1184   0.371   1.020   4.165
  134SOL     OW 1185   0.354   1.510   5.053
  134SOL    HW1 1186   0.333   1.466   4.966
  134SOL    HW2 1187   0.451   1.536   5.056
  135SOL     OW 1188   0.402   0.751   5.322
  135SOL    HW1 1189   0.470   0.806   5.275
  135SOL    HW2 1190   0.442   0.663   5.349
  136SOL     OW 1191   1.587   0.779   5.394
  136SOL    HW1 1192   1.495   0.817   5.389
  136SOL    HW2 1193   1.647   0.826   5.329
  137SOL     OW 1194   1.209   0.525   3.999
  137SOL    HW1 1195   1.222   0.441   4.053
  137SOL    HW2 1196   1.180   0.599   4.059
  138SOL     OW 1197   0.037   1.310   5.006
  138SOL    HW1 1198   0.090   1.261   5.074
  138SOL    HW2 1199   0.059   1.408   5.011
  139SOL     OW 1200   1.023   0.766   4.690
  139SOL    HW1 1201   1.038   0.787   4.786
  139SOL    HW2 1202   0.993   0.671   4.681
  140SOL     OW 1203   0.339   0.509   4.730
  140SOL    HW1 1204   0.287   0.426   4.713
  140SOL    HW2 1205   0.416   0.514   4.666
  141SOL     OW 1206   0.504   1.568   4.634
  141SOL    HW1 1207   0.570   1.642   4.643
  141SOL    HW2 1208   0.548   1.489   4.592
  142SOL     OW 1209   1.302   0.855   4.033
  142SOL    HW1 1210   1.216   0.824   4.075
  142SOL    HW2 1211   1.298   0.841   3.934
  143SOL     OW 1212   0.830   1.273   5.146
  143SOL    HW1 1213   0.825   1.306   5.241
  143SOL    HW2 1214   0.744   1.292   5.100
  144SOL     OW 1215   0.672   1.616   3.878
  144SOL    HW1 1216   0.681   1.626   3.779
  144SOL    HW2 1217   0.632   1.527   3.899
  145SOL     OW 1218   1.194   1.612   3.755
  145SOL    HW1 1219   1.200   1.519   3.792
  145SOL    HW2 1220   1.135   1.612   3.675
  146SOL     OW 1221   1.014   0.236   4.695
  146SOL    HW1 1222   1.006   0.200   4.602
  146SOL    HW2 1223   1.012   0.160   4.760
  147SOL     OW 1224   0.105   1.013   5.450
  147SOL    HW1 1225   0.028   0.980   5.504
  147SOL    HW2 1226   0.190   0.983   5.492
  148SOL     OW 1227   0.716   0.565   5.432
  148SOL    HW1 1228   0.735   0.630   5.506
  148SOL    HW2 1229   0.776   0.485   5.441
  149SOL     OW 1230   0.390   1.741   5.284
  149SOL    HW1 1231   0.299   1.782   5.282
  149SOL    HW2 1232   0.383   1.647   5.316
  150SOL     OW 1233   1.225   0.325   4.173
  150SOL    HW1 1234   1.290   0.251   4.162
  150SOL    HW2 1235   1.245   0.375   4.257
  151SOL     OW 1236   0.859   1.374   3.740
  151SOL    HW1 1237   0.813   1.389   3.828
  151SOL    HW2 1238   0.903   1.459   3.710
  152SOL     OW 1239   1.861   1.569   4.575
  152SOL    HW1 1240   1.790   1.557   4.505
  152SOL    HW2 1241   1.862   1.490   4.635
  153SOL     OW 1242   1.424   0.214   4.836
  153SOL    HW1 1243   1.476   0.149   4.891
  153SOL    HW2 1244   1.375   0.277   4.897
  154SOL     OW 1245   1.352   0.052   3.892
  154SOL    HW1 1246   1.387   0.011   3.808
  154SOL    HW2 1247   1.262   0.014   3.912
  155SOL     OW 1248   0.039   1.077   4.024
  155SOL    HW1 1249   0.138   1.066   4.015
  155SOL    HW2 1250  -0.001   0.991   4.056
  156SOL     OW 1251   0.225   2.137   0.996
  156SOL    HW1 1252   0.260   2.120   1.088
  156SOL    HW2 1253   0.137   2.092   0.984
  157SOL     OW 1254   0.768   3.006   1.023
  157SOL    HW1 1255   0.690   3.023   1.083
  157SOL    HW2 1256   0.802   3.093   0.987
  158SOL     OW 1257   1.603   2.309   0.737
  158SOL    HW1 1258   1.529   2.355   0.687
  158SOL    HW2 1259   1.654   2.377   0.790
  159SOL     OW 1260   0.240   2.953   0.886
  159SOL    HW1 1261   0.254   2.869   0.938
  159SOL    HW2 1262   0.185   3.017   0.941
  160SOL     OW 1263   1.594   1.976   1.480
  160SOL    HW1 1264   1.576   2.043   1.408
  160SOL    HW2 1265   1.591   2.022   1.569
  161SOL     OW 1266   0.598   2.591   0.270
  161SOL    HW1 1267   0.622   2.660   0.202
  161SOL    HW2 1268   0.520   2.624   0.324
  162SOL     OW 1269   1.281   2.207   0.944
  162SOL    HW1 1270   1.195   2.157   0.931
  162SOL    HW2 1271   1.343   2.153   1.000
  163SOL     OW 1272   0.464   3.605   0.323
  163SOL    HW1 1273   0.497   3.644   0.409
  163SOL    HW2 1274   0.540   3.598   0.258
  164SOL     OW 1275   0.781   2.126   1.749
  164SOL    HW1 1276   0.848   2.065   1.792
  164SOL    HW2 1277   0.708   2.145   1.814
  165SOL     OW 1278   0.888   3.376   1.195
  165SOL    HW1 1279   0.865   3.351   1.101
  165SOL    HW2 1280   0.949   3.307   1.234
  166SOL     OW 1281   1.271   3.659   0.591
  166SOL    HW1 1282   1.315   3.723   0.527
  166SOL    HW2 1283   1.221   3.711   0.661
  167SOL     OW 1284   0.561   2.084   1.147
  167SOL    HW1 1285   0.599   2.000   1.184
  167SOL    HW2 1286   0.473   2.103   1.191
  168SOL     OW 1287   0.866   2.316   0.642
  168SOL    HW1 1288   0.834   2.388   0.580
  168SOL    HW2 1289   0.890   2.235   0.589
  169SOL     OW 1290   1.857   2.695   0.377
  169SOL    HW1 1291   1.899   2.631   0.441
  169SOL    HW2 1292   1.819   2.644   0.299
  170SOL     OW 1293   1.390   2.437   0.078
  170SOL    HW1 1294   1.336   2.416   0.159
  170SOL    HW2 1295   1.481   2.396   0.087
  171SOL     OW 1296   1.754   3.085   1.588
  171SOL    HW1 1297   1.845   3.046   1.575
  171SOL    HW2 1298   1.762   3.181   1.612
  172SOL     OW 1299   1.111   3.057   1.100
  172SOL    HW1 1300   1.071   3.101   1.181
  172SOL    HW2 1301   1.070   3.094   1.017
  173SOL     OW 1302   1.638   2.961   1.079
  173SOL    HW1 1303   1.643   3.042   1.138
  173SOL    HW2 1304   1.552   2.963   1.028
  174SOL     OW 1305   0.915   1.951   1.402
  174SOL    HW1 1306   0.940   1.931   1.307
  174SOL    HW2 1307   0.987   2.007   1.444
  175SOL     OW 1308   0.367   2.962   0.501
  175SOL    HW1 1309   0.360   3.045   0.445
  175SOL    HW2 1310   0.371   2.882   0.441
  176SOL     OW 1311   0.402   2.613   1.598
  176SOL    HW1 1312   0.470   2.668   1.551
  176SOL    HW2 1313   0.442   2.525   1.625
  177SOL     OW 1314   1.209   2.387   0.275
  177SOL    HW1 1315   1.222   2.303   0.329
  177SOL    HW2 1316   1.180   2.461   0.335
  178SOL     OW 1317   0.307   2.075   1.231
  178SOL    HW1 1318   0.284   2.112   1.321
  178SOL    HW2 1319   0.277   1.980   1.225
  179SOL     OW 1320   0.037   3.172   1.282
  179SOL    HW1 1321   0.090   3.123   1.350
  179SOL    HW2 1322   0.059   3.270   1.287
  180SOL     OW 1323   1.728   2.797   1.854
  180SOL    HW1 1324   1.682   2.790   1.765
  180SOL    HW2 1325   1.666   2.841   1.920
  181SOL     OW 1326   1.622   2.229   0.374
  181SOL    HW1 1327   1.624   2.153   0.438
  181SOL    HW2 1328   1.574   2.306   0.414
  182SOL     OW 1329   1.023   2.628   0.966
  182SOL    HW1 1330   1.038   2.649   1.062
  182SOL    HW2 1331   0.993   2.533   0.957
  183SOL     OW 1332   1.160   2.069   1.477
  183SOL    HW1 1333   1.160   2.133   1.554
  183SOL    HW2 1334   1.188   2.117   1.394
  184SOL     OW 1335   0.088   3.663   0.927
  184SOL    HW1 1336   0.046   3.577   0.900
  184SOL    HW2 1337   0.182   3.666   0.893
  185SOL     OW 1338   1.002   2.658   1.238
  185SOL    HW1 1339   1.043   2.626   1.324
  185SOL    HW2 1340   0.906   2.631   1.235
  186SOL     OW 1341   0.189   2.382   1.722
  186SOL    HW1 1342   0.248   2.342   1.652
  186SOL    HW2 1343   0.131   2.453   1.681
  187SOL     OW 1344   1.369   2.812   1.660
  187SOL    HW1 1345   1.408   2.901   1.680
  187SOL    HW2 1346   1.379   2.792   1.563
  188SOL     OW 1347   0.815   2.434   0.325
  188SOL    HW1 1348   0.822   2.345   0.279
  188SOL    HW2 1349   0.721   2.468   0.317
  189SOL     OW 1350   1.657   2.466   1.206
  189SOL    HW1 1351   1.619   2.397   1.268
  189SOL    HW2 1352   1.739   2.430   1.162
  190SOL     OW 1353   1.252   3.593   1.128
  190SOL    HW1 1354   1.336   3.598   1.074
  190SOL    HW2 1355   1.229   3.497   1.146
  191SOL     OW 1356   0.083   3.120   1.022
  191SOL    HW1 1357   0.078   3.119   1.122
  191SOL    HW2 1358   0.000   3.079   0.984
  192SOL     OW 1359   1.726   1.997   0.523
  192SOL    HW1 1360   1.799   1.980   0.456
  192SOL    HW2 1361   1.695   1.910   0.561
  193SOL     OW 1362   1.280   2.789   0.672
  193SOL    HW1 1363   1.340   2.708   0.674
  193SOL    HW2 1364   1.320   2.858   0.612
  194SOL     OW 1365   0.822   2.864   1.372
  194SOL    HW1 1366   0.862   2.863   1.280
  194SOL    HW2 1367   0.832   2.956   1.412
  195SOL     OW 1368   1.614   3.154   1.289
  195SOL    HW1 1369   1.674   3.157   1.369
  195SOL    HW2 1370   1.539   3.218   1.302
  196SOL     OW 1371   0.105   2.875   1.726
  196SOL    HW1 1372   0.028   2.842   1.780
  196SOL    HW2 1373   0.190   2.845   1.768
  197SOL     OW 1374   0.075   2.207   0.033
  197SOL    HW1 1375  -0.017   2.179   0.004
  197SOL    HW2 1376   0.106   2.284  -0.023
  198SOL     OW 1377   1.674   2.745   1.254
  198SOL    HW1 1378   1.647   2.656   1.217
  198SOL    HW2 1379   1.675   2.813   1.181
  199SOL     OW 1380   1.777   2.204   1.642
  199SOL    HW1 1381   1.760   2.235   1.548
  199SOL    HW2 1382   1.693   2.167   1.680
  200SOL     OW 1383   0.859   2.818   0.861
  200SOL    HW1 1384   0.913   2.749   0.909
  200SOL    HW2 1385   0.827   2.887   0.927
  201SOL     OW 1386   1.424   2.076   1.112
  201SOL    HW1 1387   1.476   2.011   1.167
  201SOL    HW2 1388   1.375   2.139   1.173
  202SOL     OW 1389   0.230   2.490   1.975
  202SOL    HW1 1390   0.137   2.488   2.012
  202SOL    HW2 1391   0.231   2.451   1.883
  203SOL     OW 1392   1.755   2.469   2.093
  203SOL    HW1 1393   1.743   2.456   1.994
  203SOL    HW2 1394   1.725   2.388   2.142
  204SOL     OW 1395   0.027   3.458   1.979
  204SOL    HW1 1396   0.008   3.362   2.000
  204SOL    HW2 1397  -0.006   3.516   2.054
  205SOL     OW 1398   0.598   2.591   2.132
  205SOL    HW1 1399   0.622   2.660   2.064
  205SOL    HW2 1400   0.520   2.624   2.186
  206SOL     OW 1401   0.991   2.272   3.104
  206SOL    HW1 1402   0.914   2.306   3.158
  206SOL    HW2 1403   0.957   2.221   3.025
  207SOL     OW 1404   0.865   2.210   2.057
  207SOL    HW1 1405   0.924   2.273   2.008
  207SOL    HW2 1406   0.884   2.116   2.028
  208SOL     OW 1407   1.719   2.447   3.693
  208SOL    HW1 1408   1.693   2.536   3.657
  208SOL    HW2 1409   1.717   2.379   3.620
  209SOL     OW 1410   1.362   3.006   2.407
  209SOL    HW1 1411   1.445   2.977   2.359
  209SOL    HW2 1412   1.313   3.073   2.351
  210SOL     OW 1413   1.008   3.318   2.339
  210SOL    HW1 1414   0.962   3.390   2.287
  210SOL    HW2 1415   1.004   3.338   2.437
  211SOL     OW 1416   0.351   3.663   2.715
  211SOL    HW1 1417   0.401   3.577   2.721
  211SOL    HW2 1418   0.416   3.740   2.712
  212SOL     OW 1419   1.547   2.084   3.591
  212SOL    HW1 1420   1.542   2.121   3.683
  212SOL    HW2 1421   1.475   2.015   3.579
  213SOL     OW 1422   1.076   2.545   3.326
  213SOL    HW1 1423   0.996   2.484   3.329
  213SOL    HW2 1424   1.157   2.492   3.302
  214SOL     OW 1425   0.078   2.418   3.248
  214SOL    HW1 1426   0.170   2.417   3.207
  214SOL    HW2 1427   0.072   2.492   3.315
  215SOL     OW 1428   0.866   2.316   2.504
  215SOL    HW1 1429   0.834   2.388   2.442
  215SOL    HW2 1430   0.890   2.235   2.451
  216SOL     OW 1431   1.390   2.437   1.940
  216SOL    HW1 1432   1.336   2.416   2.021
  216SOL    HW2 1433   1.481   2.396   1.949
  217SOL     OW 1434   0.915   1.951   3.264
  217SOL    HW1 1435   0.940   1.931   3.169
  217SOL    HW2 1436   0.987   2.007   3.306
  218SOL     OW 1437   0.367   2.962   2.363
  218SOL    HW1 1438   0.360   3.045   2.307
  218SOL    HW2 1439   0.371   2.882   2.303
  219SOL     OW 1440   0.354   3.372   3.191
  219SOL    HW1 1441   0.333   3.328   3.104
  219SOL    HW2 1442   0.451   3.398   3.194
  220SOL     OW 1443   0.504   1.912   3.602
  220SOL    HW1 1444   0.462   1.855   3.532
  220SOL    HW2 1445   0.438   1.981   3.634
  221SOL     OW 1446   1.360   2.724   2.907
  221SOL    HW1 1447   1.285   2.724   2.841
  221SOL    HW2 1448   1.397   2.632   2.916
  222SOL     OW 1449   0.037   3.172   3.144
  222SOL    HW1 1450   0.090   3.123   3.212
  222SOL    HW2 1451   0.059   3.270   3.149
  223SOL     OW 1452   0.307   1.925   2.480
  223SOL    HW1 1453   0.296   2.019   2.513
  223SOL    HW2 1454   0.302   1.862   2.557
  224SOL     OW 1455   1.859   3.380   3.467
  224SOL    HW1 1456   1.873   3.407   3.372
  224SOL    HW2 1457   1.942   3.402   3.520
  225SOL     OW 1458   0.008   3.188   2.062
  225SOL    HW1 1459  -0.085   3.209   2.031
  225SOL    HW2 1460   0.018   3.089   2.075
  226SOL     OW 1461   0.088   3.663   2.789
  226SOL    HW1 1462   0.046   3.577   2.762
  226SOL    HW2 1463   0.182   3.666   2.755
  227SOL     OW 1464   1.002   2.658   3.100
  227SOL    HW1 1465   1.043   2.626   3.186
  227SOL    HW2 1466   0.906   2.631   3.097
  228SOL     OW 1467   0.473   2.362   2.053
  228SOL    HW1 1468   0.534   2.442   2.057
  228SOL    HW2 1469   0.378   2.393   2.060
  229SOL     OW 1470   0.159   2.999   3.328
  229SOL    HW1 1471   0.181   2.938   3.404
  229SOL    HW2 1472   0.169   2.950   3.242
  230SOL     OW 1473   1.347   2.921   3.096
  230SOL    HW1 1474   1.371   2.858   3.022
  230SOL    HW2 1475   1.257   2.961   3.078
  231SOL     OW 1476   0.688   3.524   3.578
  231SOL    HW1 1477   0.632   3.605   3.587
  231SOL    HW2 1478   0.740   3.528   3.492
  232SOL     OW 1479   1.650   3.582   3.256
  232SOL    HW1 1480   1.703   3.592   3.172
  232SOL    HW2 1481   1.623   3.672   3.290
  233SOL     OW 1482   1.504   3.469   1.906
  233SOL    HW1 1483   1.412   3.506   1.913
  233SOL    HW2 1484   1.542   3.489   1.816
  234SOL     OW 1485   0.255   3.210   2.152
  234SOL    HW1 1486   0.159   3.211   2.125
  234SOL    HW2 1487   0.267   3.263   2.236
  235SOL     OW 1488   1.450   3.082   3.495
  235SOL    HW1 1489   1.441   3.072   3.594
  235SOL    HW2 1490   1.546   3.075   3.469
  236SOL     OW 1491   0.859   3.236   1.878
  236SOL    HW1 1492   0.813   3.251   1.966
  236SOL    HW2 1493   0.903   3.321   1.848
  237SOL     OW 1494   0.221   3.176   3.706
  237SOL    HW1 1495   0.156   3.103   3.685
  237SOL    HW2 1496   0.225   3.190   3.804
  238SOL     OW 1497   0.770   3.192   2.163
  238SOL    HW1 1498   0.724   3.105   2.180
  238SOL    HW2 1499   0.861   3.189   2.204
  239SOL     OW 1500   0.618   3.429   3.146
  239SOL    HW1 1501   0.613   3.511   3.203
  239SOL    HW2 1502   0.707   3.426   3.101
  240SOL     OW 1503   1.135   2.565   4.441
  240SOL    HW1 1504   1.192   2.643   4.416
  240SOL    HW2 1505   1.075   2.591   4.517
  241SOL     OW 1506   1.755   2.469   3.955
  241SOL    HW1 1507   1.743   2.456   3.856
  241SOL    HW2 1508   1.725   2.388   4.004
  242SOL     OW 1509   0.231   3.575   4.207
  242SOL    HW1 1510   0.265   3.652   4.261
  242SOL    HW2 1511   0.275   3.575   4.117
  243SOL     OW 1512   0.027   3.458   3.841
  243SOL    HW1 1513   0.008   3.362   3.862
  243SOL    HW2 1514  -0.006   3.516   3.916
  244SOL     OW 1515   1.466   3.279   4.677
  244SOL    HW1 1516   1.407   3.285   4.757
  244SOL    HW2 1517   1.451   3.191   4.631
  245SOL     OW 1518   1.667   3.576   4.296
  245SOL    HW1 1519   1.626   3.553   4.208
  245SOL    HW2 1520   1.649   3.502   4.361
  246SOL     OW 1521   0.598   2.591   3.994
  246SOL    HW1 1522   0.622   2.660   3.926
  246SOL    HW2 1523   0.520   2.624   4.048
  247SOL     OW 1524   0.807   2.467   5.189
  247SOL    HW1 1525   0.760   2.464   5.278
  247SOL    HW2 1526   0.756   2.412   5.123
  248SOL     OW 1527   0.076   2.673   4.513
  248SOL    HW1 1528   0.175   2.661   4.522
  248SOL    HW2 1529   0.052   2.768   4.534
  249SOL     OW 1530   1.362   3.006   4.269
  249SOL    HW1 1531   1.445   2.977   4.221
  249SOL    HW2 1532   1.313   3.073   4.213
  250SOL     OW 1533   1.008   3.318   4.201
  250SOL    HW1 1534   0.962   3.390   4.149
  250SOL    HW2 1535   1.004   3.338   4.299
  251SOL     OW 1536   1.632   3.239   3.805
  251SOL    HW1 1537   1.600   3.333   3.795
  251SOL    HW2 1538   1.556   3.176   3.793
  252SOL     OW 1539   0.561   2.084   4.871
  252SOL    HW1 1540   0.599   2.000   4.908
  252SOL    HW2 1541   0.473   2.103   4.915
  253SOL     OW 1542   1.429   3.035   4.591
  253SOL    HW1 1543   1.374   2.951   4.584
  253SOL    HW2 1544   1.455   3.064   4.499
  254SOL     OW 1545   1.638   2.961   4.803
  254SOL    HW1 1546   1.643   3.042   4.862
  254SOL    HW2 1547   1.552   2.963   4.752
  255SOL     OW 1548   0.410   2.675   4.975
  255SOL    HW1 1549   0.496   2.687   5.025
  255SOL    HW2 1550   0.368   2.588   5.002
  256SOL     OW 1551   0.064   3.426   5.055
  256SOL    HW1 1552   0.018   3.508   5.021
  256SOL    HW2 1553   0.162   3.445   5.064
  257SOL     OW 1554   0.566   2.399   4.589
  257SOL    HW1 1555   0.578   2.465   4.515
  257SOL    HW2 1556   0.612   2.433   4.672
  258SOL     OW 1557   1.252   3.210   4.112
  258SOL    HW1 1558   1.302   3.287   4.152
  258SOL    HW2 1559   1.157   3.212   4.144
  259SOL     OW 1560   0.573   2.732   4.753
  259SOL    HW1 1561   0.617   2.821   4.744
  259SOL    HW2 1562   0.510   2.732   4.830
  260SOL     OW 1563   1.360   2.724   4.769
  260SOL    HW1 1564   1.285   2.724   4.703
  260SOL    HW2 1565   1.397   2.632   4.778
  261SOL     OW 1566   0.307   2.075   4.955
  261SOL    HW1 1567   0.284   2.112   5.045
  261SOL    HW2 1568   0.277   1.980   4.949
  262SOL     OW 1569   1.023   2.628   4.690
  262SOL    HW1 1570   1.038   2.649   4.786
  262SOL    HW2 1571   0.993   2.533   4.681
  263SOL     OW 1572   1.303   2.700   3.766
  263SOL    HW1 1573   1.337   2.607   3.781
  263SOL    HW2 1574   1.321   2.727   3.671
  264SOL     OW 1575   1.068   3.195   4.573
  264SOL    HW1 1576   1.075   3.111   4.518
  264SOL    HW2 1577   1.130   3.264   4.537
  265SOL     OW 1578   0.008   3.188   3.924
  265SOL    HW1 1579  -0.085   3.209   3.893
  265SOL    HW2 1580   0.018   3.089   3.937
  266SOL     OW 1581   0.252   3.426   5.468
  266SOL    HW1 1582   0.222   3.483   5.544
  266SOL    HW2 1583   0.245   3.329   5.494
  267SOL     OW 1584   0.159   2.999   5.190
  267SOL    HW1 1585   0.181   2.938   5.266
  267SOL    HW2 1586   0.169   2.950   5.104
  268SOL     OW 1587   1.347   2.921   4.958
  268SOL    HW1 1588   1.371   2.858   4.884
  268SOL    HW2 1589   1.257   2.961   4.940
  269SOL     OW 1590   1.726   1.997   4.247
  269SOL    HW1 1591   1.799   1.980   4.180
  269SOL    HW2 1592   1.695   1.910   4.285
  270SOL     OW 1593   0.263   2.188   4.444
  270SOL    HW1 1594   0.184   2.239   4.410
  270SOL    HW2 1595   0.254   2.173   4.542
  271SOL     OW 1596   0.916   2.772   4.015
  271SOL    HW1 1597   0.979   2.810   3.947
  271SOL    HW2 1598   0.956   2.689   4.054
  272SOL     OW 1599   1.614   3.154   5.013
  272SOL    HW1 1600   1.674   3.157   5.093
  272SOL    HW2 1601   1.539   3.218   5.026
  273SOL     OW 1602   1.039   2.960   4.420
  273SOL    HW1 1603   0.969   2.913   4.474
  273SOL    HW2 1604   1.098   2.892   4.377
  274SOL     OW 1605   1.014   2.098   4.695
  274SOL    HW1 1606   1.006   2.062   4.602
  274SOL    HW2 1607   1.012   2.022   4.760
  275SOL     OW 1608   0.255   3.210   4.014
  275SOL    HW1 1609   0.159   3.211   3.987
  275SOL    HW2 1610   0.267   3.263   4.098
  276SOL     OW 1611   0.075   2.207   3.757
  276SOL    HW1 1612  -0.017   2.179   3.728
  276SOL    HW2 1613   0.106   2.284   3.701
  277SOL     OW 1614   1.674   2.745   4.978
  277SOL    HW1 1615   1.647   2.656   4.941
  277SOL    HW2 1616   1.675   2.813   4.905
  278SOL     OW 1617   0.594   2.607   4.376
  278SOL    HW1 1618   0.644   2.692   4.357
  278SOL    HW2 1619   0.506   2.609   4.328
  279SOL     OW 1620   0.859   3.236   3.740
  279SOL    HW1 1621   0.813   3.251   3.828
  279SOL    HW2 1622   0.903   3.321   3.710
  280SOL     OW 1623   1.861   3.431   4.575
  280SOL    HW1 1624   1.790   3.419   4.505
  280SOL    HW2 1625   1.862   3.352   4.635
  281SOL     OW 1626   0.770   3.192   4.025
  281SOL    HW1 1627   0.724   3.105   4.042
  281SOL    HW2 1628   0.861   3.189   4.066
  282SOL     OW 1629   1.593   2.083   4.606
  282SOL    HW1 1630   1.509   2.082   4.660
  282SOL    HW2 1631   1.595   2.166   4.550
  283SOL     OW 1632   0.039   2.939   4.024
  283SOL    HW1 1633   0.138   2.928   4.015
  283SOL    HW2 1634  -0.001   2.853   4.056
  284SOL     OW 1635   0.019   4.092   0.647
  284SOL    HW1 1636  -0.063   4.135   0.686
  284SOL    HW2 1637  -0.009   4.019   0.584
  285SOL     OW 1638   0.768   4.868   1.023
  285SOL    HW1 1639   0.690   4.885   1.083
  285SOL    HW2 1640   0.802   4.955   0.987
  286SOL     OW 1641   0.686   4.885   1.803
  286SOL    HW1 1642   0.746   4.964   1.817
  286SOL    HW2 1643   0.600   4.916   1.762
  287SOL     OW 1644   0.606   4.688   0.123
  287SOL    HW1 1645   0.613   4.772   0.069
  287SOL    HW2 1646   0.652   4.701   0.211
  288SOL     OW 1647   1.689   4.646   0.612
  288SOL    HW1 1648   1.784   4.617   0.620
  288SOL    HW2 1649   1.681   4.711   0.537
  289SOL     OW 1650   0.809   3.728   0.502
  289SOL    HW1 1651   0.849   3.819   0.493
  289SOL    HW2 1652   0.709   3.736   0.508
  290SOL     OW 1653   1.466   5.141   0.953
  290SOL    HW1 1654   1.407   5.147   1.033
  290SOL    HW2 1655   1.451   5.053   0.907
  291SOL     OW 1656   1.576   5.386   0.307
  291SOL    HW1 1657   1.665   5.432   0.310
  291SOL    HW2 1658   1.555   5.362   0.212
  292SOL     OW 1659   1.041   4.425   0.429
  292SOL    HW1 1660   1.067   4.421   0.525
  292SOL    HW2 1661   0.956   4.374   0.415
  293SOL     OW 1662   0.550   3.920   0.885
  293SOL    HW1 1663   0.545   3.915   0.985
  293SOL    HW2 1664   0.552   4.016   0.856
  294SOL     OW 1665   1.008   5.180   0.477
  294SOL    HW1 1666   0.962   5.252   0.425
  294SOL    HW2 1667   1.004   5.200   0.575
  295SOL     OW 1668   0.202   4.009   1.498
  295SOL    HW1 1669   0.122   4.069   1.485
  295SOL    HW2 1670   0.192   3.960   1.584
  296SOL     OW 1671   0.382   4.424   0.480
  296SOL    HW1 1672   0.427   4.334   0.477
  296SOL    HW2 1673   0.288   4.413   0.513
  297SOL     OW 1674   0.803   5.126   0.924
  297SOL    HW1 1675   0.893   5.140   0.882
  297SOL    HW2 1676   0.732   5.128   0.853
  298SOL     OW 1677   0.297   3.759   0.171
  298SOL    HW1 1678   0.346   3.843   0.150
  298SOL    HW2 1679   0.359   3.694   0.216
  299SOL     OW 1680   0.459   4.876   0.741
  299SOL    HW1 1681   0.388   4.849   0.806
  299SOL    HW2 1682   0.433   4.848   0.648
  300SOL     OW 1683   1.032   4.273   0.016
  300SOL    HW1 1684   0.991   4.355  -0.023
  300SOL    HW2 1685   1.096   4.299   0.089
  301SOL     OW 1686   0.561   3.946   1.147
  301SOL    HW1 1687   0.599   3.862   1.184
  301SOL    HW2 1688   0.473   3.965   1.191
  302SOL     OW 1689   1.664   5.004   0.657
  302SOL    HW1 1690   1.763   5.012   0.671
  302SOL    HW2 1691   1.619   5.088   0.688
  303SOL     OW 1692   1.390   4.299   0.078
  303SOL    HW1 1693   1.336   4.278   0.159
  303SOL    HW2 1694   1.481   4.258   0.087
  304SOL     OW 1695   1.754   4.947   1.588
  304SOL    HW1 1696   1.845   4.908   1.575
  304SOL    HW2 1697   1.762   5.043   1.612
  305SOL     OW 1698   1.064   5.071   1.340
  305SOL    HW1 1699   0.984   5.048   1.395
  305SOL    HW2 1700   1.147   5.045   1.389
  306SOL     OW 1701   1.252   5.072   0.388
  306SOL    HW1 1702   1.302   5.149   0.428
  306SOL    HW2 1703   1.157   5.074   0.420
  307SOL     OW 1704   1.272   5.169   1.142
  307SOL    HW1 1705   1.319   5.182   1.229
  307SOL    HW2 1706   1.206   5.095   1.151
  308SOL     OW 1707   1.209   4.249   0.275
  308SOL    HW1 1708   1.222   4.165   0.329
  308SOL    HW2 1709   1.180   4.323   0.335
  309SOL     OW 1710   0.307   3.937   1.231
  309SOL    HW1 1711   0.284   3.974   1.321
  309SOL    HW2 1712   0.277   3.842   1.225
  310SOL     OW 1713   1.728   4.659   1.854
  310SOL    HW1 1714   1.682   4.652   1.765
  310SOL    HW2 1715   1.666   4.703   1.920
  311SOL     OW 1716   0.339   4.233   1.006
  311SOL    HW1 1717   0.287   4.150   0.989
  311SOL    HW2 1718   0.416   4.238   0.942
  312SOL     OW 1719   0.504   5.292   0.910
  312SOL    HW1 1720   0.570   5.366   0.919
  312SOL    HW2 1721   0.548   5.213   0.868
  313SOL     OW 1722   1.657   4.328   1.206
  313SOL    HW1 1723   1.619   4.259   1.268
  313SOL    HW2 1724   1.739   4.292   1.162
  314SOL     OW 1725   0.473   4.224   0.191
  314SOL    HW1 1726   0.534   4.304   0.195
  314SOL    HW2 1727   0.378   4.255   0.198
  315SOL     OW 1728   0.903   3.810   0.133
  315SOL    HW1 1729   0.954   3.811   0.047
  315SOL    HW2 1730   0.959   3.768   0.204
  316SOL     OW 1731   1.280   4.651   0.672
  316SOL    HW1 1732   1.340   4.570   0.674
  316SOL    HW2 1733   1.320   4.720   0.612
  317SOL     OW 1734   0.822   4.726   1.372
  317SOL    HW1 1735   0.862   4.725   1.280
  317SOL    HW2 1736   0.832   4.818   1.412
  318SOL     OW 1737   0.916   4.634   0.291
  318SOL    HW1 1738   0.979   4.672   0.223
  318SOL    HW2 1739   0.956   4.551   0.330
  319SOL     OW 1740   0.075   4.069   0.033
  319SOL    HW1 1741  -0.017   4.041   0.004
  319SOL    HW2 1742   0.106   4.146  -0.023
  320SOL     OW 1743   1.183   5.059   0.119
  320SOL    HW1 1744   1.084   5.048   0.121
  320SOL    HW2 1745   1.217   5.074   0.212
  321SOL     OW 1746   1.674   4.607   1.254
  321SOL    HW1 1747   1.647   4.518   1.217
  321SOL    HW2 1748   1.675   4.675   1.181
  322SOL     OW 1749   1.730   4.658   1.517
  322SOL    HW1 1750   1.768   4.749   1.532
  322SOL    HW2 1751   1.722   4.641   1.418
  323SOL     OW 1752   1.824   3.916   1.227
  323SOL    HW1 1753   1.820   3.826   1.271
  323SOL    HW2 1754   1.827   3.905   1.128
  324SOL     OW 1755   0.768   4.868   2.885
  324SOL    HW1 1756   0.690   4.885   2.945
  324SOL    HW2 1757   0.802   4.955   2.849
  325SOL     OW 1758   0.335   5.159   2.923
  325SOL    HW1 1759   0.257   5.128   2.870
  325SOL    HW2 1760   0.393   5.217   2.866
  326SOL     OW 1761   1.127   5.065   3.552
  326SOL    HW1 1762   1.174   5.065   3.640
  326SOL    HW2 1763   1.079   4.978   3.541
  327SOL     OW 1764   1.594   3.838   3.342
  327SOL    HW1 1765   1.576   3.905   3.270
  327SOL    HW2 1766   1.591   3.884   3.431
  328SOL     OW 1767   0.027   5.320   1.979
  328SOL    HW1 1768   0.008   5.224   2.000
  328SOL    HW2 1769  -0.006   5.378   2.054
  329SOL     OW 1770   0.613   5.089   2.588
  329SOL    HW1 1771   0.564   5.002   2.597
  329SOL    HW2 1772   0.590   5.132   2.501
  330SOL     OW 1773   1.525   4.723   2.052
  330SOL    HW1 1774   1.462   4.647   2.065
  330SOL    HW2 1775   1.573   4.741   2.138
  331SOL     OW 1776   1.466   5.141   2.815
  331SOL    HW1 1777   1.407   5.147   2.895
  331SOL    HW2 1778   1.451   5.053   2.769
  332SOL     OW 1779   0.321   4.667   2.104
  332SOL    HW1 1780   0.403   4.706   2.062
  332SOL    HW2 1781   0.294   4.585   2.055
  333SOL     OW 1782   1.351   4.314   3.295
  333SOL    HW1 1783   1.379   4.271   3.380
  333SOL    HW2 1784   1.376   4.410   3.296
  334SOL     OW 1785   0.539   3.788   2.374
  334SOL    HW1 1786   0.458   3.789   2.432
  334SOL    HW2 1787   0.542   3.871   2.319
  335SOL     OW 1788   1.227   5.294   2.655
  335SOL    HW1 1789   1.248   5.368   2.590
  335SOL    HW2 1790   1.295   5.294   2.728
  336SOL     OW 1791   1.857   4.557   2.239
  336SOL    HW1 1792   1.899   4.493   2.303
  336SOL    HW2 1793   1.819   4.506   2.161
  337SOL     OW 1794   0.527   3.980   2.190
  337SOL    HW1 1795   0.554   3.921   2.115
  337SOL    HW2 1796   0.527   4.075   2.159
  338SOL     OW 1797   0.064   5.288   3.193
  338SOL    HW1 1798   0.018   5.370   3.159
  338SOL    HW2 1799   0.162   5.307   3.202
  339SOL     OW 1800   1.272   5.169   3.004
  339SOL    HW1 1801   1.319   5.182   3.091
  339SOL    HW2 1802   1.206   5.095   3.013
  340SOL     OW 1803   0.402   4.475   3.460
  340SOL    HW1 1804   0.470   4.530   3.413
  340SOL    HW2 1805   0.442   4.387   3.487
  341SOL     OW 1806   0.980   5.297   3.562
  341SOL    HW1 1807   0.960   5.341   3.474
  341SOL    HW2 1808   1.019   5.206   3.546
  342SOL     OW 1809   1.859   5.242   3.467
  342SOL    HW1 1810   1.873   5.269   3.372
  342SOL    HW2 1811   1.942   5.264   3.520
  343SOL     OW 1812   1.540   3.998   1.987
  343SOL    HW1 1813   1.479   3.923   2.010
  343SOL    HW2 1814   1.562   4.050   2.070
  344SOL     OW 1815   1.068   5.057   2.711
  344SOL    HW1 1816   1.075   4.973   2.656
  344SOL    HW2 1817   1.130   5.126   2.675
  345SOL     OW 1818   0.339   4.233   2.868
  345SOL    HW1 1819   0.287   4.150   2.851
  345SOL    HW2 1820   0.416   4.238   2.804
  346SOL     OW 1821   0.088   5.525   2.789
  346SOL    HW1 1822   0.046   5.439   2.762
  346SOL    HW2 1823   0.182   5.528   2.755
  347SOL     OW 1824   1.302   4.579   2.171
  347SOL    HW1 1825   1.216   4.548   2.213
  347SOL    HW2 1826   1.298   4.565   2.072
  348SOL     OW 1827   1.252   5.455   2.990
  348SOL    HW1 1828   1.336   5.460   2.936
  348SOL    HW2 1829   1.229   5.359   3.008
  349SOL     OW 1830   1.388   5.297   2.339
  349SOL    HW1 1831   1.455   5.309   2.265
  349SOL    HW2 1832   1.348   5.386   2.362
  350SOL     OW 1833   0.916   4.634   2.153
  350SOL    HW1 1834   0.979   4.672   2.085
  350SOL    HW2 1835   0.956   4.551   2.192
  351SOL     OW 1836   1.014   3.960   2.833
  351SOL    HW1 1837   1.006   3.924   2.740
  351SOL    HW2 1838   1.012   3.884   2.898
  352SOL     OW 1839   0.105   4.737   3.588
  352SOL    HW1 1840   0.028   4.704   3.642
  352SOL    HW2 1841   0.190   4.707   3.630
  353SOL     OW 1842   0.072   3.890   2.180
  353SOL    HW1 1843   0.055   3.973   2.126
  353SOL    HW2 1844   0.162   3.853   2.158
  354SOL     OW 1845   1.450   4.944   3.495
  354SOL    HW1 1846   1.441   4.934   3.594
  354SOL    HW2 1847   1.546   4.937   3.469
  355SOL     OW 1848   1.861   5.293   2.713
  355SOL    HW1 1849   1.790   5.281   2.643
  355SOL    HW2 1850   1.862   5.214   2.773
  356SOL     OW 1851   0.221   5.038   3.706
  356SOL    HW1 1852   0.156   4.965   3.685
  356SOL    HW2 1853   0.225   5.052   3.804
  357SOL     OW 1854   1.824   3.916   3.089
  357SOL    HW1 1855   1.820   3.826   3.133
  357SOL    HW2 1856   1.827   3.905   2.990
  358SOL     OW 1857   1.001   3.758   3.016
  358SOL    HW1 1858   0.938   3.686   2.985
  358SOL    HW2 1859   1.094   3.722   3.016
  359SOL     OW 1860   1.352   3.776   2.030
  359SOL    HW1 1861   1.387   3.735   1.946
  359SOL    HW2 1862   1.262   3.738   2.050
  360SOL     OW 1863   1.300   4.177   2.553
  360SOL    HW1 1864   1.241   4.257   2.557
  360SOL    HW2 1865   1.315   4.142   2.646
  361SOL     OW 1866   0.850   4.522   5.547
  361SOL    HW1 1867   0.846   4.598   5.612
  361SOL    HW2 1868   0.872   4.558   5.456
  362SOL     OW 1869   1.603   4.171   4.461
  362SOL    HW1 1870   1.529   4.217   4.411
  362SOL    HW2 1871   1.654   4.239   4.514
  363SOL     OW 1872   0.606   4.688   3.847
  363SOL    HW1 1873   0.613   4.772   3.793
  363SOL    HW2 1874   0.652   4.701   3.935
  364SOL     OW 1875   1.594   3.838   5.204
  364SOL    HW1 1876   1.576   3.905   5.132
  364SOL    HW2 1877   1.591   3.884   5.293
  365SOL     OW 1878   0.122   4.367   4.287
  365SOL    HW1 1879   0.077   4.279   4.304
  365SOL    HW2 1880   0.121   4.421   4.371
  366SOL     OW 1881   1.689   4.646   4.336
  366SOL    HW1 1882   1.784   4.617   4.344
  366SOL    HW2 1883   1.681   4.711   4.261
  367SOL     OW 1884   0.613   5.089   4.450
  367SOL    HW1 1885   0.564   5.002   4.459
  367SOL    HW2 1886   0.590   5.132   4.363
  368SOL     OW 1887   0.197   4.700   4.988
  368SOL    HW1 1888   0.286   4.655   4.974
  368SOL    HW2 1889   0.124   4.635   4.969
  369SOL     OW 1890   0.317   3.975   5.525
  369SOL    HW1 1891   0.388   4.046   5.531
  369SOL    HW2 1892   0.229   4.014   5.553
  370SOL     OW 1893   0.321   4.667   3.966
  370SOL    HW1 1894   0.403   4.706   3.924
  370SOL    HW2 1895   0.294   4.585   3.917
  371SOL     OW 1896   1.111   5.500   3.961
  371SOL    HW1 1897   1.051   5.438   4.011
  371SOL    HW2 1898   1.142   5.456   3.876
  372SOL     OW 1899   0.888   5.238   4.919
  372SOL    HW1 1900   0.865   5.213   4.825
  372SOL    HW2 1901   0.949   5.169   4.958
  373SOL     OW 1902   0.922   4.227   4.623
  373SOL    HW1 1903   0.897   4.218   4.527
  373SOL    HW2 1904   0.970   4.145   4.654
  374SOL     OW 1905   0.539   3.788   4.236
  374SOL    HW1 1906   0.458   3.789   4.294
  374SOL    HW2 1907   0.542   3.871   4.181
  375SOL     OW 1908   0.078   4.280   5.110
  375SOL    HW1 1909   0.170   4.279   5.069
  375SOL    HW2 1910   0.072   4.354   5.177
  376SOL     OW 1911   0.561   3.946   4.871
  376SOL    HW1 1912   0.599   3.862   4.908
  376SOL    HW2 1913   0.473   3.965   4.915
  377SOL     OW 1914   1.857   4.557   4.101
  377SOL    HW1 1915   1.899   4.493   4.165
  377SOL    HW2 1916   1.819   4.506   4.023
  378SOL     OW 1917   0.488   5.109   3.898
  378SOL    HW1 1918   0.401   5.094   3.945
  378SOL    HW2 1919   0.471   5.135   3.803
  379SOL     OW 1920   1.754   4.947   5.312
  379SOL    HW1 1921   1.845   4.908   5.299
  379SOL    HW2 1922   1.762   5.043   5.336
  380SOL     OW 1923   1.360   4.586   4.769
  380SOL    HW1 1924   1.285   4.586   4.703
  380SOL    HW2 1925   1.397   4.494   4.778
  381SOL     OW 1926   1.280   4.651   4.396
  381SOL    HW1 1927   1.340   4.570   4.398
  381SOL    HW2 1928   1.320   4.720   4.336
  382SOL     OW 1929   0.372   5.012   5.214
  382SOL    HW1 1930   0.359   5.105   5.180
  382SOL    HW2 1931   0.288   4.960   5.201
  383SOL     OW 1932   1.440   4.580   5.122
  383SOL    HW1 1933   1.383   4.632   5.059
  383SOL    HW2 1934   1.536   4.592   5.098
  384SOL     OW 1935   0.072   3.890   4.042
  384SOL    HW1 1936   0.055   3.973   3.988
  384SOL    HW2 1937   0.162   3.853   4.020
  385SOL     OW 1938   0.716   4.289   5.432
  385SOL    HW1 1939   0.735   4.354   5.506
  385SOL    HW2 1940   0.776   4.209   5.441
  386SOL     OW 1941   1.730   4.658   5.241
  386SOL    HW1 1942   1.768   4.749   5.256
  386SOL    HW2 1943   1.722   4.641   5.142
  387SOL     OW 1944   1.083   4.708   3.811
  387SOL    HW1 1945   1.060   4.761   3.729
  387SOL    HW2 1946   1.164   4.652   3.792
  388SOL     OW 1947   0.672   5.115   5.348
  388SOL    HW1 1948   0.594   5.065   5.386
  388SOL    HW2 1949   0.669   5.210   5.379
  389SOL     OW 1950   0.770   5.054   4.025
  389SOL    HW1 1951   0.724   4.967   4.042
  389SOL    HW2 1952   0.861   5.051   4.066
  390SOL     OW 1953   0.618   5.291   5.008
  390SOL    HW1 1954   0.613   5.373   5.065
  390SOL    HW2 1955   0.707   5.288   4.963
  391SOL     OW 1956   3.417   1.511   0.703
  391SOL    HW1 1957   3.360   1.495   0.784
  391SOL    HW2 1958   3.358   1.521   0.623
  392SOL     OW 1959   2.712   0.798   1.823
  392SOL    HW1 1960   2.708   0.874   1.888
  392SOL    HW2 1961   2.734   0.834   1.732
  393SOL     OW 1962   2.300   0.392   1.499
  393SOL    HW1 1963   2.382   0.336   1.508
  393SOL    HW2 1964   2.219   0.334   1.503
  394SOL     OW 1965   2.468   0.964   0.123
  394SOL    HW1 1966   2.475   1.048   0.069
  394SOL    HW2 1967   2.514   0.977   0.211
  395SOL     OW 1968   3.704   1.767   0.359
  395SOL    HW1 1969   3.758   1.738   0.439
  395SOL    HW2 1970   3.734   1.857   0.330
  396SOL     OW 1971   3.551   0.922   0.612
  396SOL    HW1 1972   3.646   0.893   0.620
  396SOL    HW2 1973   3.543   0.987   0.537
  397SOL     OW 1974   3.503   1.108   0.432
  397SOL    HW1 1975   3.589   1.110   0.380
  397SOL    HW2 1976   3.517   1.155   0.520
  398SOL     OW 1977   1.975   0.737   1.597
  398SOL    HW1 1978   2.063   0.724   1.642
  398SOL    HW2 1979   1.962   0.834   1.575
  399SOL     OW 1980   2.475   1.365   0.726
  399SOL    HW1 1981   2.426   1.278   0.735
  399SOL    HW2 1982   2.452   1.408   0.639
  400SOL     OW 1983   3.529   1.714   0.572
  400SOL    HW1 1984   3.488   1.691   0.484
  400SOL    HW2 1985   3.511   1.640   0.637
  401SOL     OW 1986   3.143   0.345   0.944
  401SOL    HW1 1987   3.057   0.295   0.931
  401SOL    HW2 1988   3.205   0.291   1.000
  402SOL     OW 1989   1.992   1.821   1.571
  402SOL    HW1 1990   1.982   1.806   1.670
  402SOL    HW2 1991   1.906   1.857   1.535
  403SOL     OW 1992   3.657   1.066   0.873
  403SOL    HW1 1993   3.595   1.051   0.797
  403SOL    HW2 1994   3.605   1.077   0.958
  404SOL     OW 1995   3.089   1.550   1.506
  404SOL    HW1 1996   3.095   1.473   1.570
  404SOL    HW2 1997   3.037   1.524   1.426
  405SOL     OW 1998   1.940   0.556   1.386
  405SOL    HW1 1999   2.032   0.555   1.345
  405SOL    HW2 2000   1.934   0.630   1.453
  406SOL     OW 2001   2.879   0.039   0.753
  406SOL    HW1 2002   2.807   0.044   0.684
  406SOL    HW2 2003   2.855  -0.030   0.822
  407SOL     OW 2004   2.389   0.256   0.328
  407SOL    HW1 2005   2.416   0.197   0.253
  407SOL    HW2 2006   2.389   0.351   0.297
  408SOL     OW 2007   2.842   1.116   1.719
  408SOL    HW1 2008   2.743   1.122   1.729
  408SOL    HW2 2009   2.865   1.036   1.663
  409SOL     OW 2010   1.926   1.564   1.331
  409SOL    HW1 2011   1.880   1.646   1.297
  409SOL    HW2 2012   2.024   1.583   1.340
  410SOL     OW 2013   2.229   1.100   0.501
  410SOL    HW1 2014   2.222   1.183   0.445
  410SOL    HW2 2015   2.233   1.020   0.441
  411SOL     OW 2016   2.875   0.105   1.770
  411SOL    HW1 2017   2.881   0.190   1.718
  411SOL    HW2 2018   2.907   0.029   1.713
  412SOL     OW 2019   2.366   0.050   1.740
  412SOL    HW1 2020   2.324  -0.007   1.670
  412SOL    HW2 2021   2.300   0.119   1.772
  413SOL     OW 2022   2.169   0.213   1.231
  413SOL    HW1 2023   2.146   0.250   1.321
  413SOL    HW2 2024   2.139   0.118   1.225
  414SOL     OW 2025   2.594   0.634   1.064
  414SOL    HW1 2026   2.653   0.608   0.988
  414SOL    HW2 2027   2.566   0.730   1.053
  415SOL     OW 2028   2.169   0.063   0.618
  415SOL    HW1 2029   2.158   0.157   0.651
  415SOL    HW2 2030   2.164   0.000   0.695
  416SOL     OW 2031   3.721   1.518   1.605
  416SOL    HW1 2032   3.735   1.545   1.510
  416SOL    HW2 2033   3.804   1.540   1.658
  417SOL     OW 2034   2.201   0.509   1.006
  417SOL    HW1 2035   2.149   0.426   0.989
  417SOL    HW2 2036   2.278   0.514   0.942
  418SOL     OW 2037   2.366   1.568   0.910
  418SOL    HW1 2038   2.432   1.642   0.919
  418SOL    HW2 2039   2.410   1.489   0.868
  419SOL     OW 2040   3.231   0.950   1.660
  419SOL    HW1 2041   3.270   1.039   1.680
  419SOL    HW2 2042   3.241   0.930   1.563
  420SOL     OW 2043   2.677   0.572   0.325
  420SOL    HW1 2044   2.684   0.483   0.279
  420SOL    HW2 2045   2.583   0.606   0.317
  421SOL     OW 2046   3.142   0.927   0.672
  421SOL    HW1 2047   3.202   0.846   0.674
  421SOL    HW2 2048   3.182   0.996   0.612
  422SOL     OW 2049   3.703   0.175   0.963
  422SOL    HW1 2050   3.742   0.090   0.927
  422SOL    HW2 2051   3.605   0.177   0.944
  423SOL     OW 2052   3.056   1.612   0.031
  423SOL    HW1 2053   3.062   1.519   0.068
  423SOL    HW2 2054   2.997   1.612  -0.049
  424SOL     OW 2055   2.876   0.236   0.971
  424SOL    HW1 2056   2.868   0.200   0.878
  424SOL    HW2 2057   2.874   0.160   1.036
  425SOL     OW 2058   2.117   1.348   0.290
  425SOL    HW1 2059   2.021   1.349   0.263
  425SOL    HW2 2060   2.129   1.401   0.374
  426SOL     OW 2061   1.937   0.345   0.033
  426SOL    HW1 2062   1.845   0.317   0.004
  426SOL    HW2 2063   1.968   0.422  -0.023
  427SOL     OW 2064   3.302   0.856   1.398
  427SOL    HW1 2065   3.245   0.908   1.335
  427SOL    HW2 2066   3.398   0.868   1.374
  428SOL     OW 2067   3.536   0.883   1.254
  428SOL    HW1 2068   3.509   0.794   1.217
  428SOL    HW2 2069   3.537   0.951   1.181
  429SOL     OW 2070   3.087   0.325   0.449
  429SOL    HW1 2071   3.152   0.251   0.438
  429SOL    HW2 2072   3.107   0.375   0.533
  430SOL     OW 2073   2.721   1.374   0.016
  430SOL    HW1 2074   2.675   1.389   0.104
  430SOL    HW2 2075   2.765   1.459  -0.014
  431SOL     OW 2076   3.723   1.569   0.851
  431SOL    HW1 2077   3.652   1.557   0.781
  431SOL    HW2 2078   3.724   1.490   0.911
  432SOL     OW 2079   2.083   1.314   1.844
  432SOL    HW1 2080   2.018   1.241   1.823
  432SOL    HW2 2081   2.087   1.328   1.942
  433SOL     OW 2082   2.480   1.567   1.284
  433SOL    HW1 2083   2.475   1.649   1.341
  433SOL    HW2 2084   2.569   1.564   1.239
  434SOL     OW 2085   3.214   0.052   0.168
  434SOL    HW1 2086   3.249   0.011   0.084
  434SOL    HW2 2087   3.124   0.014   0.188
  435SOL     OW 2088   1.901   1.077   0.300
  435SOL    HW1 2089   2.000   1.066   0.291
  435SOL    HW2 2090   1.861   0.991   0.332
  436SOL     OW 2091   2.300   0.392   3.361
  436SOL    HW1 2092   2.382   0.336   3.370
  436SOL    HW2 2093   2.219   0.334   3.365
  437SOL     OW 2094   2.989   1.341   3.552
  437SOL    HW1 2095   3.036   1.341   3.640
  437SOL    HW2 2096   2.941   1.254   3.541
  438SOL     OW 2097   1.889   1.596   1.979
  438SOL    HW1 2098   1.870   1.500   2.000
  438SOL    HW2 2099   1.856   1.654   2.054
  439SOL     OW 2100   3.551   0.922   2.474
  439SOL    HW1 2101   3.646   0.893   2.482
  439SOL    HW2 2102   3.543   0.987   2.399
  440SOL     OW 2103   3.155   1.228   3.285
  440SOL    HW1 2104   3.192   1.155   3.227
  440SOL    HW2 2105   3.207   1.233   3.370
  441SOL     OW 2106   2.179   0.251   3.663
  441SOL    HW1 2107   2.250   0.322   3.669
  441SOL    HW2 2108   2.091   0.290   3.691
  442SOL     OW 2109   3.529   1.714   2.434
  442SOL    HW1 2110   3.488   1.691   2.346
  442SOL    HW2 2111   3.511   1.640   2.499
  443SOL     OW 2112   3.438   1.662   2.169
  443SOL    HW1 2113   3.527   1.708   2.172
  443SOL    HW2 2114   3.417   1.638   2.074
  444SOL     OW 2115   2.669   0.605   3.327
  444SOL    HW1 2116   2.622   0.602   3.416
  444SOL    HW2 2117   2.618   0.550   3.261
  445SOL     OW 2118   2.835   0.890   3.434
  445SOL    HW1 2119   2.881   0.806   3.405
  445SOL    HW2 2120   2.779   0.924   3.359
  446SOL     OW 2121   2.183   0.943   2.104
  446SOL    HW1 2122   2.265   0.982   2.062
  446SOL    HW2 2123   2.156   0.861   2.055
  447SOL     OW 2124   2.323   1.266   3.589
  447SOL    HW1 2125   2.273   1.267   3.503
  447SOL    HW2 2126   2.260   1.248   3.665
  448SOL     OW 2127   3.262   0.107   2.288
  448SOL    HW1 2128   3.238   0.070   2.198
  448SOL    HW2 2129   3.361   0.123   2.292
  449SOL     OW 2130   2.244   0.700   2.342
  449SOL    HW1 2131   2.289   0.610   2.339
  449SOL    HW2 2132   2.150   0.689   2.375
  450SOL     OW 2133   2.476   0.122   1.979
  450SOL    HW1 2134   2.574   0.100   1.986
  450SOL    HW2 2135   2.445   0.105   1.886
  451SOL     OW 2136   3.213   0.590   3.295
  451SOL    HW1 2137   3.241   0.547   3.380
  451SOL    HW2 2138   3.238   0.686   3.296
  452SOL     OW 2139   2.159   0.035   2.033
  452SOL    HW1 2140   2.208   0.119   2.012
  452SOL    HW2 2141   2.221  -0.030   2.078
  453SOL     OW 2142   2.797   0.236   2.342
  453SOL    HW1 2143   2.749   0.277   2.264
  453SOL    HW2 2144   2.896   0.234   2.323
  454SOL     OW 2145   1.940   0.556   3.248
  454SOL    HW1 2146   2.032   0.555   3.207
  454SOL    HW2 2147   1.934   0.630   3.315
  455SOL     OW 2148   2.926   1.347   3.202
  455SOL    HW1 2149   2.846   1.324   3.257
  455SOL    HW2 2150   3.009   1.321   3.251
  456SOL     OW 2151   2.973   1.195   2.962
  456SOL    HW1 2152   2.933   1.239   3.043
  456SOL    HW2 2153   2.932   1.232   2.879
  457SOL     OW 2154   2.842   1.573   3.562
  457SOL    HW1 2155   2.822   1.617   3.474
  457SOL    HW2 2156   2.881   1.482   3.546
  458SOL     OW 2157   3.721   1.518   3.467
  458SOL    HW1 2158   3.735   1.545   3.372
  458SOL    HW2 2159   3.804   1.540   3.520
  459SOL     OW 2160   2.201   0.509   2.868
  459SOL    HW1 2161   2.149   0.426   2.851
  459SOL    HW2 2162   2.278   0.514   2.804
  460SOL     OW 2163   3.000   0.380   3.540
  460SOL    HW1 2164   2.955   0.443   3.604
  460SOL    HW2 2165   3.093   0.411   3.523
  461SOL     OW 2166   2.051   0.520   3.584
  461SOL    HW1 2167   2.110   0.480   3.514
  461SOL    HW2 2168   1.993   0.591   3.543
  462SOL     OW 2169   2.114   1.564   3.606
  462SOL    HW1 2170   2.084   1.621   3.682
  462SOL    HW2 2171   2.107   1.467   3.632
  463SOL     OW 2172   2.534   1.616   2.016
  463SOL    HW1 2173   2.543   1.626   1.917
  463SOL    HW2 2174   2.494   1.527   2.037
  464SOL     OW 2175   3.512   1.720   3.256
  464SOL    HW1 2176   3.565   1.730   3.172
  464SOL    HW2 2177   3.485   1.810   3.290
  465SOL     OW 2178   3.056   1.612   1.893
  465SOL    HW1 2179   3.062   1.519   1.930
  465SOL    HW2 2180   2.997   1.612   1.813
  466SOL     OW 2181   2.234   1.288   3.352
  466SOL    HW1 2182   2.221   1.381   3.318
  466SOL    HW2 2183   2.150   1.236   3.339
  467SOL     OW 2184   3.045   1.335   1.981
  467SOL    HW1 2185   2.946   1.324   1.983
  467SOL    HW2 2186   3.079   1.350   2.074
  468SOL     OW 2187   3.087   0.325   2.311
  468SOL    HW1 2188   3.152   0.251   2.300
  468SOL    HW2 2189   3.107   0.375   2.395
  469SOL     OW 2190   3.639   0.342   3.504
  469SOL    HW1 2191   3.622   0.373   3.410
  469SOL    HW2 2192   3.555   0.305   3.542
  470SOL     OW 2193   2.083   1.314   3.706
  470SOL    HW1 2194   2.018   1.241   3.685
  470SOL    HW2 2195   2.087   1.328   3.804
  471SOL     OW 2196   2.863   0.034   3.016
  471SOL    HW1 2197   2.800  -0.038   2.985
  471SOL    HW2 2198   2.956  -0.002   3.016
  472SOL     OW 2199   2.632   1.330   2.163
  472SOL    HW1 2200   2.586   1.243   2.180
  472SOL    HW2 2201   2.723   1.327   2.204
  473SOL     OW 2202   2.092   0.628   3.837
  473SOL    HW1 2203   1.999   0.626   3.874
  473SOL    HW2 2204   2.093   0.589   3.745
  474SOL     OW 2205   3.617   0.607   3.955
  474SOL    HW1 2206   3.605   0.594   3.856
  474SOL    HW2 2207   3.587   0.526   4.004
  475SOL     OW 2208   3.322   1.505   5.063
  475SOL    HW1 2209   3.346   1.599   5.089
  475SOL    HW2 2210   3.306   1.451   5.145
  476SOL     OW 2211   2.468   0.964   3.847
  476SOL    HW1 2212   2.475   1.048   3.793
  476SOL    HW2 2213   2.514   0.977   3.935
  477SOL     OW 2214   3.551   0.922   4.336
  477SOL    HW1 2215   3.646   0.893   4.344
  477SOL    HW2 2216   3.543   0.987   4.261
  478SOL     OW 2217   2.475   1.365   4.450
  478SOL    HW1 2218   2.426   1.278   4.459
  478SOL    HW2 2219   2.452   1.408   4.363
  479SOL     OW 2220   2.671   0.004   4.226
  479SOL    HW1 2221   2.711   0.095   4.217
  479SOL    HW2 2222   2.571   0.012   4.232
  480SOL     OW 2223   3.387   0.999   3.914
  480SOL    HW1 2224   3.324   0.923   3.927
  480SOL    HW2 2225   3.435   1.017   4.000
  481SOL     OW 2226   2.412   0.196   4.609
  481SOL    HW1 2227   2.407   0.191   4.709
  481SOL    HW2 2228   2.414   0.292   4.580
  482SOL     OW 2229   2.064   0.285   5.222
  482SOL    HW1 2230   1.984   0.345   5.209
  482SOL    HW2 2231   2.054   0.236   5.308
  483SOL     OW 2232   2.111   1.785   4.965
  483SOL    HW1 2233   2.168   1.720   5.015
  483SOL    HW2 2234   2.095   1.752   4.872
  484SOL     OW 2235   3.089   1.570   4.517
  484SOL    HW1 2236   3.110   1.644   4.452
  484SOL    HW2 2237   3.157   1.570   4.590
  485SOL     OW 2238   2.389   0.256   4.052
  485SOL    HW1 2239   2.416   0.197   3.977
  485SOL    HW2 2240   2.389   0.351   4.021
  486SOL     OW 2241   2.428   0.537   4.589
  486SOL    HW1 2242   2.440   0.603   4.515
  486SOL    HW2 2243   2.474   0.571   4.672
  487SOL     OW 2244   3.721   1.518   5.329
  487SOL    HW1 2245   3.735   1.545   5.234
  487SOL    HW2 2246   3.804   1.540   5.382
  488SOL     OW 2247   2.181   0.810   4.673
  488SOL    HW1 2248   2.274   0.846   4.678
  488SOL    HW2 2249   2.175   0.725   4.725
  489SOL     OW 2250   3.022   0.207   5.201
  489SOL    HW1 2251   3.022   0.271   5.278
  489SOL    HW2 2252   3.050   0.255   5.118
  490SOL     OW 2253   1.950   1.801   4.651
  490SOL    HW1 2254   1.908   1.715   4.624
  490SOL    HW2 2255   2.044   1.804   4.617
  491SOL     OW 2256   3.621   1.747   4.878
  491SOL    HW1 2257   3.682   1.777   4.805
  491SOL    HW2 2258   3.583   1.658   4.856
  492SOL     OW 2259   3.588   0.135   4.247
  492SOL    HW1 2260   3.661   0.118   4.180
  492SOL    HW2 2261   3.557   0.048   4.285
  493SOL     OW 2262   2.534   1.616   3.878
  493SOL    HW1 2263   2.543   1.626   3.779
  493SOL    HW2 2264   2.494   1.527   3.899
  494SOL     OW 2265   3.703   0.175   4.687
  494SOL    HW1 2266   3.742   0.090   4.651
  494SOL    HW2 2267   3.605   0.177   4.668
  495SOL     OW 2268   2.125   0.326   4.444
  495SOL    HW1 2269   2.046   0.377   4.410
  495SOL    HW2 2270   2.116   0.311   4.542
  496SOL     OW 2271   2.778   0.910   4.015
  496SOL    HW1 2272   2.841   0.948   3.947
  496SOL    HW2 2273   2.818   0.827   4.054
  497SOL     OW 2274   2.534   0.203   5.213
  497SOL    HW1 2275   2.624   0.187   5.173
  497SOL    HW2 2276   2.542   0.208   5.312
  498SOL     OW 2277   3.302   0.856   5.122
  498SOL    HW1 2278   3.245   0.908   5.059
  498SOL    HW2 2279   3.398   0.868   5.098
  499SOL     OW 2280   1.934   0.166   4.042
  499SOL    HW1 2281   1.917   0.249   3.988
  499SOL    HW2 2282   2.024   0.129   4.020
  500SOL     OW 2283   2.945   0.984   3.811
  500SOL    HW1 2284   2.922   1.037   3.729
  500SOL    HW2 2285   3.026   0.928   3.792
  501SOL     OW 2286   3.686   0.192   4.951
  501SOL    HW1 2287   3.682   0.102   4.995
  501SOL    HW2 2288   3.689   0.181   4.852
  502SOL     OW 2289   3.162   0.453   4.415
  502SOL    HW1 2290   3.103   0.533   4.419
  502SOL    HW2 2291   3.177   0.418   4.508
  503SOL     OW 2292   1.901   1.077   4.024
  503SOL    HW1 2293   2.000   1.066   4.015
  503SOL    HW2 2294   1.861   0.991   4.056
  504SOL     OW 2295   2.087   2.137   0.996
  504SOL    HW1 2296   2.122   2.120   1.088
  504SOL    HW2 2297   1.999   2.092   0.984
  505SOL     OW 2298   2.093   3.575   0.483
  505SOL    HW1 2299   2.127   3.652   0.537
  505SOL    HW2 2300   2.137   3.575   0.393
  506SOL     OW 2301   2.468   2.826   0.123
  506SOL    HW1 2302   2.475   2.910   0.069
  506SOL    HW2 2303   2.514   2.839   0.211
  507SOL     OW 2304   3.551   2.784   0.612
  507SOL    HW1 2305   3.646   2.755   0.620
  507SOL    HW2 2306   3.543   2.849   0.537
  508SOL     OW 2307   2.671   1.866   0.502
  508SOL    HW1 2308   2.711   1.957   0.493
  508SOL    HW2 2309   2.571   1.874   0.508
  509SOL     OW 2310   2.903   2.563   0.429
  509SOL    HW1 2311   2.929   2.559   0.525
  509SOL    HW2 2312   2.818   2.512   0.415
  510SOL     OW 2313   1.992   3.683   1.571
  510SOL    HW1 2314   1.982   3.668   1.670
  510SOL    HW2 2315   1.906   3.719   1.535
  511SOL     OW 2316   3.657   2.928   0.873
  511SOL    HW1 2317   3.595   2.913   0.797
  511SOL    HW2 2318   3.605   2.939   0.958
  512SOL     OW 2319   3.320   2.597   0.728
  512SOL    HW1 2320   3.315   2.532   0.803
  512SOL    HW2 2321   3.400   2.656   0.741
  513SOL     OW 2322   2.064   2.147   1.498
  513SOL    HW1 2323   1.984   2.207   1.485
  513SOL    HW2 2324   2.054   2.098   1.584
  514SOL     OW 2325   3.133   3.659   0.591
  514SOL    HW1 2326   3.177   3.723   0.527
  514SOL    HW2 2327   3.083   3.711   0.661
  515SOL     OW 2328   2.879   1.901   0.753
  515SOL    HW1 2329   2.807   1.906   0.684
  515SOL    HW2 2330   2.855   1.832   0.822
  516SOL     OW 2331   3.291   3.035   0.867
  516SOL    HW1 2332   3.236   2.951   0.860
  516SOL    HW2 2333   3.317   3.064   0.775
  517SOL     OW 2334   3.134   3.307   1.142
  517SOL    HW1 2335   3.181   3.320   1.229
  517SOL    HW2 2336   3.068   3.233   1.151
  518SOL     OW 2337   2.435   2.732   1.029
  518SOL    HW1 2338   2.479   2.821   1.020
  518SOL    HW2 2339   2.372   2.732   1.106
  519SOL     OW 2340   2.169   2.075   1.231
  519SOL    HW1 2341   2.146   2.112   1.321
  519SOL    HW2 2342   2.139   1.980   1.225
  520SOL     OW 2343   2.169   1.925   0.618
  520SOL    HW1 2344   2.158   2.019   0.651
  520SOL    HW2 2345   2.164   1.862   0.695
  521SOL     OW 2346   2.864   2.658   1.238
  521SOL    HW1 2347   2.905   2.626   1.324
  521SOL    HW2 2348   2.768   2.631   1.235
  522SOL     OW 2349   3.114   3.593   1.128
  522SOL    HW1 2350   3.198   3.598   1.074
  522SOL    HW2 2351   3.091   3.497   1.146
  523SOL     OW 2352   1.945   3.120   1.022
  523SOL    HW1 2353   1.940   3.119   1.122
  523SOL    HW2 2354   1.862   3.079   0.984
  524SOL     OW 2355   2.534   3.478   0.154
  524SOL    HW1 2356   2.543   3.488   0.055
  524SOL    HW2 2357   2.494   3.389   0.175
  525SOL     OW 2358   2.125   2.188   0.720
  525SOL    HW1 2359   2.046   2.239   0.686
  525SOL    HW2 2360   2.116   2.173   0.818
  526SOL     OW 2361   3.056   3.474   0.031
  526SOL    HW1 2362   3.062   3.381   0.068
  526SOL    HW2 2363   2.997   3.474  -0.049
  527SOL     OW 2364   2.901   2.960   0.696
  527SOL    HW1 2365   2.831   2.913   0.750
  527SOL    HW2 2366   2.960   2.892   0.653
  528SOL     OW 2367   3.571   2.247   1.381
  528SOL    HW1 2368   3.644   2.316   1.385
  528SOL    HW2 2369   3.599   2.172   1.322
  529SOL     OW 2370   1.937   2.207   0.033
  529SOL    HW1 2371   1.845   2.179   0.004
  529SOL    HW2 2372   1.968   2.284  -0.023
  530SOL     OW 2373   3.045   3.197   0.119
  530SOL    HW1 2374   2.946   3.186   0.121
  530SOL    HW2 2375   3.079   3.212   0.212
  531SOL     OW 2376   2.252   3.603   1.560
  531SOL    HW1 2377   2.161   3.644   1.558
  531SOL    HW2 2378   2.245   3.509   1.592
  532SOL     OW 2379   2.721   3.236   0.016
  532SOL    HW1 2380   2.675   3.251   0.104
  532SOL    HW2 2381   2.765   3.321  -0.014
  533SOL     OW 2382   2.523   3.652   0.953
  533SOL    HW1 2383   2.477   3.740   0.940
  533SOL    HW2 2384   2.622   3.664   0.946
  534SOL     OW 2385   3.723   3.431   0.851
  534SOL    HW1 2386   3.652   3.419   0.781
  534SOL    HW2 2387   3.724   3.352   0.911
  535SOL     OW 2388   3.686   2.054   1.227
  535SOL    HW1 2389   3.682   1.964   1.271
  535SOL    HW2 2390   3.689   2.043   1.128
  536SOL     OW 2391   3.286   2.076   1.112
  536SOL    HW1 2392   3.338   2.011   1.167
  536SOL    HW2 2393   3.237   2.139   1.173
  537SOL     OW 2394   2.431   3.137   3.027
  537SOL    HW1 2395   2.338   3.130   2.990
  537SOL    HW2 2396   2.442   3.226   3.071
  538SOL     OW 2397   1.992   3.683   3.433
  538SOL    HW1 2398   1.982   3.668   3.532
  538SOL    HW2 2399   1.906   3.719   3.397
  539SOL     OW 2400   2.213   3.663   2.715
  539SOL    HW1 2401   2.263   3.577   2.721
  539SOL    HW2 2402   2.278   3.740   2.712
  540SOL     OW 2403   3.484   2.229   2.236
  540SOL    HW1 2404   3.486   2.153   2.300
  540SOL    HW2 2405   3.436   2.306   2.276
  541SOL     OW 2406   2.114   3.426   3.606
  541SOL    HW1 2407   2.084   3.483   3.682
  541SOL    HW2 2408   2.107   3.329   3.632
  542SOL     OW 2409   1.937   2.207   1.895
  542SOL    HW1 2410   1.845   2.179   1.866
  542SOL    HW2 2411   1.968   2.284   1.839
  543SOL     OW 2412   1.901   2.939   2.162
  543SOL    HW1 2413   2.000   2.928   2.153
  543SOL    HW2 2414   1.861   2.853   2.194
  544SOL     OW 2415   3.465   2.309   4.461
  544SOL    HW1 2416   3.391   2.355   4.411
  544SOL    HW2 2417   3.516   2.377   4.514
  545SOL     OW 2418   3.049   3.654   5.340
  545SOL    HW1 2419   3.073   3.714   5.264
  545SOL    HW2 2420   3.056   3.559   5.310
  546SOL     OW 2421   2.853   2.272   4.966
  546SOL    HW1 2422   2.776   2.306   5.020
  546SOL    HW2 2423   2.819   2.221   4.887
  547SOL     OW 2424   2.973   3.638   3.961
  547SOL    HW1 2425   2.913   3.576   4.011
  547SOL    HW2 2426   3.004   3.594   3.876
  548SOL     OW 2427   2.802   3.560   4.628
  548SOL    HW1 2428   2.882   3.503   4.649
  548SOL    HW2 2429   2.753   3.520   4.551
  549SOL     OW 2430   2.750   3.376   4.919
  549SOL    HW1 2431   2.727   3.351   4.825
  549SOL    HW2 2432   2.811   3.307   4.958
  550SOL     OW 2433   3.213   2.452   5.157
  550SOL    HW1 2434   3.241   2.409   5.242
  550SOL    HW2 2435   3.238   2.548   5.158
  551SOL     OW 2436   2.665   3.264   4.648
  551SOL    HW1 2437   2.755   3.278   4.606
  551SOL    HW2 2438   2.594   3.266   4.577
  552SOL     OW 2439   2.401   1.926   4.236
  552SOL    HW1 2440   2.320   1.927   4.294
  552SOL    HW2 2441   2.404   2.009   4.181
  553SOL     OW 2442   2.159   1.897   3.895
  553SOL    HW1 2443   2.208   1.981   3.874
  553SOL    HW2 2444   2.221   1.832   3.940
  554SOL     OW 2445   3.133   3.659   4.315
  554SOL    HW1 2446   3.177   3.723   4.251
  554SOL    HW2 2447   3.083   3.711   4.385
  555SOL     OW 2448   1.940   2.418   5.110
  555SOL    HW1 2449   2.032   2.417   5.069
  555SOL    HW2 2450   1.934   2.492   5.177
  556SOL     OW 2451   3.328   2.452   4.716
  556SOL    HW1 2452   3.298   2.357   4.723
  556SOL    HW2 2453   3.401   2.468   4.782
  557SOL     OW 2454   2.926   3.209   5.064
  557SOL    HW1 2455   2.846   3.186   5.119
  557SOL    HW2 2456   3.009   3.183   5.113
  558SOL     OW 2457   3.222   2.724   4.769
  558SOL    HW1 2458   3.147   2.724   4.703
  558SOL    HW2 2459   3.259   2.632   4.778
  559SOL     OW 2460   3.402   2.136   3.849
  559SOL    HW1 2461   3.341   2.061   3.872
  559SOL    HW2 2462   3.424   2.188   3.932
  560SOL     OW 2463   1.950   3.663   4.651
  560SOL    HW1 2464   1.908   3.577   4.624
  560SOL    HW2 2465   2.044   3.666   4.617
  561SOL     OW 2466   2.366   3.430   4.634
  561SOL    HW1 2467   2.432   3.504   4.643
  561SOL    HW2 2468   2.410   3.351   4.592
  562SOL     OW 2469   3.519   2.466   4.930
  562SOL    HW1 2470   3.481   2.397   4.992
  562SOL    HW2 2471   3.601   2.430   4.886
  563SOL     OW 2472   2.021   2.999   5.190
  563SOL    HW1 2473   2.043   2.938   5.266
  563SOL    HW2 2474   2.031   2.950   5.104
  564SOL     OW 2475   3.114   3.593   4.852
  564SOL    HW1 2476   3.198   3.598   4.798
  564SOL    HW2 2477   3.091   3.497   4.870
  565SOL     OW 2478   3.250   3.435   4.201
  565SOL    HW1 2479   3.317   3.447   4.127
  565SOL    HW2 2480   3.210   3.524   4.224
  566SOL     OW 2481   2.692   3.135   5.146
  566SOL    HW1 2482   2.687   3.168   5.241
  566SOL    HW2 2483   2.606   3.154   5.100
  567SOL     OW 2484   2.125   2.188   4.444
  567SOL    HW1 2485   2.046   2.239   4.410
  567SOL    HW2 2486   2.116   2.173   4.542
  568SOL     OW 2487   2.876   2.098   4.695
  568SOL    HW1 2488   2.868   2.062   4.602
  568SOL    HW2 2489   2.874   2.022   4.760
  569SOL     OW 2490   1.967   2.875   5.450
  569SOL    HW1 2491   1.890   2.842   5.504
  569SOL    HW2 2492   2.052   2.845   5.492
  570SOL     OW 2493   2.534   2.065   5.213
  570SOL    HW1 2494   2.624   2.049   5.173
  570SOL    HW2 2495   2.542   2.070   5.312
  571SOL     OW 2496   2.578   2.427   5.432
  571SOL    HW1 2497   2.597   2.492   5.506
  571SOL    HW2 2498   2.638   2.347   5.441
  572SOL     OW 2499   3.686   2.054   4.951
  572SOL    HW1 2500   3.682   1.964   4.995
  572SOL    HW2 2501   3.689   2.043   4.852
  573SOL     OW 2502   2.179   2.409   5.004
  573SOL    HW1 2503   2.217   2.350   5.076
  573SOL    HW2 2504   2.219   2.383   4.916
  574SOL     OW 2505   3.286   2.076   4.836
  574SOL    HW1 2506   3.338   2.011   4.891
  574SOL    HW2 2507   3.237   2.139   4.897
  575SOL     OW 2508   2.863   1.896   4.878
  575SOL    HW1 2509   2.800   1.824   4.847
  575SOL    HW2 2510   2.956   1.860   4.878
  576SOL     OW 2511   2.431   4.999   1.165
  576SOL    HW1 2512   2.338   4.992   1.128
  576SOL    HW2 2513   2.442   5.088   1.209
  577SOL     OW 2514   3.617   4.331   0.231
  577SOL    HW1 2515   3.605   4.318   0.132
  577SOL    HW2 2516   3.587   4.250   0.280
  578SOL     OW 2517   2.712   4.522   1.823
  578SOL    HW1 2518   2.708   4.598   1.888
  578SOL    HW2 2519   2.734   4.558   1.732
  579SOL     OW 2520   2.548   4.885   1.803
  579SOL    HW1 2521   2.608   4.964   1.817
  579SOL    HW2 2522   2.462   4.916   1.762
  580SOL     OW 2523   3.322   5.229   1.339
  580SOL    HW1 2524   3.346   5.323   1.365
  580SOL    HW2 2525   3.306   5.175   1.421
  581SOL     OW 2526   3.465   4.171   0.737
  581SOL    HW1 2527   3.391   4.217   0.687
  581SOL    HW2 2528   3.516   4.239   0.790
  582SOL     OW 2529   2.468   4.688   0.123
  582SOL    HW1 2530   2.475   4.772   0.069
  582SOL    HW2 2531   2.514   4.701   0.211
  583SOL     OW 2532   3.456   3.838   1.480
  583SOL    HW1 2533   3.438   3.905   1.408
  583SOL    HW2 2534   3.453   3.884   1.569
  584SOL     OW 2535   3.551   4.646   0.612
  584SOL    HW1 2536   3.646   4.617   0.620
  584SOL    HW2 2537   3.543   4.711   0.537
  585SOL     OW 2538   1.975   4.461   1.597
  585SOL    HW1 2539   2.063   4.448   1.642
  585SOL    HW2 2540   1.962   4.558   1.575
  586SOL     OW 2541   2.475   5.089   0.726
  586SOL    HW1 2542   2.426   5.002   0.735
  586SOL    HW2 2543   2.452   5.132   0.639
  587SOL     OW 2544   2.671   3.728   0.502
  587SOL    HW1 2545   2.711   3.819   0.493
  587SOL    HW2 2546   2.571   3.736   0.508
  588SOL     OW 2547   3.049   5.516   1.616
  588SOL    HW1 2548   3.073   5.576   1.540
  588SOL    HW2 2549   3.056   5.421   1.586
  589SOL     OW 2550   3.328   5.141   0.953
  589SOL    HW1 2551   3.269   5.147   1.033
  589SOL    HW2 2552   3.313   5.053   0.907
  590SOL     OW 2553   1.938   4.535   0.789
  590SOL    HW1 2554   2.037   4.523   0.798
  590SOL    HW2 2555   1.914   4.630   0.810
  591SOL     OW 2556   1.992   5.545   1.571
  591SOL    HW1 2557   1.982   5.530   1.670
  591SOL    HW2 2558   1.906   5.581   1.535
  592SOL     OW 2559   2.727   4.072   0.195
  592SOL    HW1 2560   2.786   4.135   0.146
  592SOL    HW2 2561   2.746   3.978   0.166
  593SOL     OW 2562   3.089   5.274   1.506
  593SOL    HW1 2563   3.095   5.197   1.570
  593SOL    HW2 2564   3.037   5.248   1.426
  594SOL     OW 2565   2.183   4.667   0.242
  594SOL    HW1 2566   2.265   4.706   0.200
  594SOL    HW2 2567   2.156   4.585   0.193
  595SOL     OW 2568   2.064   4.009   1.498
  595SOL    HW1 2569   1.984   4.069   1.485
  595SOL    HW2 2570   2.054   3.960   1.584
  596SOL     OW 2571   2.476   3.846   0.117
  596SOL    HW1 2572   2.574   3.824   0.124
  596SOL    HW2 2573   2.445   3.829   0.024
  597SOL     OW 2574   2.665   5.126   0.924
  597SOL    HW1 2575   2.755   5.140   0.882
  597SOL    HW2 2576   2.594   5.128   0.853
  598SOL     OW 2577   3.296   4.912   0.041
  598SOL    HW1 2578   3.328   4.836   0.098
  598SOL    HW2 2579   3.204   4.939   0.071
  599SOL     OW 2580   2.159   3.759   0.171
  599SOL    HW1 2581   2.208   3.843   0.150
  599SOL    HW2 2582   2.221   3.694   0.216
  600SOL     OW 2583   2.797   3.960   0.480
  600SOL    HW1 2584   2.749   4.001   0.402
  600SOL    HW2 2585   2.896   3.958   0.461
  601SOL     OW 2586   2.938   4.407   1.464
  601SOL    HW1 2587   2.858   4.346   1.467
  601SOL    HW2 2588   3.019   4.354   1.440
  602SOL     OW 2589   2.423   3.946   1.147
  602SOL    HW1 2590   2.461   3.862   1.184
  602SOL    HW2 2591   2.335   3.965   1.191
  603SOL     OW 2592   2.350   5.109   0.174
  603SOL    HW1 2593   2.263   5.094   0.221
  603SOL    HW2 2594   2.333   5.135   0.079
  604SOL     OW 2595   3.616   4.947   1.588
  604SOL    HW1 2596   3.707   4.908   1.575
  604SOL    HW2 2597   3.624   5.043   1.612
  605SOL     OW 2598   2.926   5.071   1.340
  605SOL    HW1 2599   2.846   5.048   1.395
  605SOL    HW2 2600   3.009   5.045   1.389
  606SOL     OW 2601   2.885   4.490   0.966
  606SOL    HW1 2602   2.900   4.511   1.062
  606SOL    HW2 2603   2.855   4.395   0.957
  607SOL     OW 2604   2.212   4.622   1.804
  607SOL    HW1 2605   2.288   4.666   1.852
  607SOL    HW2 2606   2.247   4.575   1.722
  608SOL     OW 2607   3.165   4.562   0.042
  608SOL    HW1 2608   3.199   4.469   0.057
  608SOL    HW2 2609   3.183   4.589  -0.053
  609SOL     OW 2610   1.870   5.050   0.200
  609SOL    HW1 2611   1.777   5.071   0.169
  609SOL    HW2 2612   1.880   4.951   0.213
  610SOL     OW 2613   1.902   4.268   1.114
  610SOL    HW1 2614   1.987   4.235   1.073
  610SOL    HW2 2615   1.915   4.283   1.212
  611SOL     OW 2616   2.051   4.244   1.722
  611SOL    HW1 2617   2.110   4.204   1.652
  611SOL    HW2 2618   1.993   4.315   1.681
  612SOL     OW 2619   2.114   5.288   1.744
  612SOL    HW1 2620   2.084   5.345   1.820
  612SOL    HW2 2621   2.107   5.191   1.770
  613SOL     OW 2622   3.209   4.783   1.234
  613SOL    HW1 2623   3.233   4.720   1.160
  613SOL    HW2 2624   3.119   4.823   1.216
  614SOL     OW 2625   3.621   5.471   1.154
  614SOL    HW1 2626   3.682   5.501   1.081
  614SOL    HW2 2627   3.583   5.382   1.132
  615SOL     OW 2628   3.114   5.455   1.128
  615SOL    HW1 2629   3.198   5.460   1.074
  615SOL    HW2 2630   3.091   5.359   1.146
  616SOL     OW 2631   2.234   5.012   1.490
  616SOL    HW1 2632   2.221   5.105   1.456
  616SOL    HW2 2633   2.150   4.960   1.477
  617SOL     OW 2634   3.476   5.016   1.289
  617SOL    HW1 2635   3.536   5.019   1.369
  617SOL    HW2 2636   3.401   5.080   1.302
  618SOL     OW 2637   3.045   5.059   0.119
  618SOL    HW1 2638   2.946   5.048   0.121
  618SOL    HW2 2639   3.079   5.074   0.212
  619SOL     OW 2640   2.721   4.680   0.861
  619SOL    HW1 2641   2.775   4.611   0.909
  619SOL    HW2 2642   2.689   4.749   0.927
  620SOL     OW 2643   2.083   5.038   1.844
  620SOL    HW1 2644   2.018   4.965   1.823
  620SOL    HW2 2645   2.087   5.052   1.942
  621SOL     OW 2646   3.567   5.211   1.104
  621SOL    HW1 2647   3.474   5.186   1.077
  621SOL    HW2 2648   3.593   5.161   1.186
  622SOL     OW 2649   3.617   4.331   2.093
  622SOL    HW1 2650   3.605   4.318   1.994
  622SOL    HW2 2651   3.587   4.250   2.142
  623SOL     OW 2652   2.630   4.868   2.885
  623SOL    HW1 2653   2.552   4.885   2.945
  623SOL    HW2 2654   2.664   4.955   2.849
  624SOL     OW 2655   3.465   4.171   2.599
  624SOL    HW1 2656   3.391   4.217   2.549
  624SOL    HW2 2657   3.516   4.239   2.652
  625SOL     OW 2658   1.975   4.461   3.459
  625SOL    HW1 2659   2.063   4.448   3.504
  625SOL    HW2 2660   1.962   4.558   3.437
  626SOL     OW 2661   3.143   4.069   2.806
  626SOL    HW1 2662   3.057   4.019   2.793
  626SOL    HW2 2663   3.205   4.015   2.862
  627SOL     OW 2664   2.853   4.134   3.104
  627SOL    HW1 2665   2.776   4.168   3.158
  627SOL    HW2 2666   2.819   4.083   3.025
  628SOL     OW 2667   1.938   4.535   2.651
  628SOL    HW1 2668   2.037   4.523   2.660
  628SOL    HW2 2669   1.914   4.630   2.672
  629SOL     OW 2670   2.412   3.920   2.747
  629SOL    HW1 2671   2.407   3.915   2.847
  629SOL    HW2 2672   2.414   4.016   2.718
  630SOL     OW 2673   3.657   4.790   2.735
  630SOL    HW1 2674   3.595   4.775   2.659
  630SOL    HW2 2675   3.605   4.801   2.820
  631SOL     OW 2676   3.089   5.274   3.368
  631SOL    HW1 2677   3.095   5.197   3.432
  631SOL    HW2 2678   3.037   5.248   3.288
  632SOL     OW 2679   3.320   4.459   2.590
  632SOL    HW1 2680   3.315   4.394   2.665
  632SOL    HW2 2681   3.400   4.518   2.603
  633SOL     OW 2682   2.476   3.846   1.979
  633SOL    HW1 2683   2.574   3.824   1.986
  633SOL    HW2 2684   2.445   3.829   1.886
  634SOL     OW 2685   2.321   4.876   2.603
  634SOL    HW1 2686   2.250   4.849   2.668
  634SOL    HW2 2687   2.295   4.848   2.510
  635SOL     OW 2688   2.350   5.109   2.036
  635SOL    HW1 2689   2.263   5.094   2.083
  635SOL    HW2 2690   2.333   5.135   1.941
  636SOL     OW 2691   3.500   4.823   2.941
  636SOL    HW1 2692   3.505   4.904   3.000
  636SOL    HW2 2693   3.414   4.825   2.890
  637SOL     OW 2694   2.229   4.824   2.363
  637SOL    HW1 2695   2.222   4.907   2.307
  637SOL    HW2 2696   2.233   4.744   2.303
  638SOL     OW 2697   2.428   4.261   2.727
  638SOL    HW1 2698   2.440   4.327   2.653
  638SOL    HW2 2699   2.474   4.295   2.810
  639SOL     OW 2700   3.114   5.072   2.250
  639SOL    HW1 2701   3.164   5.149   2.290
  639SOL    HW2 2702   3.019   5.074   2.282
  640SOL     OW 2703   3.134   5.169   3.004
  640SOL    HW1 2704   3.181   5.182   3.091
  640SOL    HW2 2705   3.068   5.095   3.013
  641SOL     OW 2706   2.264   4.475   3.460
  641SOL    HW1 2707   2.332   4.530   3.413
  641SOL    HW2 2708   2.304   4.387   3.487
  642SOL     OW 2709   3.449   4.503   3.532
  642SOL    HW1 2710   3.357   4.541   3.527
  642SOL    HW2 2711   3.509   4.550   3.467
  643SOL     OW 2712   3.222   4.586   2.907
  643SOL    HW1 2713   3.147   4.586   2.841
  643SOL    HW2 2714   3.259   4.494   2.916
  644SOL     OW 2715   3.590   4.659   3.716
  644SOL    HW1 2716   3.544   4.652   3.627
  644SOL    HW2 2717   3.528   4.703   3.782
  645SOL     OW 2718   3.721   5.242   3.467
  645SOL    HW1 2719   3.735   5.269   3.372
  645SOL    HW2 2720   3.804   5.264   3.520
  646SOL     OW 2721   3.000   4.104   3.540
  646SOL    HW1 2722   2.955   4.167   3.604
  646SOL    HW2 2723   3.093   4.135   3.523
  647SOL     OW 2724   1.870   5.050   2.062
  647SOL    HW1 2725   1.777   5.071   2.031
  647SOL    HW2 2726   1.880   4.951   2.075
  648SOL     OW 2727   2.051   4.244   3.584
  648SOL    HW1 2728   2.110   4.204   3.514
  648SOL    HW2 2729   1.993   4.315   3.543
  649SOL     OW 2730   3.703   3.899   2.825
  649SOL    HW1 2731   3.742   3.814   2.789
  649SOL    HW2 2732   3.605   3.901   2.806
  650SOL     OW 2733   2.125   4.050   2.582
  650SOL    HW1 2734   2.046   4.101   2.548
  650SOL    HW2 2735   2.116   4.035   2.680
  651SOL     OW 2736   3.476   5.016   3.151
  651SOL    HW1 2737   3.536   5.019   3.231
  651SOL    HW2 2738   3.401   5.080   3.164
  652SOL     OW 2739   2.452   5.211   2.353
  652SOL    HW1 2740   2.494   5.153   2.283
  652SOL    HW2 2741   2.408   5.290   2.309
  653SOL     OW 2742   3.571   4.109   3.243
  653SOL    HW1 2743   3.644   4.178   3.247
  653SOL    HW2 2744   3.599   4.034   3.184
  654SOL     OW 2745   2.117   5.072   2.152
  654SOL    HW1 2746   2.021   5.073   2.125
  654SOL    HW2 2747   2.129   5.125   2.236
  655SOL     OW 2748   2.534   3.927   3.351
  655SOL    HW1 2749   2.624   3.911   3.311
  655SOL    HW2 2750   2.542   3.932   3.450
  656SOL     OW 2751   2.475   4.566   3.293
  656SOL    HW1 2752   2.531   4.647   3.276
  656SOL    HW2 2753   2.534   4.486   3.296
  657SOL     OW 2754   2.721   4.680   2.723
  657SOL    HW1 2755   2.775   4.611   2.771
  657SOL    HW2 2756   2.689   4.749   2.789
  658SOL     OW 2757   2.945   4.708   1.949
  658SOL    HW1 2758   2.922   4.761   1.867
  658SOL    HW2 2759   3.026   4.652   1.930
  659SOL     OW 2760   2.197   5.159   4.785
  659SOL    HW1 2761   2.119   5.128   4.732
  659SOL    HW2 2762   2.255   5.217   4.728
  660SOL     OW 2763   2.092   5.158   4.262
  660SOL    HW1 2764   2.066   5.254   4.262
  660SOL    HW2 2765   2.021   5.104   4.307
  661SOL     OW 2766   1.984   4.367   4.287
  661SOL    HW1 2767   1.939   4.279   4.304
  661SOL    HW2 2768   1.983   4.421   4.371
  662SOL     OW 2769   3.155   4.952   5.147
  662SOL    HW1 2770   3.192   4.879   5.089
  662SOL    HW2 2771   3.207   4.957   5.232
  663SOL     OW 2772   3.049   5.516   5.340
  663SOL    HW1 2773   3.073   5.576   5.264
  663SOL    HW2 2774   3.056   5.421   5.310
  664SOL     OW 2775   2.460   4.453   3.994
  664SOL    HW1 2776   2.484   4.522   3.926
  664SOL    HW2 2777   2.382   4.486   4.048
  665SOL     OW 2778   2.853   4.134   4.966
  665SOL    HW1 2779   2.776   4.168   5.020
  665SOL    HW2 2780   2.819   4.083   4.887
  666SOL     OW 2781   2.903   4.425   4.153
  666SOL    HW1 2782   2.929   4.421   4.249
  666SOL    HW2 2783   2.818   4.374   4.139
  667SOL     OW 2784   1.992   5.545   5.295
  667SOL    HW1 2785   1.982   5.530   5.394
  667SOL    HW2 2786   1.906   5.581   5.259
  668SOL     OW 2787   2.870   5.180   4.201
  668SOL    HW1 2788   2.824   5.252   4.149
  668SOL    HW2 2789   2.866   5.200   4.299
  669SOL     OW 2790   3.262   3.831   4.150
  669SOL    HW1 2791   3.238   3.794   4.060
  669SOL    HW2 2792   3.361   3.847   4.154
  670SOL     OW 2793   2.244   4.424   4.204
  670SOL    HW1 2794   2.289   4.334   4.201
  670SOL    HW2 2795   2.150   4.413   4.237
  671SOL     OW 2796   2.476   3.846   3.841
  671SOL    HW1 2797   2.574   3.824   3.848
  671SOL    HW2 2798   2.445   3.829   3.748
  672SOL     OW 2799   3.296   4.912   3.765
  672SOL    HW1 2800   3.328   4.836   3.822
  672SOL    HW2 2801   3.204   4.939   3.795
  673SOL     OW 2802   2.797   3.960   4.204
  673SOL    HW1 2803   2.749   4.001   4.126
  673SOL    HW2 2804   2.896   3.958   4.185
  674SOL     OW 2805   3.089   5.294   4.517
  674SOL    HW1 2806   3.110   5.368   4.452
  674SOL    HW2 2807   3.157   5.294   4.590
  675SOL     OW 2808   2.894   4.273   3.740
  675SOL    HW1 2809   2.853   4.355   3.701
  675SOL    HW2 2810   2.958   4.299   3.813
  676SOL     OW 2811   3.328   4.314   4.716
  676SOL    HW1 2812   3.298   4.219   4.723
  676SOL    HW2 2813   3.401   4.330   4.782
  677SOL     OW 2814   2.389   3.980   4.052
  677SOL    HW1 2815   2.416   3.921   3.977
  677SOL    HW2 2816   2.389   4.075   4.021
  678SOL     OW 2817   2.926   5.071   5.064
  678SOL    HW1 2818   2.846   5.048   5.119
  678SOL    HW2 2819   3.009   5.045   5.113
  679SOL     OW 2820   2.229   4.824   4.225
  679SOL    HW1 2821   2.222   4.907   4.169
  679SOL    HW2 2822   2.233   4.744   4.165
  680SOL     OW 2823   3.134   5.169   4.866
  680SOL    HW1 2824   3.181   5.182   4.953
  680SOL    HW2 2825   3.068   5.095   4.875
  681SOL     OW 2826   3.222   4.586   4.769
  681SOL    HW1 2827   3.147   4.586   4.703
  681SOL    HW2 2828   3.259   4.494   4.778
  682SOL     OW 2829   3.721   5.242   5.329
  682SOL    HW1 2830   3.735   5.269   5.234
  682SOL    HW2 2831   3.804   5.264   5.382
  683SOL     OW 2832   3.402   3.998   3.849
  683SOL    HW1 2833   3.341   3.923   3.872
  683SOL    HW2 2834   3.424   4.050   3.932
  684SOL     OW 2835   3.022   3.931   5.201
  684SOL    HW1 2836   3.022   3.995   5.278
  684SOL    HW2 2837   3.050   3.979   5.118
  685SOL     OW 2838   2.864   4.520   4.962
  685SOL    HW1 2839   2.905   4.488   5.048
  685SOL    HW2 2840   2.768   4.493   4.959
  686SOL     OW 2841   2.677   4.296   4.049
  686SOL    HW1 2842   2.684   4.207   4.003
  686SOL    HW2 2843   2.583   4.330   4.041
  687SOL     OW 2844   2.021   4.861   5.190
  687SOL    HW1 2845   2.043   4.800   5.266
  687SOL    HW2 2846   2.031   4.812   5.104
  688SOL     OW 2847   2.534   5.340   3.878
  688SOL    HW1 2848   2.543   5.350   3.779
  688SOL    HW2 2849   2.494   5.251   3.899
  689SOL     OW 2850   2.901   4.822   4.420
  689SOL    HW1 2851   2.831   4.775   4.474
  689SOL    HW2 2852   2.960   4.754   4.377
  690SOL     OW 2853   2.534   3.927   5.213
  690SOL    HW1 2854   2.624   3.911   5.173
  690SOL    HW2 2855   2.542   3.932   5.312
  691SOL     OW 2856   1.937   4.069   3.757
  691SOL    HW1 2857   1.845   4.041   3.728
  691SOL    HW2 2858   1.968   4.146   3.701
  692SOL     OW 2859   3.592   4.658   5.241
  692SOL    HW1 2860   3.630   4.749   5.256
  692SOL    HW2 2861   3.584   4.641   5.142
  693SOL     OW 2862   2.721   4.680   4.585
  693SOL    HW1 2863   2.775   4.611   4.633
  693SOL    HW2 2864   2.689   4.749   4.651
  694SOL     OW 2865   3.723   5.293   4.575
  694SOL    HW1 2866   3.652   5.281   4.505
  694SOL    HW2 2867   3.724   5.214   4.635
  695SOL     OW 2868   3.286   3.938   4.836
  695SOL    HW1 2869   3.338   3.873   4.891
  695SOL    HW2 2870   3.237   4.001   4.897
  696SOL     OW 2871   1.901   4.801   4.024
  696SOL    HW1 2872   2.000   4.790   4.015
  696SOL    HW2 2873   1.861   4.715   4.056
  697SOL     OW 2874   4.574   0.798   1.823
  697SOL    HW1 2875   4.570   0.874   1.888
  697SOL    HW2 2876   4.596   0.834   1.732
  698SOL     OW 2877   5.184   1.505   1.339
  698SOL    HW1 2878   5.208   1.599   1.365
  698SOL    HW2 2879   5.168   1.451   1.421
  699SOL     OW 2880   3.955   1.713   0.483
  699SOL    HW1 2881   3.989   1.790   0.537
  699SOL    HW2 2882   3.999   1.713   0.393
  700SOL     OW 2883   3.846   0.643   0.563
  700SOL    HW1 2884   3.801   0.555   0.580
  700SOL    HW2 2885   3.845   0.697   0.647
  701SOL     OW 2886   4.337   1.365   0.726
  701SOL    HW1 2887   4.288   1.278   0.735
  701SOL    HW2 2888   4.314   1.408   0.639
  702SOL     OW 2889   5.017   1.228   1.423
  702SOL    HW1 2890   5.054   1.155   1.365
  702SOL    HW2 2891   5.069   1.233   1.508
  703SOL     OW 2892   3.921   0.976   1.264
  703SOL    HW1 2893   4.010   0.931   1.250
  703SOL    HW2 2894   3.848   0.911   1.245
  704SOL     OW 2895   5.391   1.714   0.572
  704SOL    HW1 2896   5.350   1.691   0.484
  704SOL    HW2 2897   5.373   1.640   0.637
  705SOL     OW 2898   4.715   0.410   1.242
  705SOL    HW1 2899   4.638   0.444   1.296
  705SOL    HW2 2900   4.681   0.359   1.163
  706SOL     OW 2901   5.443   0.585   1.831
  706SOL    HW1 2902   5.417   0.674   1.795
  706SOL    HW2 2903   5.441   0.517   1.758
  707SOL     OW 2904   4.732   1.456   0.477
  707SOL    HW1 2905   4.686   1.528   0.425
  707SOL    HW2 2906   4.728   1.476   0.575
  708SOL     OW 2907   4.188   1.743   0.323
  708SOL    HW1 2908   4.221   1.782   0.409
  708SOL    HW2 2909   4.264   1.736   0.258
  709SOL     OW 2910   3.973   1.785   1.241
  709SOL    HW1 2911   4.030   1.720   1.291
  709SOL    HW2 2912   3.957   1.752   1.148
  710SOL     OW 2913   4.338   0.122   0.117
  710SOL    HW1 2914   4.436   0.100   0.124
  710SOL    HW2 2915   4.307   0.105   0.024
  711SOL     OW 2916   5.075   0.590   1.433
  711SOL    HW1 2917   5.103   0.547   1.518
  711SOL    HW2 2918   5.100   0.686   1.434
  712SOL     OW 2919   4.646   0.503   0.899
  712SOL    HW1 2920   4.621   0.494   0.803
  712SOL    HW2 2921   4.694   0.421   0.930
  713SOL     OW 2922   4.951   1.570   0.793
  713SOL    HW1 2923   4.972   1.644   0.728
  713SOL    HW2 2924   5.019   1.570   0.866
  714SOL     OW 2925   4.285   0.222   1.147
  714SOL    HW1 2926   4.323   0.138   1.184
  714SOL    HW2 2927   4.197   0.241   1.191
  715SOL     OW 2928   5.153   1.173   0.867
  715SOL    HW1 2929   5.098   1.089   0.860
  715SOL    HW2 2930   5.179   1.202   0.775
  716SOL     OW 2931   5.581   0.833   0.377
  716SOL    HW1 2932   5.623   0.769   0.441
  716SOL    HW2 2933   5.543   0.782   0.299
  717SOL     OW 2934   4.251   0.256   0.328
  717SOL    HW1 2935   4.278   0.197   0.253
  717SOL    HW2 2936   4.251   0.351   0.297
  718SOL     OW 2937   4.429   1.050   0.368
  718SOL    HW1 2938   4.415   1.057   0.467
  718SOL    HW2 2939   4.513   0.999   0.350
  719SOL     OW 2940   4.091   1.100   0.501
  719SOL    HW1 2941   4.084   1.183   0.445
  719SOL    HW2 2942   4.095   1.020   0.441
  720SOL     OW 2943   4.078   1.510   1.329
  720SOL    HW1 2944   4.057   1.466   1.242
  720SOL    HW2 2945   4.175   1.536   1.332
  721SOL     OW 2946   4.884   0.207   1.477
  721SOL    HW1 2947   4.884   0.271   1.554
  721SOL    HW2 2948   4.912   0.255   1.394
  722SOL     OW 2949   4.197   0.500   0.191
  722SOL    HW1 2950   4.258   0.580   0.195
  722SOL    HW2 2951   4.102   0.531   0.198
  723SOL     OW 2952   5.112   1.573   0.477
  723SOL    HW1 2953   5.179   1.585   0.403
  723SOL    HW2 2954   5.072   1.662   0.500
  724SOL     OW 2955   3.854   1.794   1.851
  724SOL    HW1 2956   3.813   1.720   1.904
  724SOL    HW2 2957   3.918   1.845   1.909
  725SOL     OW 2958   4.314   1.487   0.491
  725SOL    HW1 2959   4.356   1.429   0.421
  725SOL    HW2 2960   4.270   1.566   0.447
  726SOL     OW 2961   3.829   1.013   1.726
  726SOL    HW1 2962   3.752   0.980   1.780
  726SOL    HW2 2963   3.914   0.983   1.768
  727SOL     OW 2964   5.174   1.220   1.633
  727SOL    HW1 2965   5.165   1.210   1.732
  727SOL    HW2 2966   5.270   1.213   1.607
  728SOL     OW 2967   4.949   0.325   0.449
  728SOL    HW1 2968   5.014   0.251   0.438
  728SOL    HW2 2969   4.969   0.375   0.533
  729SOL     OW 2970   4.318   0.745   0.652
  729SOL    HW1 2971   4.368   0.830   0.633
  729SOL    HW2 2972   4.230   0.747   0.604
  730SOL     OW 2973   5.454   0.934   1.517
  730SOL    HW1 2974   5.492   1.025   1.532
  730SOL    HW2 2975   5.446   0.917   1.418
  731SOL     OW 2976   4.396   1.391   1.624
  731SOL    HW1 2977   4.318   1.341   1.662
  731SOL    HW2 2978   4.393   1.486   1.655
  732SOL     OW 2979   4.725   0.034   1.154
  732SOL    HW1 2980   4.662  -0.038   1.123
  732SOL    HW2 2981   4.818  -0.002   1.154
  733SOL     OW 2982   3.763   1.077   0.300
  733SOL    HW1 2983   3.862   1.066   0.291
  733SOL    HW2 2984   3.723   0.991   0.332
  734SOL     OW 2985   3.949   0.275   2.858
  734SOL    HW1 2986   3.984   0.258   2.950
  734SOL    HW2 2987   3.861   0.230   2.846
  735SOL     OW 2988   5.479   0.607   2.093
  735SOL    HW1 2989   5.467   0.594   1.994
  735SOL    HW2 2990   5.449   0.526   2.142
  736SOL     OW 2991   5.184   1.505   3.201
  736SOL    HW1 2992   5.208   1.599   3.227
  736SOL    HW2 2993   5.168   1.451   3.283
  737SOL     OW 2994   3.954   1.434   2.400
  737SOL    HW1 2995   3.928   1.530   2.400
  737SOL    HW2 2996   3.883   1.380   2.445
  738SOL     OW 2997   3.964   1.091   2.748
  738SOL    HW1 2998   3.978   1.007   2.800
  738SOL    HW2 2999   3.909   1.155   2.803
  739SOL     OW 3000   3.846   0.643   2.425
  739SOL    HW1 3001   3.801   0.555   2.442
  739SOL    HW2 3002   3.845   0.697   2.509
  740SOL     OW 3003   3.751   1.596   1.979
  740SOL    HW1 3004   3.732   1.500   2.000
  740SOL    HW2 3005   3.718   1.654   2.054
  741SOL     OW 3006   4.531   0.605   3.327
  741SOL    HW1 3007   4.484   0.602   3.416
  741SOL    HW2 3008   4.480   0.550   3.261
  742SOL     OW 3009   4.188   1.743   2.185
  742SOL    HW1 3010   4.221   1.782   2.271
  742SOL    HW2 3011   4.264   1.736   2.120
  743SOL     OW 3012   4.612   1.514   3.057
  743SOL    HW1 3013   4.589   1.489   2.963
  743SOL    HW2 3014   4.673   1.445   3.096
  744SOL     OW 3015   4.646   0.503   2.761
  744SOL    HW1 3016   4.621   0.494   2.665
  744SOL    HW2 3017   4.694   0.421   2.792
  745SOL     OW 3018   3.802   0.556   3.248
  745SOL    HW1 3019   3.894   0.555   3.207
  745SOL    HW2 3020   3.796   0.630   3.315
  746SOL     OW 3021   5.190   0.590   2.854
  746SOL    HW1 3022   5.160   0.495   2.861
  746SOL    HW2 3023   5.263   0.606   2.920
  747SOL     OW 3024   4.788   1.347   3.202
  747SOL    HW1 3025   4.708   1.324   3.257
  747SOL    HW2 3026   4.871   1.321   3.251
  748SOL     OW 3027   4.704   1.116   3.581
  748SOL    HW1 3028   4.605   1.122   3.591
  748SOL    HW2 3029   4.727   1.036   3.525
  749SOL     OW 3030   4.429   1.050   2.230
  749SOL    HW1 3031   4.415   1.057   2.329
  749SOL    HW2 3032   4.513   0.999   2.212
  750SOL     OW 3033   4.998   0.386   3.124
  750SOL    HW1 3034   5.019   0.460   3.188
  750SOL    HW2 3035   4.909   0.403   3.081
  751SOL     OW 3036   4.091   1.100   2.363
  751SOL    HW1 3037   4.084   1.183   2.307
  751SOL    HW2 3038   4.095   1.020   2.303
  752SOL     OW 3039   4.976   1.348   2.250
  752SOL    HW1 3040   5.026   1.425   2.290
  752SOL    HW2 3041   4.881   1.350   2.282
  753SOL     OW 3042   4.933   0.525   2.137
  753SOL    HW1 3043   4.946   0.441   2.191
  753SOL    HW2 3044   4.904   0.599   2.197
  754SOL     OW 3045   4.747   0.766   2.828
  754SOL    HW1 3046   4.762   0.787   2.924
  754SOL    HW2 3047   4.717   0.671   2.819
  755SOL     OW 3048   4.704   1.573   3.562
  755SOL    HW1 3049   4.684   1.617   3.474
  755SOL    HW2 3050   4.743   1.482   3.546
  756SOL     OW 3051   5.264   0.274   1.987
  756SOL    HW1 3052   5.203   0.199   2.010
  756SOL    HW2 3053   5.286   0.326   2.070
  757SOL     OW 3054   4.726   0.796   3.100
  757SOL    HW1 3055   4.767   0.764   3.186
  757SOL    HW2 3056   4.630   0.769   3.097
  758SOL     OW 3057   3.913   0.520   3.584
  758SOL    HW1 3058   3.972   0.480   3.514
  758SOL    HW2 3059   3.855   0.591   3.543
  759SOL     OW 3060   3.807   1.258   2.884
  759SOL    HW1 3061   3.802   1.257   2.984
  759SOL    HW2 3062   3.724   1.217   2.846
  760SOL     OW 3063   3.987   0.326   2.582
  760SOL    HW1 3064   3.908   0.377   2.548
  760SOL    HW2 3065   3.978   0.311   2.680
  761SOL     OW 3066   4.096   1.288   3.352
  761SOL    HW1 3067   4.083   1.381   3.318
  761SOL    HW2 3068   4.012   1.236   3.339
  762SOL     OW 3069   5.338   1.292   3.151
  762SOL    HW1 3070   5.398   1.295   3.231
  762SOL    HW2 3071   5.263   1.356   3.164
  763SOL     OW 3072   4.763   1.098   2.558
  763SOL    HW1 3073   4.693   1.051   2.612
  763SOL    HW2 3074   4.822   1.030   2.515
  764SOL     OW 3075   5.398   0.883   3.116
  764SOL    HW1 3076   5.371   0.794   3.079
  764SOL    HW2 3077   5.399   0.951   3.043
  765SOL     OW 3078   4.949   0.325   2.311
  765SOL    HW1 3079   5.014   0.251   2.300
  765SOL    HW2 3080   4.969   0.375   2.395
  766SOL     OW 3081   5.585   1.569   2.713
  766SOL    HW1 3082   5.514   1.557   2.643
  766SOL    HW2 3083   5.586   1.490   2.773
  767SOL     OW 3084   5.429   1.487   2.966
  767SOL    HW1 3085   5.336   1.462   2.939
  767SOL    HW2 3086   5.455   1.437   3.048
  768SOL     OW 3087   4.342   1.567   3.146
  768SOL    HW1 3088   4.337   1.649   3.203
  768SOL    HW2 3089   4.431   1.564   3.101
  769SOL     OW 3090   5.076   0.052   2.030
  769SOL    HW1 3091   5.111   0.011   1.946
  769SOL    HW2 3092   4.986   0.014   2.050
  770SOL     OW 3093   5.024   0.453   2.553
  770SOL    HW1 3094   4.965   0.533   2.557
  770SOL    HW2 3095   5.039   0.418   2.646
  771SOL     OW 3096   4.059   1.435   4.785
  771SOL    HW1 3097   3.981   1.404   4.732
  771SOL    HW2 3098   4.117   1.493   4.728
  772SOL     OW 3099   3.964   1.091   4.610
  772SOL    HW1 3100   3.978   1.007   4.662
  772SOL    HW2 3101   3.909   1.155   4.665
  773SOL     OW 3102   3.846   0.643   4.287
  773SOL    HW1 3103   3.801   0.555   4.304
  773SOL    HW2 3104   3.845   0.697   4.371
  774SOL     OW 3105   5.413   0.922   4.336
  774SOL    HW1 3106   5.508   0.893   4.344
  774SOL    HW2 3107   5.405   0.987   4.261
  775SOL     OW 3108   3.837   0.737   5.321
  775SOL    HW1 3109   3.925   0.724   5.366
  775SOL    HW2 3110   3.824   0.834   5.299
  776SOL     OW 3111   5.017   1.228   5.147
  776SOL    HW1 3112   5.054   1.155   5.089
  776SOL    HW2 3113   5.069   1.233   5.232
  777SOL     OW 3114   5.249   0.999   3.914
  777SOL    HW1 3115   5.186   0.923   3.927
  777SOL    HW2 3116   5.297   1.017   4.000
  778SOL     OW 3117   4.041   0.251   5.525
  778SOL    HW1 3118   4.112   0.322   5.531
  778SOL    HW2 3119   3.953   0.290   5.553
  779SOL     OW 3120   4.322   0.729   3.994
  779SOL    HW1 3121   4.346   0.798   3.926
  779SOL    HW2 3122   4.244   0.762   4.048
  780SOL     OW 3123   4.732   1.456   4.201
  780SOL    HW1 3124   4.686   1.528   4.149
  780SOL    HW2 3125   4.728   1.476   4.299
  781SOL     OW 3126   4.835   1.776   3.961
  781SOL    HW1 3127   4.775   1.714   4.011
  781SOL    HW2 3128   4.866   1.732   3.876
  782SOL     OW 3129   4.338   0.122   3.841
  782SOL    HW1 3130   4.436   0.100   3.848
  782SOL    HW2 3131   4.307   0.105   3.748
  783SOL     OW 3132   4.951   1.570   4.517
  783SOL    HW1 3133   4.972   1.644   4.452
  783SOL    HW2 3134   5.019   1.570   4.590
  784SOL     OW 3135   4.639   0.089   5.126
  784SOL    HW1 3136   4.664   0.069   5.031
  784SOL    HW2 3137   4.711   0.145   5.168
  785SOL     OW 3138   4.429   1.050   4.092
  785SOL    HW1 3139   4.415   1.057   4.191
  785SOL    HW2 3140   4.513   0.999   4.074
  786SOL     OW 3141   4.297   0.870   4.753
  786SOL    HW1 3142   4.341   0.959   4.744
  786SOL    HW2 3143   4.234   0.870   4.830
  787SOL     OW 3144   4.031   0.063   4.342
  787SOL    HW1 3145   4.020   0.157   4.375
  787SOL    HW2 3146   4.026   0.000   4.419
  788SOL     OW 3147   4.792   1.333   4.573
  788SOL    HW1 3148   4.799   1.249   4.518
  788SOL    HW2 3149   4.854   1.402   4.537
  789SOL     OW 3150   3.732   1.326   3.924
  789SOL    HW1 3151   3.639   1.347   3.893
  789SOL    HW2 3152   3.742   1.227   3.937
  790SOL     OW 3153   4.228   1.568   4.634
  790SOL    HW1 3154   4.294   1.642   4.643
  790SOL    HW2 3155   4.272   1.489   4.592
  791SOL     OW 3156   5.026   0.855   4.033
  791SOL    HW1 3157   4.940   0.824   4.075
  791SOL    HW2 3158   5.022   0.841   3.934
  792SOL     OW 3159   4.640   0.910   4.015
  792SOL    HW1 3160   4.703   0.948   3.947
  792SOL    HW2 3161   4.680   0.827   4.054
  793SOL     OW 3162   5.228   1.607   3.768
  793SOL    HW1 3163   5.136   1.644   3.775
  793SOL    HW2 3164   5.266   1.627   3.678
  794SOL     OW 3165   4.583   0.956   4.585
  794SOL    HW1 3166   4.637   0.887   4.633
  794SOL    HW2 3167   4.551   1.025   4.651
  795SOL     OW 3168   5.548   0.192   4.951
  795SOL    HW1 3169   5.544   0.102   4.995
  795SOL    HW2 3170   5.551   0.181   4.852
  796SOL     OW 3171   4.342   1.567   5.008
  796SOL    HW1 3172   4.337   1.649   5.065
  796SOL    HW2 3173   4.431   1.564   4.963
  797SOL     OW 3174   5.317   0.221   4.606
  797SOL    HW1 3175   5.233   0.220   4.660
  797SOL    HW2 3176   5.319   0.304   4.550
  798SOL     OW 3177   3.763   1.077   4.024
  798SOL    HW1 3178   3.862   1.066   4.015
  798SOL    HW2 3179   3.723   0.991   4.056
  799SOL     OW 3180   3.954   2.490   0.113
  799SOL    HW1 3181   3.861   2.488   0.150
  799SOL    HW2 3182   3.955   2.451   0.021
  800SOL     OW 3183   3.949   2.137   0.996
  800SOL    HW1 3184   3.984   2.120   1.088
  800SOL    HW2 3185   3.861   2.092   0.984
  801SOL     OW 3186   4.492   3.006   1.023
  801SOL    HW1 3187   4.414   3.023   1.083
  801SOL    HW2 3188   4.526   3.093   0.987
  802SOL     OW 3189   4.162   2.254   1.499
  802SOL    HW1 3190   4.244   2.198   1.508
  802SOL    HW2 3191   4.081   2.196   1.503
  803SOL     OW 3192   4.330   2.826   0.123
  803SOL    HW1 3193   4.337   2.910   0.069
  803SOL    HW2 3194   4.376   2.839   0.211
  804SOL     OW 3195   5.391   3.576   0.572
  804SOL    HW1 3196   5.350   3.553   0.484
  804SOL    HW2 3197   5.373   3.502   0.637
  805SOL     OW 3198   5.300   3.524   0.307
  805SOL    HW1 3199   5.389   3.570   0.310
  805SOL    HW2 3200   5.279   3.500   0.212
  806SOL     OW 3201   4.531   2.467   1.465
  806SOL    HW1 3202   4.484   2.464   1.554
  806SOL    HW2 3203   4.480   2.412   1.399
  807SOL     OW 3204   4.715   2.272   1.242
  807SOL    HW1 3205   4.638   2.306   1.296
  807SOL    HW2 3206   4.681   2.221   1.163
  808SOL     OW 3207   3.800   2.673   0.789
  808SOL    HW1 3208   3.899   2.661   0.798
  808SOL    HW2 3209   3.776   2.768   0.810
  809SOL     OW 3210   5.443   2.447   1.831
  809SOL    HW1 3211   5.417   2.536   1.795
  809SOL    HW2 3212   5.441   2.379   1.758
  810SOL     OW 3213   4.274   2.058   0.885
  810SOL    HW1 3214   4.269   2.053   0.985
  810SOL    HW2 3215   4.276   2.154   0.856
  811SOL     OW 3216   4.732   3.318   0.477
  811SOL    HW1 3217   4.686   3.390   0.425
  811SOL    HW2 3218   4.728   3.338   0.575
  812SOL     OW 3219   4.106   2.562   0.480
  812SOL    HW1 3220   4.151   2.472   0.477
  812SOL    HW2 3221   4.012   2.551   0.513
  813SOL     OW 3222   5.271   2.084   1.729
  813SOL    HW1 3223   5.266   2.121   1.821
  813SOL    HW2 3224   5.199   2.015   1.717
  814SOL     OW 3225   4.021   1.897   0.171
  814SOL    HW1 3226   4.070   1.981   0.150
  814SOL    HW2 3227   4.083   1.832   0.216
  815SOL     OW 3228   4.800   2.545   1.464
  815SOL    HW1 3229   4.720   2.484   1.467
  815SOL    HW2 3230   4.881   2.492   1.440
  816SOL     OW 3231   4.995   3.659   0.591
  816SOL    HW1 3232   5.039   3.723   0.527
  816SOL    HW2 3233   4.945   3.711   0.661
  817SOL     OW 3234   4.285   2.084   1.147
  817SOL    HW1 3235   4.323   2.000   1.184
  817SOL    HW2 3236   4.197   2.103   1.191
  818SOL     OW 3237   4.590   2.316   0.642
  818SOL    HW1 3238   4.558   2.388   0.580
  818SOL    HW2 3239   4.614   2.235   0.589
  819SOL     OW 3240   4.741   1.901   0.753
  819SOL    HW1 3241   4.669   1.906   0.684
  819SOL    HW2 3242   4.717   1.832   0.822
  820SOL     OW 3243   5.153   3.035   0.867
  820SOL    HW1 3244   5.098   2.951   0.860
  820SOL    HW2 3245   5.179   3.064   0.775
  821SOL     OW 3246   5.190   2.452   0.992
  821SOL    HW1 3247   5.160   2.357   0.999
  821SOL    HW2 3248   5.263   2.468   1.058
  822SOL     OW 3249   5.581   2.695   0.377
  822SOL    HW1 3250   5.623   2.631   0.441
  822SOL    HW2 3251   5.543   2.644   0.299
  823SOL     OW 3252   5.114   2.437   0.078
  823SOL    HW1 3253   5.060   2.416   0.159
  823SOL    HW2 3254   5.205   2.396   0.087
  824SOL     OW 3255   4.976   3.210   0.388
  824SOL    HW1 3256   5.026   3.287   0.428
  824SOL    HW2 3257   4.881   3.212   0.420
  825SOL     OW 3258   4.078   3.372   1.329
  825SOL    HW1 3259   4.057   3.328   1.242
  825SOL    HW2 3260   4.175   3.398   1.332
  826SOL     OW 3261   5.311   2.641   1.670
  826SOL    HW1 3262   5.219   2.679   1.665
  826SOL    HW2 3263   5.371   2.688   1.605
  827SOL     OW 3264   4.031   2.075   1.231
  827SOL    HW1 3265   4.008   2.112   1.321
  827SOL    HW2 3266   4.001   1.980   1.225
  828SOL     OW 3267   4.456   2.496   1.064
  828SOL    HW1 3268   4.515   2.470   0.988
  828SOL    HW2 3269   4.428   2.592   1.053
  829SOL     OW 3270   5.346   2.229   0.374
  829SOL    HW1 3271   5.348   2.153   0.438
  829SOL    HW2 3272   5.298   2.306   0.414
  830SOL     OW 3273   5.264   2.136   0.125
  830SOL    HW1 3274   5.203   2.061   0.148
  830SOL    HW2 3275   5.286   2.188   0.208
  831SOL     OW 3276   4.043   2.672   0.949
  831SOL    HW1 3277   4.136   2.708   0.954
  831SOL    HW2 3278   4.037   2.587   1.001
  832SOL     OW 3279   3.812   3.663   0.927
  832SOL    HW1 3280   3.770   3.577   0.900
  832SOL    HW2 3281   3.906   3.666   0.893
  833SOL     OW 3282   4.726   2.658   1.238
  833SOL    HW1 3283   4.767   2.626   1.324
  833SOL    HW2 3284   4.630   2.631   1.235
  834SOL     OW 3285   3.913   2.382   1.722
  834SOL    HW1 3286   3.972   2.342   1.652
  834SOL    HW2 3287   3.855   2.453   1.681
  835SOL     OW 3288   4.395   2.326   1.269
  835SOL    HW1 3289   4.361   2.237   1.239
  835SOL    HW2 3290   4.421   2.380   1.189
  836SOL     OW 3291   3.807   3.120   1.022
  836SOL    HW1 3292   3.802   3.119   1.122
  836SOL    HW2 3293   3.724   3.079   0.984
  837SOL     OW 3294   4.546   2.864   1.372
  837SOL    HW1 3295   4.586   2.863   1.280
  837SOL    HW2 3296   4.556   2.956   1.412
  838SOL     OW 3297   4.314   3.349   0.491
  838SOL    HW1 3298   4.356   3.291   0.421
  838SOL    HW2 3299   4.270   3.428   0.447
  839SOL     OW 3300   3.829   2.875   1.726
  839SOL    HW1 3301   3.752   2.842   1.780
  839SOL    HW2 3302   3.914   2.845   1.768
  840SOL     OW 3303   5.164   2.718   1.398
  840SOL    HW1 3304   5.107   2.770   1.335
  840SOL    HW2 3305   5.260   2.730   1.374
  841SOL     OW 3306   5.217   3.629   0.959
  841SOL    HW1 3307   5.250   3.693   0.890
  841SOL    HW2 3308   5.283   3.623   1.034
  842SOL     OW 3309   5.398   2.745   1.254
  842SOL    HW1 3310   5.371   2.656   1.217
  842SOL    HW2 3311   5.399   2.813   1.181
  843SOL     OW 3312   5.454   2.796   1.517
  843SOL    HW1 3313   5.492   2.887   1.532
  843SOL    HW2 3314   5.446   2.779   1.418
  844SOL     OW 3315   4.583   3.236   0.016
  844SOL    HW1 3316   4.537   3.251   0.104
  844SOL    HW2 3317   4.627   3.321  -0.014
  845SOL     OW 3318   5.548   2.054   1.227
  845SOL    HW1 3319   5.544   1.964   1.271
  845SOL    HW2 3320   5.551   2.043   1.128
  846SOL     OW 3321   4.152   2.286   0.520
  846SOL    HW1 3322   4.182   2.214   0.458
  846SOL    HW2 3323   4.113   2.246   0.603
  847SOL     OW 3324   5.429   3.349   1.104
  847SOL    HW1 3325   5.336   3.324   1.077
  847SOL    HW2 3326   5.455   3.299   1.186
  848SOL     OW 3327   5.024   2.315   0.691
  848SOL    HW1 3328   4.965   2.395   0.695
  848SOL    HW2 3329   5.039   2.280   0.784
  849SOL     OW 3330   5.279   3.373   2.565
  849SOL    HW1 3331   5.222   3.357   2.646
  849SOL    HW2 3332   5.220   3.383   2.485
  850SOL     OW 3333   4.410   3.023   3.665
  850SOL    HW1 3334   4.470   3.102   3.679
  850SOL    HW2 3335   4.324   3.054   3.624
  851SOL     OW 3336   3.954   3.296   2.400
  851SOL    HW1 3337   3.928   3.392   2.400
  851SOL    HW2 3338   3.883   3.242   2.445
  852SOL     OW 3339   3.964   2.953   2.748
  852SOL    HW1 3340   3.978   2.869   2.800
  852SOL    HW2 3341   3.909   3.017   2.803
  853SOL     OW 3342   5.391   3.576   2.434
  853SOL    HW1 3343   5.350   3.553   2.346
  853SOL    HW2 3344   5.373   3.502   2.499
  854SOL     OW 3345   4.835   3.638   2.099
  854SOL    HW1 3346   4.775   3.576   2.149
  854SOL    HW2 3347   4.866   3.594   2.014
  855SOL     OW 3348   4.188   3.605   2.185
  855SOL    HW1 3349   4.221   3.644   2.271
  855SOL    HW2 3350   4.264   3.598   2.120
  856SOL     OW 3351   4.106   2.562   2.342
  856SOL    HW1 3352   4.151   2.472   2.339
  856SOL    HW2 3353   4.012   2.551   2.375
  857SOL     OW 3354   4.646   2.365   2.761
  857SOL    HW1 3355   4.621   2.356   2.665
  857SOL    HW2 3356   4.694   2.283   2.792
  858SOL     OW 3357   4.285   2.084   3.009
  858SOL    HW1 3358   4.323   2.000   3.046
  858SOL    HW2 3359   4.197   2.103   3.053
  859SOL     OW 3360   4.212   3.247   2.036
  859SOL    HW1 3361   4.125   3.232   2.083
  859SOL    HW2 3362   4.195   3.273   1.941
  860SOL     OW 3363   5.316   3.491   3.487
  860SOL    HW1 3364   5.343   3.525   3.397
  860SOL    HW2 3365   5.395   3.453   3.533
  861SOL     OW 3366   5.362   2.961   2.941
  861SOL    HW1 3367   5.367   3.042   3.000
  861SOL    HW2 3368   5.276   2.963   2.890
  862SOL     OW 3369   4.134   2.675   3.113
  862SOL    HW1 3370   4.220   2.687   3.163
  862SOL    HW2 3371   4.092   2.588   3.140
  863SOL     OW 3372   4.996   3.307   3.004
  863SOL    HW1 3373   5.043   3.320   3.091
  863SOL    HW2 3374   4.930   3.233   3.013
  864SOL     OW 3375   5.084   2.724   2.907
  864SOL    HW1 3376   5.009   2.724   2.841
  864SOL    HW2 3377   5.121   2.632   2.916
  865SOL     OW 3378   4.933   2.387   2.137
  865SOL    HW1 3379   4.946   2.303   2.191
  865SOL    HW2 3380   4.904   2.461   2.197
  866SOL     OW 3381   4.074   2.760   3.666
  866SOL    HW1 3382   4.150   2.804   3.714
  866SOL    HW2 3383   4.109   2.713   3.584
  867SOL     OW 3384   4.043   2.672   2.811
  867SOL    HW1 3385   4.136   2.708   2.816
  867SOL    HW2 3386   4.037   2.587   2.863
  868SOL     OW 3387   3.732   3.188   2.062
  868SOL    HW1 3388   3.639   3.209   2.031
  868SOL    HW2 3389   3.742   3.089   2.075
  869SOL     OW 3390   4.726   2.658   3.100
  869SOL    HW1 3391   4.767   2.626   3.186
  869SOL    HW2 3392   4.630   2.631   3.097
  870SOL     OW 3393   5.026   2.717   2.171
  870SOL    HW1 3394   4.940   2.686   2.213
  870SOL    HW2 3395   5.022   2.703   2.072
  871SOL     OW 3396   4.554   3.135   3.284
  871SOL    HW1 3397   4.549   3.168   3.379
  871SOL    HW2 3398   4.468   3.154   3.238
  872SOL     OW 3399   4.763   2.960   2.558
  872SOL    HW1 3400   4.693   2.913   2.612
  872SOL    HW2 3401   4.822   2.892   2.515
  873SOL     OW 3402   4.314   3.349   2.353
  873SOL    HW1 3403   4.356   3.291   2.283
  873SOL    HW2 3404   4.270   3.428   2.309
  874SOL     OW 3405   4.396   2.065   3.351
  874SOL    HW1 3406   4.486   2.049   3.311
  874SOL    HW2 3407   4.404   2.070   3.450
  875SOL     OW 3408   5.164   2.718   3.260
  875SOL    HW1 3409   5.107   2.770   3.197
  875SOL    HW2 3410   5.260   2.730   3.236
  876SOL     OW 3411   4.114   3.603   3.422
  876SOL    HW1 3412   4.023   3.644   3.420
  876SOL    HW2 3413   4.107   3.509   3.454
  877SOL     OW 3414   5.398   2.745   3.116
  877SOL    HW1 3415   5.371   2.656   3.079
  877SOL    HW2 3416   5.399   2.813   3.043
  878SOL     OW 3417   4.583   3.236   1.878
  878SOL    HW1 3418   4.537   3.251   1.966
  878SOL    HW2 3419   4.627   3.321   1.848
  879SOL     OW 3420   4.396   3.253   3.486
  879SOL    HW1 3421   4.318   3.203   3.524
  879SOL    HW2 3422   4.393   3.348   3.517
  880SOL     OW 3423   4.152   2.286   2.382
  880SOL    HW1 3424   4.182   2.214   2.320
  880SOL    HW2 3425   4.113   2.246   2.465
  881SOL     OW 3426   4.536   3.448   2.549
  881SOL    HW1 3427   4.568   3.458   2.455
  881SOL    HW2 3428   4.457   3.386   2.551
  882SOL     OW 3429   4.599   3.508   2.199
  882SOL    HW1 3430   4.522   3.473   2.145
  882SOL    HW2 3431   4.567   3.579   2.261
  883SOL     OW 3432   3.954   2.490   3.837
  883SOL    HW1 3433   3.861   2.488   3.874
  883SOL    HW2 3434   3.955   2.451   3.745
  884SOL     OW 3435   3.949   2.137   4.720
  884SOL    HW1 3436   3.984   2.120   4.812
  884SOL    HW2 3437   3.861   2.092   4.708
  885SOL     OW 3438   5.279   3.373   4.427
  885SOL    HW1 3439   5.222   3.357   4.508
  885SOL    HW2 3440   5.220   3.383   4.347
  886SOL     OW 3441   3.846   2.505   4.287
  886SOL    HW1 3442   3.801   2.417   4.304
  886SOL    HW2 3443   3.845   2.559   4.371
  887SOL     OW 3444   3.837   2.599   5.321
  887SOL    HW1 3445   3.925   2.586   5.366
  887SOL    HW2 3446   3.824   2.696   5.299
  888SOL     OW 3447   4.533   1.866   4.226
  888SOL    HW1 3448   4.573   1.957   4.217
  888SOL    HW2 3449   4.433   1.874   4.232
  889SOL     OW 3450   3.921   2.838   4.988
  889SOL    HW1 3451   4.010   2.793   4.974
  889SOL    HW2 3452   3.848   2.773   4.969
  890SOL     OW 3453   5.249   2.861   3.914
  890SOL    HW1 3454   5.186   2.785   3.927
  890SOL    HW2 3455   5.297   2.879   4.000
  891SOL     OW 3456   4.531   2.467   5.189
  891SOL    HW1 3457   4.484   2.464   5.278
  891SOL    HW2 3458   4.480   2.412   5.123
  892SOL     OW 3459   4.697   2.752   5.296
  892SOL    HW1 3460   4.743   2.668   5.267
  892SOL    HW2 3461   4.641   2.786   5.221
  893SOL     OW 3462   5.086   3.006   4.269
  893SOL    HW1 3463   5.169   2.977   4.221
  893SOL    HW2 3464   5.037   3.073   4.213
  894SOL     OW 3465   4.045   2.805   3.966
  894SOL    HW1 3466   4.127   2.844   3.924
  894SOL    HW2 3467   4.018   2.723   3.917
  895SOL     OW 3468   5.182   2.597   4.452
  895SOL    HW1 3469   5.177   2.532   4.527
  895SOL    HW2 3470   5.262   2.656   4.465
  896SOL     OW 3471   4.338   1.984   3.841
  896SOL    HW1 3472   4.436   1.962   3.848
  896SOL    HW2 3473   4.307   1.967   3.748
  897SOL     OW 3474   5.075   2.452   5.157
  897SOL    HW1 3475   5.103   2.409   5.242
  897SOL    HW2 3476   5.100   2.548   5.158
  898SOL     OW 3477   4.646   2.365   4.623
  898SOL    HW1 3478   4.621   2.356   4.527
  898SOL    HW2 3479   4.694   2.283   4.654
  899SOL     OW 3480   4.800   2.545   5.188
  899SOL    HW1 3481   4.720   2.484   5.191
  899SOL    HW2 3482   4.881   2.492   5.164
  900SOL     OW 3483   4.183   3.014   4.465
  900SOL    HW1 3484   4.112   2.987   4.530
  900SOL    HW2 3485   4.157   2.986   4.372
  901SOL     OW 3486   4.590   2.316   4.366
  901SOL    HW1 3487   4.558   2.388   4.304
  901SOL    HW2 3488   4.614   2.235   4.313
  902SOL     OW 3489   4.134   2.675   4.975
  902SOL    HW1 3490   4.220   2.687   5.025
  902SOL    HW2 3491   4.092   2.588   5.002
  903SOL     OW 3492   5.311   2.641   5.394
  903SOL    HW1 3493   5.219   2.679   5.389
  903SOL    HW2 3494   5.371   2.688   5.329
  904SOL     OW 3495   4.031   2.075   4.955
  904SOL    HW1 3496   4.008   2.112   5.045
  904SOL    HW2 3497   4.001   1.980   4.949
  905SOL     OW 3498   4.539   2.434   4.049
  905SOL    HW1 3499   4.546   2.345   4.003
  905SOL    HW2 3500   4.445   2.468   4.041
  906SOL     OW 3501   4.197   2.362   3.915
  906SOL    HW1 3502   4.258   2.442   3.919
  906SOL    HW2 3503   4.102   2.393   3.922
  907SOL     OW 3504   3.807   3.120   4.746
  907SOL    HW1 3505   3.802   3.119   4.846
  907SOL    HW2 3506   3.724   3.079   4.708
  908SOL     OW 3507   4.546   2.864   5.096
  908SOL    HW1 3508   4.586   2.863   5.004
  908SOL    HW2 3509   4.556   2.956   5.136
  909SOL     OW 3510   4.640   2.772   4.015
  909SOL    HW1 3511   4.703   2.810   3.947
  909SOL    HW2 3512   4.680   2.689   4.054
  910SOL     OW 3513   4.763   2.960   4.420
  910SOL    HW1 3514   4.693   2.913   4.474
  910SOL    HW2 3515   4.822   2.892   4.377
  911SOL     OW 3516   4.738   2.098   4.695
  911SOL    HW1 3517   4.730   2.062   4.602
  911SOL    HW2 3518   4.736   2.022   4.760
  912SOL     OW 3519   4.396   2.065   5.213
  912SOL    HW1 3520   4.486   2.049   5.173
  912SOL    HW2 3521   4.404   2.070   5.312
  913SOL     OW 3522   3.799   2.207   3.757
  913SOL    HW1 3523   3.707   2.179   3.728
  913SOL    HW2 3524   3.830   2.284   3.701
  914SOL     OW 3525   4.337   2.704   5.155
  914SOL    HW1 3526   4.393   2.785   5.138
  914SOL    HW2 3527   4.396   2.624   5.158
  915SOL     OW 3528   5.217   3.629   4.683
  915SOL    HW1 3529   5.250   3.693   4.614
  915SOL    HW2 3530   5.283   3.623   4.758
  916SOL     OW 3531   4.318   2.607   4.376
  916SOL    HW1 3532   4.368   2.692   4.357
  916SOL    HW2 3533   4.230   2.609   4.328
  917SOL     OW 3534   5.454   2.796   5.241
  917SOL    HW1 3535   5.492   2.887   5.256
  917SOL    HW2 3536   5.446   2.779   5.142
  918SOL     OW 3537   5.076   1.914   3.892
  918SOL    HW1 3538   5.111   1.873   3.808
  918SOL    HW2 3539   4.986   1.876   3.912
  919SOL     OW 3540   5.318   3.838   1.480
  919SOL    HW1 3541   5.300   3.905   1.408
  919SOL    HW2 3542   5.315   3.884   1.569
  920SOL     OW 3543   3.846   4.367   0.563
  920SOL    HW1 3544   3.801   4.279   0.580
  920SOL    HW2 3545   3.845   4.421   0.647
  921SOL     OW 3546   3.751   5.320   0.117
  921SOL    HW1 3547   3.732   5.224   0.138
  921SOL    HW2 3548   3.718   5.378   0.192
  922SOL     OW 3549   3.837   4.461   1.597
  922SOL    HW1 3550   3.925   4.448   1.642
  922SOL    HW2 3551   3.824   4.558   1.575
  923SOL     OW 3552   4.533   3.728   0.502
  923SOL    HW1 3553   4.573   3.819   0.493
  923SOL    HW2 3554   4.433   3.736   0.508
  924SOL     OW 3555   4.041   3.975   1.801
  924SOL    HW1 3556   4.112   4.046   1.807
  924SOL    HW2 3557   3.953   4.014   1.829
  925SOL     OW 3558   4.322   4.453   0.270
  925SOL    HW1 3559   4.346   4.522   0.202
  925SOL    HW2 3560   4.244   4.486   0.324
  926SOL     OW 3561   4.715   4.134   1.242
  926SOL    HW1 3562   4.638   4.168   1.296
  926SOL    HW2 3563   4.681   4.083   1.163
  927SOL     OW 3564   4.732   5.180   0.477
  927SOL    HW1 3565   4.686   5.252   0.425
  927SOL    HW2 3566   4.728   5.200   0.575
  928SOL     OW 3567   4.338   3.846   0.117
  928SOL    HW1 3568   4.436   3.824   0.124
  928SOL    HW2 3569   4.307   3.829   0.024
  929SOL     OW 3570   5.075   4.314   1.433
  929SOL    HW1 3571   5.103   4.271   1.518
  929SOL    HW2 3572   5.100   4.410   1.434
  930SOL     OW 3573   3.802   4.280   1.386
  930SOL    HW1 3574   3.894   4.279   1.345
  930SOL    HW2 3575   3.796   4.354   1.453
  931SOL     OW 3576   4.788   5.071   1.340
  931SOL    HW1 3577   4.708   5.048   1.395
  931SOL    HW2 3578   4.871   5.045   1.389
  932SOL     OW 3579   4.429   4.774   0.368
  932SOL    HW1 3580   4.415   4.781   0.467
  932SOL    HW2 3581   4.513   4.723   0.350
  933SOL     OW 3582   4.091   4.824   0.501
  933SOL    HW1 3583   4.084   4.907   0.445
  933SOL    HW2 3584   4.095   4.744   0.441
  934SOL     OW 3585   4.976   5.072   0.388
  934SOL    HW1 3586   5.026   5.149   0.428
  934SOL    HW2 3587   4.881   5.074   0.420
  935SOL     OW 3588   4.996   5.169   1.142
  935SOL    HW1 3589   5.043   5.182   1.229
  935SOL    HW2 3590   4.930   5.095   1.151
  936SOL     OW 3591   4.078   5.234   1.329
  936SOL    HW1 3592   4.057   5.190   1.242
  936SOL    HW2 3593   4.175   5.260   1.332
  937SOL     OW 3594   4.704   5.297   1.700
  937SOL    HW1 3595   4.684   5.341   1.612
  937SOL    HW2 3596   4.743   5.206   1.684
  938SOL     OW 3597   4.884   3.931   1.477
  938SOL    HW1 3598   4.884   3.995   1.554
  938SOL    HW2 3599   4.912   3.979   1.394
  939SOL     OW 3600   3.732   5.050   0.200
  939SOL    HW1 3601   3.639   5.071   0.169
  939SOL    HW2 3602   3.742   4.951   0.213
  940SOL     OW 3603   5.093   4.674   1.660
  940SOL    HW1 3604   5.132   4.763   1.680
  940SOL    HW2 3605   5.103   4.654   1.563
  941SOL     OW 3606   3.883   4.861   1.466
  941SOL    HW1 3607   3.905   4.800   1.542
  941SOL    HW2 3608   3.893   4.812   1.380
  942SOL     OW 3609   5.071   4.783   1.234
  942SOL    HW1 3610   5.095   4.720   1.160
  942SOL    HW2 3611   4.981   4.823   1.216
  943SOL     OW 3612   5.026   4.579   0.309
  943SOL    HW1 3613   4.940   4.548   0.351
  943SOL    HW2 3614   5.022   4.565   0.210
  944SOL     OW 3615   4.976   5.455   1.128
  944SOL    HW1 3616   5.060   5.460   1.074
  944SOL    HW2 3617   4.953   5.359   1.146
  945SOL     OW 3618   4.096   5.012   1.490
  945SOL    HW1 3619   4.083   5.105   1.456
  945SOL    HW2 3620   4.012   4.960   1.477
  946SOL     OW 3621   5.338   5.016   1.289
  946SOL    HW1 3622   5.398   5.019   1.369
  946SOL    HW2 3623   5.263   5.080   1.302
  947SOL     OW 3624   4.314   5.211   0.491
  947SOL    HW1 3625   4.356   5.153   0.421
  947SOL    HW2 3626   4.270   5.290   0.447
  948SOL     OW 3627   3.979   5.072   0.290
  948SOL    HW1 3628   3.883   5.073   0.263
  948SOL    HW2 3629   3.991   5.125   0.374
  949SOL     OW 3630   3.796   3.890   0.318
  949SOL    HW1 3631   3.779   3.973   0.264
  949SOL    HW2 3632   3.886   3.853   0.296
  950SOL     OW 3633   4.907   5.059   0.119
  950SOL    HW1 3634   4.808   5.048   0.121
  950SOL    HW2 3635   4.941   5.074   0.212
  951SOL     OW 3636   5.217   5.491   0.959
  951SOL    HW1 3637   5.250   5.555   0.890
  951SOL    HW2 3638   5.283   5.485   1.034
  952SOL     OW 3639   5.174   4.944   1.633
  952SOL    HW1 3640   5.165   4.934   1.732
  952SOL    HW2 3641   5.270   4.937   1.607
  953SOL     OW 3642   5.501   4.066   1.642
  953SOL    HW1 3643   5.484   4.097   1.548
  953SOL    HW2 3644   5.417   4.029   1.680
  954SOL     OW 3645   3.803   4.964   0.653
  954SOL    HW1 3646   3.802   4.917   0.741
  954SOL    HW2 3647   3.885   4.936   0.602
  955SOL     OW 3648   5.548   3.916   1.227
  955SOL    HW1 3649   5.544   3.826   1.271
  955SOL    HW2 3650   5.551   3.905   1.128
  956SOL     OW 3651   5.429   5.211   1.104
  956SOL    HW1 3652   5.336   5.186   1.077
  956SOL    HW2 3653   5.455   5.161   1.186
  957SOL     OW 3654   4.536   5.310   0.687
  957SOL    HW1 3655   4.568   5.320   0.593
  957SOL    HW2 3656   4.457   5.248   0.689
  958SOL     OW 3657   5.148   3.938   1.112
  958SOL    HW1 3658   5.200   3.873   1.167
  958SOL    HW2 3659   5.099   4.001   1.173
  959SOL     OW 3660   4.342   5.291   1.284
  959SOL    HW1 3661   4.337   5.373   1.341
  959SOL    HW2 3662   4.431   5.288   1.239
  960SOL     OW 3663   3.954   4.352   1.975
  960SOL    HW1 3664   3.861   4.350   2.012
  960SOL    HW2 3665   3.955   4.313   1.883
  961SOL     OW 3666   5.479   4.331   2.093
  961SOL    HW1 3667   5.467   4.318   1.994
  961SOL    HW2 3668   5.449   4.250   2.142
  962SOL     OW 3669   4.492   4.868   2.885
  962SOL    HW1 3670   4.414   4.885   2.945
  962SOL    HW2 3671   4.526   4.955   2.849
  963SOL     OW 3672   4.409   4.736   2.527
  963SOL    HW1 3673   4.478   4.720   2.597
  963SOL    HW2 3674   4.336   4.793   2.565
  964SOL     OW 3675   5.184   5.229   3.201
  964SOL    HW1 3676   5.208   5.323   3.227
  964SOL    HW2 3677   5.168   5.175   3.283
  965SOL     OW 3678   3.954   5.158   2.400
  965SOL    HW1 3679   3.928   5.254   2.400
  965SOL    HW2 3680   3.883   5.104   2.445
  966SOL     OW 3681   3.837   4.461   3.459
  966SOL    HW1 3682   3.925   4.448   3.504
  966SOL    HW2 3683   3.824   4.558   3.437
  967SOL     OW 3684   5.017   4.952   3.285
  967SOL    HW1 3685   5.054   4.879   3.227
  967SOL    HW2 3686   5.069   4.957   3.370
  968SOL     OW 3687   4.322   4.453   2.132
  968SOL    HW1 3688   4.346   4.522   2.064
  968SOL    HW2 3689   4.244   4.486   2.186
  969SOL     OW 3690   4.715   4.134   3.104
  969SOL    HW1 3691   4.638   4.168   3.158
  969SOL    HW2 3692   4.681   4.083   3.025
  970SOL     OW 3693   4.765   4.425   2.291
  970SOL    HW1 3694   4.791   4.421   2.387
  970SOL    HW2 3695   4.680   4.374   2.277
  971SOL     OW 3696   5.443   4.309   3.693
  971SOL    HW1 3697   5.417   4.398   3.657
  971SOL    HW2 3698   5.441   4.241   3.620
  972SOL     OW 3699   4.835   5.500   2.099
  972SOL    HW1 3700   4.775   5.438   2.149
  972SOL    HW2 3701   4.866   5.456   2.014
  973SOL     OW 3702   4.951   5.294   2.655
  973SOL    HW1 3703   4.972   5.368   2.590
  973SOL    HW2 3704   5.019   5.294   2.728
  974SOL     OW 3705   4.756   4.273   1.878
  974SOL    HW1 3706   4.715   4.355   1.839
  974SOL    HW2 3707   4.820   4.299   1.951
  975SOL     OW 3708   5.153   4.897   2.729
  975SOL    HW1 3709   5.098   4.813   2.722
  975SOL    HW2 3710   5.179   4.926   2.637
  976SOL     OW 3711   5.190   4.314   2.854
  976SOL    HW1 3712   5.160   4.219   2.861
  976SOL    HW2 3713   5.263   4.330   2.920
  977SOL     OW 3714   4.835   4.919   2.962
  977SOL    HW1 3715   4.795   4.963   3.043
  977SOL    HW2 3716   4.794   4.956   2.879
  978SOL     OW 3717   3.788   5.288   3.193
  978SOL    HW1 3718   3.742   5.370   3.159
  978SOL    HW2 3719   3.886   5.307   3.202
  979SOL     OW 3720   4.091   4.824   2.363
  979SOL    HW1 3721   4.084   4.907   2.307
  979SOL    HW2 3722   4.095   4.744   2.303
  980SOL     OW 3723   4.976   5.072   2.250
  980SOL    HW1 3724   5.026   5.149   2.290
  980SOL    HW2 3725   4.881   5.074   2.282
  981SOL     OW 3726   3.761   5.034   3.144
  981SOL    HW1 3727   3.814   4.985   3.212
  981SOL    HW2 3728   3.783   5.132   3.149
  982SOL     OW 3729   4.456   4.358   2.926
  982SOL    HW1 3730   4.515   4.332   2.850
  982SOL    HW2 3731   4.428   4.454   2.915
  983SOL     OW 3732   4.043   4.534   2.811
  983SOL    HW1 3733   4.136   4.570   2.816
  983SOL    HW2 3734   4.037   4.449   2.863
  984SOL     OW 3735   5.093   4.674   3.522
  984SOL    HW1 3736   5.132   4.763   3.542
  984SOL    HW2 3737   5.103   4.654   3.425
  985SOL     OW 3738   4.539   4.296   2.187
  985SOL    HW1 3739   4.546   4.207   2.141
  985SOL    HW2 3740   4.445   4.330   2.179
  986SOL     OW 3741   4.197   4.224   2.053
  986SOL    HW1 3742   4.258   4.304   2.057
  986SOL    HW2 3743   4.102   4.255   2.060
  987SOL     OW 3744   5.112   5.297   2.339
  987SOL    HW1 3745   5.179   5.309   2.265
  987SOL    HW2 3746   5.072   5.386   2.362
  988SOL     OW 3747   3.854   5.518   3.713
  988SOL    HW1 3748   3.813   5.444   3.766
  988SOL    HW2 3749   3.918   5.569   3.771
  989SOL     OW 3750   4.554   4.997   3.284
  989SOL    HW1 3751   4.549   5.030   3.379
  989SOL    HW2 3752   4.468   5.016   3.238
  990SOL     OW 3753   3.987   4.050   2.582
  990SOL    HW1 3754   3.908   4.101   2.548
  990SOL    HW2 3755   3.978   4.035   2.680
  991SOL     OW 3756   4.918   5.336   1.893
  991SOL    HW1 3757   4.924   5.243   1.930
  991SOL    HW2 3758   4.859   5.336   1.813
  992SOL     OW 3759   4.318   4.469   2.514
  992SOL    HW1 3760   4.368   4.554   2.495
  992SOL    HW2 3761   4.230   4.471   2.466
  993SOL     OW 3762   3.945   5.038   3.706
  993SOL    HW1 3763   3.880   4.965   3.685
  993SOL    HW2 3764   3.949   5.052   3.804
  994SOL     OW 3765   4.536   5.310   2.549
  994SOL    HW1 3766   4.568   5.320   2.455
  994SOL    HW2 3767   4.457   5.248   2.551
  995SOL     OW 3768   3.954   4.352   3.837
  995SOL    HW1 3769   3.861   4.350   3.874
  995SOL    HW2 3770   3.955   4.313   3.745
  996SOL     OW 3771   3.949   3.999   4.720
  996SOL    HW1 3772   3.984   3.982   4.812
  996SOL    HW2 3773   3.861   3.954   4.708
  997SOL     OW 3774   4.492   4.868   4.747
  997SOL    HW1 3775   4.414   4.885   4.807
  997SOL    HW2 3776   4.526   4.955   4.711
  998SOL     OW 3777   5.413   4.646   4.336
  998SOL    HW1 3778   5.508   4.617   4.344
  998SOL    HW2 3779   5.405   4.711   4.261
  999SOL     OW 3780   3.837   4.461   5.321
  999SOL    HW1 3781   3.925   4.448   5.366
  999SOL    HW2 3782   3.824   4.558   5.299
 1000SOL     OW 3783   5.190   5.141   4.677
 1000SOL    HW1 3784   5.131   5.147   4.757
 1000SOL    HW2 3785   5.175   5.053   4.631
 1001SOL     OW 3786   4.322   4.453   3.994
 1001SOL    HW1 3787   4.346   4.522   3.926
 1001SOL    HW2 3788   4.244   4.486   4.048
 1002SOL     OW 3789   4.531   4.329   5.189
 1002SOL    HW1 3790   4.484   4.326   5.278
 1002SOL    HW2 3791   4.480   4.274   5.123
 1003SOL     OW 3792   4.697   4.614   5.296
 1003SOL    HW1 3793   4.743   4.530   5.267
 1003SOL    HW2 3794   4.641   4.648   5.221
 1004SOL     OW 3795   4.765   4.425   4.153
 1004SOL    HW1 3796   4.791   4.421   4.249
 1004SOL    HW2 3797   4.680   4.374   4.139
 1005SOL     OW 3798   4.732   5.180   4.201
 1005SOL    HW1 3799   4.686   5.252   4.149
 1005SOL    HW2 3800   4.728   5.200   4.299
 1006SOL     OW 3801   4.612   5.238   4.919
 1006SOL    HW1 3802   4.589   5.213   4.825
 1006SOL    HW2 3803   4.673   5.169   4.958
 1007SOL     OW 3804   4.183   4.876   4.465
 1007SOL    HW1 3805   4.112   4.849   4.530
 1007SOL    HW2 3806   4.157   4.848   4.372
 1008SOL     OW 3807   3.802   4.280   5.110
 1008SOL    HW1 3808   3.894   4.279   5.069
 1008SOL    HW2 3809   3.796   4.354   5.177
 1009SOL     OW 3810   4.285   3.946   4.871
 1009SOL    HW1 3811   4.323   3.862   4.908
 1009SOL    HW2 3812   4.197   3.965   4.915
 1010SOL     OW 3813   5.114   4.299   3.802
 1010SOL    HW1 3814   5.060   4.278   3.883
 1010SOL    HW2 3815   5.205   4.258   3.811
 1011SOL     OW 3816   4.788   5.071   5.064
 1011SOL    HW1 3817   4.708   5.048   5.119
 1011SOL    HW2 3818   4.871   5.045   5.113
 1012SOL     OW 3819   4.429   4.774   4.092
 1012SOL    HW1 3820   4.415   4.781   4.191
 1012SOL    HW2 3821   4.513   4.723   4.074
 1013SOL     OW 3822   4.998   4.110   4.986
 1013SOL    HW1 3823   5.019   4.184   5.050
 1013SOL    HW2 3824   4.909   4.127   4.943
 1014SOL     OW 3825   5.306   4.363   4.196
 1014SOL    HW1 3826   5.275   4.424   4.269
 1014SOL    HW2 3827   5.356   4.415   4.127
 1015SOL     OW 3828   4.792   5.057   4.573
 1015SOL    HW1 3829   4.799   4.973   4.518
 1015SOL    HW2 3830   4.854   5.126   4.537
 1016SOL     OW 3831   4.228   5.292   4.634
 1016SOL    HW1 3832   4.294   5.366   4.643
 1016SOL    HW2 3833   4.272   5.213   4.592
 1017SOL     OW 3834   5.112   5.297   4.201
 1017SOL    HW1 3835   5.179   5.309   4.127
 1017SOL    HW2 3836   5.072   5.386   4.224
 1018SOL     OW 3837   5.004   4.651   4.396
 1018SOL    HW1 3838   5.064   4.570   4.398
 1018SOL    HW2 3839   5.044   4.720   4.336
 1019SOL     OW 3840   4.918   5.336   3.755
 1019SOL    HW1 3841   4.924   5.243   3.792
 1019SOL    HW2 3842   4.859   5.336   3.675
 1020SOL     OW 3843   3.979   5.072   4.014
 1020SOL    HW1 3844   3.883   5.073   3.987
 1020SOL    HW2 3845   3.991   5.125   4.098
 1021SOL     OW 3846   4.907   5.059   3.843
 1021SOL    HW1 3847   4.808   5.048   3.845
 1021SOL    HW2 3848   4.941   5.074   3.936
 1022SOL     OW 3849   4.440   4.289   5.432
 1022SOL    HW1 3850   4.459   4.354   5.506
 1022SOL    HW2 3851   4.500   4.209   5.441
 1023SOL     OW 3852   4.114   5.465   5.284
 1023SOL    HW1 3853   4.023   5.506   5.282
 1023SOL    HW2 3854   4.107   5.371   5.316
 1024SOL     OW 3855   4.949   4.049   4.173
 1024SOL    HW1 3856   5.014   3.975   4.162
 1024SOL    HW2 3857   4.969   4.099   4.257
 1025SOL     OW 3858   4.807   4.708   3.811
 1025SOL    HW1 3859   4.784   4.761   3.729
 1025SOL    HW2 3860   4.888   4.652   3.792
 1026SOL     OW 3861   5.548   3.916   4.951
 1026SOL    HW1 3862   5.544   3.826   4.995
 1026SOL    HW2 3863   5.551   3.905   4.852
 1027SOL     OW 3864   4.041   4.271   5.004
 1027SOL    HW1 3865   4.079   4.212   5.076
 1027SOL    HW2 3866   4.081   4.245   4.916
 1028SOL     OW 3867   4.342   5.291   5.008
 1028SOL    HW1 3868   4.337   5.373   5.065
 1028SOL    HW2 3869   4.431   5.288   4.963
 1029SOL     OW 3870   5.024   4.177   4.415
 1029SOL    HW1 3871   4.965   4.257   4.419
 1029SOL    HW2 3872   5.039   4.142   4.508
 1030SOL     OW 3873   5.317   3.945   4.606
 1030SOL    HW1 3874   5.233   3.944   4.660
 1030SOL    HW2 3875   5.319   4.028   4.550
   5.50273   5.50273   5.50273
