Generic title
  875
    1PET     C9    1   2.132   1.956   2.296  0.2075 -0.2526  0.6419
    1PET     H6    2   2.110   1.858   2.252  1.0876  0.4855 -1.5309
    1PET     H7    3   2.115   2.032   2.218 -1.5820 -0.5504  0.7268
    1PET     O2    4   2.057   1.979   2.415  0.2020  0.0791  0.4370
    1PET     C8    5   2.068   1.888   2.516  0.2019 -0.5788 -0.0452
    1PET     O1    6   2.161   1.815   2.530  0.3303 -0.5544 -0.9288
    1PET     C4    7   1.959   1.917   2.623 -0.0487  0.5324  0.4419
    1PET     C5    8   1.895   2.039   2.634 -0.3411 -0.5401 -0.6121
    1PET     C6    9   1.807   2.072   2.742  0.2126  0.7338 -0.1609
    1PET     H4   10   1.759   2.169   2.737  3.2305  2.1791 -2.3854
    1PET     H3   11   1.919   2.115   2.560  0.9874 -0.0579  0.2874
    1PET     C3   12   1.930   1.815   2.718 -0.0711 -0.7357 -0.3962
    1PET     H2   13   1.977   1.717   2.719  2.6408  0.4990  0.8253
    1PET     C2   14   1.826   1.832   2.812  0.0786  0.1137 -1.0665
    1PET     H1   15   1.804   1.751   2.880  1.3019  1.6107  1.1725
    1PET     C1   16   1.761   1.958   2.820  0.0339  0.5879 -0.2113
    1PET     C7   17   1.674   1.986   2.941 -0.4954  0.2882  0.4388
    1PET     O3   18   1.666   1.904   3.030  0.1369  0.3532 -0.1237
    1PET     O4   19   1.601   2.097   2.922 -0.6709 -0.4306  0.6485
    1PET    C10   20   1.521   2.142   3.032  0.3480 -0.3735 -0.5530
    1PET     H8   21   1.535   2.065   3.109 -0.0106  0.5083  0.3955
    1PET     H9   22   1.412   2.141   3.022  0.0727 -2.6931  2.0401
    1PET    C11   23   1.575   2.283   3.069 -1.2310 -0.2872 -0.4179
    1PET    H10   24   1.673   2.263   3.112 -0.1060 -1.6070 -3.4752
    1PET    H11   25   1.523   2.330   3.153 -0.5135  0.2014 -0.2423
    1PET    C12   26   1.564   2.387   2.959  0.4531  0.0101 -0.1962
    1PET    H13   27   1.471   2.373   2.902 -0.0425 -1.4872  0.9699
    1PET    H14   28   1.644   2.358   2.889  0.9466 -0.7420  0.6683
    2PEO     C1   29   1.571   2.537   2.991  0.1242 -0.4915  0.3440
    2PEO     H3   30   1.496   2.554   3.069 -1.8424 -0.8658 -1.4156
    2PEO     H4   31   1.533   2.606   2.915  4.9916  2.8309  0.6926
    2PEO      O   32   1.711   2.575   3.037 -0.4506 -0.3072 -0.2201
    2PEO     C2   33   1.791   2.626   2.931 -0.0661  1.0432 -1.1250
    2PEO     H5   34   1.756   2.728   2.909 -1.8907  0.4700 -0.9936
    2PEO     H6   35   1.782   2.572   2.835  1.9419 -1.5742  0.0977
    2PEO     C3   36   1.938   2.627   2.972 -0.4349  0.6731  0.6318
    2PEO     H7   37   1.991   2.564   2.898  1.8010  1.7829  1.2442
    2PEO     H8   38   1.953   2.586   3.073  0.7827 -0.1287  0.1522
    2PEO     O1   39   1.999   2.755   2.986 -0.0514 -1.4042 -0.5049
    2PEO     C4   40   1.965   2.822   3.107  0.1657 -1.3384 -0.4784
    2PEO     H9   41   1.880   2.773   3.156 -0.5597  2.2003  2.0428
    2PEO    H10   42   1.946   2.928   3.085 -2.8412 -1.8352 -0.5003
    2PEO     C5   43   2.069   2.798   3.216 -0.7723 -0.0185 -0.1699
    2PEO    H11   44   2.081   2.689   3.224  0.2413  0.2116  1.6406
    2PEO    H12   45   2.044   2.847   3.310  1.4801  2.0997 -0.6234
    2PEO     O2   46   2.199   2.850   3.183  0.0948 -0.4173  1.3642
    2PEO     C6   47   2.210   3.000   3.171  0.3904 -0.2244 -0.4465
    2PEO    H13   48   2.148   3.054   3.098  1.0567  1.2602  0.0734
    2PEO    H14   49   2.314   3.021   3.144  0.3664  1.3959  0.7138
    2PEO     C7   50   2.183   3.060   3.307  0.5923 -0.7553 -0.0706
    2PEO    H15   51   2.078   3.047   3.338 -0.2398 -0.5781 -2.7443
    2PEO    H16   52   2.193   3.169   3.299  2.1072 -0.6849  2.1584
    2PEO     O3   53   2.289   3.006   3.403 -0.3275  0.0447 -0.2428
    2PEO     C8   54   2.281   3.056   3.544 -0.6033  0.0026  0.0958
    2PEO    H17   55   2.298   3.163   3.564 -0.9559  0.1352 -0.2941
    2PEO    H18   56   2.360   3.012   3.605 -1.3842  0.2620  1.3268
    2PEO     C9   57   2.156   3.000   3.611 -0.3450  1.0390  0.0295
    2PEO    H19   58   2.171   2.988   3.719  2.7473 -2.5448 -0.6676
    2PEO    H20   59   2.124   2.907   3.561  2.3258  0.7155 -1.1138
    2PEO     O4   60   2.056   3.094   3.590  0.1289  0.0836  0.2359
    2PEO    C10   61   1.930   3.065   3.650 -0.2624 -0.3066 -0.1536
    2PEO    H21   62   1.866   3.154   3.653  0.7703  0.3922  1.1811
    2PEO    H22   63   1.947   3.022   3.749  0.5696  0.4997  0.0645
    3PET     C9   64   1.853   2.947   3.582  0.0411 -0.6063 -0.2556
    3PET     H6   65   1.769   2.900   3.635 -3.6295  4.0840 -1.5617
    3PET     H7   66   1.921   2.861   3.581 -0.2904 -1.1728  6.0321
    3PET     O2   67   1.811   2.996   3.455 -0.1355 -0.2922  0.1899
    3PET     C8   68   1.771   2.918   3.352  0.4515  1.5354  0.2575
    3PET     O1   69   1.772   2.789   3.358  0.0788 -0.6386 -0.3548
    3PET     C4   70   1.717   3.000   3.231 -0.2154 -0.5213 -0.0112
    3PET     C5   71   1.759   3.136   3.211  0.2646 -1.0750 -0.2699
    3PET     C6   72   1.725   3.199   3.091  0.1468  0.1976 -0.6080
    3PET     H4   73   1.747   3.305   3.092  2.0633 -0.1642 -0.7704
    3PET     H3   74   1.810   3.189   3.290  0.9494  1.7119 -2.5049
    3PET     C3   75   1.642   2.936   3.132 -0.0931 -0.1335 -0.2418
    3PET     H2   76   1.613   2.832   3.143  2.2020 -0.4673  3.4490
    3PET     C2   77   1.611   3.003   3.017 -0.6094 -0.0138 -0.8198
    3PET     H1   78   1.563   2.946   2.938 -2.2873 -0.6540  0.6092
    3PET     C1   79   1.648   3.131   2.989 -0.1640  0.1176 -0.1986
    3PET     C7   80   1.606   3.208   2.869  0.3935 -0.3425 -0.7337
    3PET     O3   81   1.537   3.158   2.786 -0.0651  0.1008  0.2027
    3PET     O4   82   1.665   3.330   2.867 -0.2813 -0.0121  0.3692
    3PET    C10   83   1.642   3.424   2.762 -0.2035 -0.3036  0.0275
    3PET     H8   84   1.535   3.446   2.749 -0.3344 -0.4276  0.8698
    3PET     H9   85   1.691   3.400   2.667  3.9309 -0.7013  2.1853
    3PET    C11   86   1.701   3.550   2.808  0.0282 -0.2814  0.6494
    3PET    H10   87   1.694   3.563   2.917 -0.4533  1.4650  0.4179
    3PET    H11   88   1.650   3.629   2.752  0.5470 -1.7890 -2.0146
    3PET    C12   89   1.859   3.570   2.785 -0.6838  0.2024 -0.0826
    3PET    H13   90   1.891   3.667   2.825  2.7329 -1.1923  0.7059
    3PET    H14   91   1.873   3.576   2.676  2.7028  2.2999  0.3901
    4PET     C9   92   1.943   3.457   2.834  0.3354 -0.2027  0.6903
    4PET     H6   93   1.927   3.432   2.940 -1.5352  1.3060  0.7893
    4PET     H7   94   2.049   3.484   2.825 -0.1354  1.1492 -1.0235
    4PET     O2   95   1.931   3.333   2.748  0.7491  0.5049  0.0848
    4PET     C8   96   1.937   3.210   2.799 -1.2840  1.5741 -0.5242
    4PET     O1   97   1.952   3.187   2.917 -0.0128  0.1229  0.3405
    4PET     C4   98   1.946   3.097   2.698  0.7015 -0.3951 -0.8001
    4PET     C5   99   1.891   3.108   2.566  0.0107 -0.4550  0.0771
    4PET     C6  100   1.887   2.994   2.481 -0.8794 -0.2264 -0.1433
    4PET     H4  101   1.848   3.017   2.382  1.0130 -0.8401 -1.0700
    4PET     H3  102   1.855   3.206   2.536 -0.0163 -0.0440  1.4208
    4PET     C3  103   2.012   2.969   2.732 -0.0644 -0.2999  0.6876
    4PET     H2  104   2.047   2.934   2.829 -0.4671 -1.2340  0.4991
    4PET     C2  105   2.005   2.864   2.644 -0.7964 -0.4790  0.5211
    4PET     H1  106   2.047   2.770   2.680 -2.4234 -1.1289  0.7356
    4PET     C1  107   1.944   2.870   2.517 -0.0545 -0.7034 -0.4401
    4PET     C7  108   1.946   2.746   2.429 -0.0285 -0.9542 -0.1353
    4PET     O3  109   1.886   2.734   2.320  0.0188 -0.3921  0.3730
    4PET     O4  110   2.037   2.650   2.471 -0.4349  0.9155  0.7595
    4PET    C10  111   2.055   2.533   2.392  0.0702  1.1703  0.8228
    4PET     H8  112   1.959   2.482   2.380  0.1123  1.4296 -0.6544
    4PET     H9  113   2.112   2.452   2.441 -1.2172 -0.6187 -0.5896
    4PET    C11  114   2.131   2.551   2.256  0.0802  0.2498  0.0244
    4PET    H10  115   2.221   2.612   2.270 -1.0379  2.2813 -1.4163
    4PET    H11  116   2.055   2.605   2.199  2.0768  2.6376 -0.4277
    4PET    C12  117   2.176   2.419   2.188 -0.3449  0.5297 -0.1295
    4PET    H13  118   2.087   2.355   2.191  0.7329 -1.0573 -1.4600
    4PET    H14  119   2.257   2.378   2.250 -1.8633 -1.4888  0.5723
    5PET     C9  120   2.232   2.444   2.045  0.4762  0.9294  0.3785
    5PET     H6  121   2.163   2.511   1.992 -0.3984  0.8487  1.3901
    5PET     H7  122   2.242   2.348   1.994  1.8324  1.2706 -0.0344
    5PET     O2  123   2.359   2.510   2.058 -0.1343 -0.7522 -0.0920
    5PET     C8  124   2.472   2.450   2.092 -0.5496 -0.0709  0.2501
    5PET     O1  125   2.479   2.332   2.093  0.5315  0.6521  0.4802
    5PET     C4  126   2.591   2.540   2.125 -0.6358 -0.0925 -0.7942
    5PET     C5  127   2.721   2.489   2.150 -0.9462 -0.2987 -0.4707
    5PET     C6  128   2.829   2.571   2.196 -0.4641  0.5056 -0.1316
    5PET     H4  129   2.923   2.518   2.207 -1.3748 -0.8624  1.1335
    5PET     H3  130   2.750   2.384   2.140  0.0838 -0.1905  1.1388
    5PET     C3  131   2.572   2.680   2.122 -0.3164  0.0582 -0.3038
    5PET     H2  132   2.484   2.741   2.101 -1.2649 -1.0693  0.3429
    5PET     C2  133   2.689   2.763   2.162  0.8602  0.9427  0.0933
    5PET     H1  134   2.688   2.871   2.148 -0.0070  1.3269  2.8292
    5PET     C1  135   2.816   2.711   2.197 -1.1663  0.4757  0.1360
    5PET     C7  136   2.926   2.792   2.240  0.2634  0.1804  0.2863
    5PET     O3  137   3.031   2.745   2.277  0.4767  0.4792  0.2296
    5PET     O4  138   2.894   2.930   2.243 -0.0840  0.2509 -0.5941
    5PET    C10  139   2.992   3.023   2.281  0.2859  1.0583 -0.0057
    5PET     H8  140   3.092   3.000   2.241  1.0612 -1.1541  3.0166
    5PET     H9  141   2.997   3.033   2.390 -1.3803  1.1519  0.0785
    5PET    C11  142   2.948   3.159   2.223  0.6835  0.5844  0.1046
    5PET    H10  143   3.027   3.229   2.256  0.4437  0.6656  0.4985
    5PET    H11  144   2.863   3.198   2.281 -2.0260 -1.6216 -2.2576
    5PET    C12  145   2.925   3.162   2.075  0.3789 -0.8409  1.0180
    5PET    H13  146   2.870   3.072   2.047  0.6244 -0.2615 -1.4768
    5PET    H14  147   3.027   3.168   2.036 -0.0171 -1.0531 -0.0665
    6PEO     C1  148   2.846   3.285   2.023 -0.4420  0.0092  0.0434
    6PEO     H3  149   2.747   3.276   2.068 -0.0224 -3.9719  0.3338
    6PEO     H4  150   2.835   3.281   1.914 -1.5767  0.4475  0.1285
    6PEO      O  151   2.925   3.404   2.070  0.0154 -0.2030  0.2602
    6PEO     C2  152   2.877   3.539   2.030 -0.4817 -0.2346  0.0055
    6PEO     H5  153   2.861   3.554   1.922 -0.0641 -0.6653 -0.1186
    6PEO     H6  154   2.949   3.621   2.043 -2.1155  1.1874  0.1649
    6PEO     C3  155   2.747   3.579   2.106  0.6240 -0.1788  0.0321
    6PEO     H7  156   2.719   3.683   2.089 -2.4331 -1.0745 -0.7140
    6PEO     H8  157   2.768   3.572   2.213  0.4476 -2.8884 -0.0634
    6PEO     O1  158   2.638   3.500   2.078 -0.1993 -0.3887 -0.4892
    6PEO     C4  159   2.524   3.540   2.166 -0.2957  0.8176 -0.0988
    6PEO     H9  160   2.477   3.635   2.138  1.2782  0.8062 -3.0024
    6PEO    H10  161   2.563   3.561   2.266 -1.0614 -4.3403  1.4245
    6PEO     C5  162   2.416   3.424   2.177 -0.2605 -0.8217 -0.2998
    6PEO    H11  163   2.357   3.410   2.085 -1.3616 -1.8826  0.5624
    6PEO    H12  164   2.356   3.461   2.260  0.3052  2.1208 -1.1615
    6PEO     O2  165   2.480   3.294   2.196  0.3444  0.4543  0.2101
    6PEO     C6  166   2.538   3.275   2.329  0.0590 -0.1010  0.6259
    6PEO    H13  167   2.471   3.318   2.405 -1.2744  0.3801 -0.8016
    6PEO    H14  168   2.629   3.337   2.320  0.4387 -0.8635 -1.0636
    6PEO     C7  169   2.591   3.133   2.355 -0.2502  0.7010 -0.3778
    6PEO    H15  170   2.693   3.146   2.393 -1.1072  1.1007  1.9229
    6PEO    H16  171   2.601   3.064   2.270  1.2717 -1.7147  1.6778
    6PEO     O3  172   2.515   3.071   2.464 -0.2532 -0.1124 -0.5512
    6PEO     C8  173   2.374   3.031   2.435 -0.0607 -0.4952 -0.0067
    6PEO    H17  174   2.333   3.119   2.385  1.5664 -0.5537 -1.4581
    6PEO    H18  175   2.323   3.004   2.529  0.6490  2.1866  1.1809
    6PEO     C9  176   2.368   2.918   2.331 -0.2760  0.4821  0.8169
    6PEO    H19  177   2.282   2.853   2.352 -0.0583  0.4550  1.6319
    6PEO    H20  178   2.461   2.862   2.350 -0.5268  0.0163  0.6712
    6PEO     O4  179   2.369   2.977   2.198  0.0718 -0.4243  0.0044
    6PEO    C10  180   2.249   3.054   2.153 -0.3216  0.8973  0.2099
    6PEO    H21  181   2.263   3.162   2.140  0.3791  0.4589 -3.3951
    6PEO    H22  182   2.175   3.042   2.232 -0.0657 -0.7614  0.2275
    7PET     C9  183   2.202   2.994   2.014  0.0867 -0.7355 -0.7041
    7PET     H6  184   2.104   3.041   1.999  0.3700 -0.2214 -0.9710
    7PET     H7  185   2.198   2.886   2.033  3.9908 -0.7362  0.4776
    7PET     O2  186   2.304   3.025   1.917 -0.4862 -0.9644 -0.0441
    7PET     C8  187   2.300   3.134   1.845  0.0253  0.6821  0.6470
    7PET     O1  188   2.206   3.215   1.831 -0.3132 -0.8569 -0.4771
    7PET     C4  189   2.442   3.153   1.788  0.4560 -0.2835 -0.1487
    7PET     C5  190   2.557   3.105   1.858  0.2671 -0.0162 -0.2745
    7PET     C6  191   2.675   3.102   1.791 -0.0540 -0.7364  0.0513
    7PET     H4  192   2.760   3.058   1.841 -1.4070  0.1493  3.2811
    7PET     H3  193   2.554   3.076   1.962  0.8548 -0.1766 -0.2979
    7PET     C3  194   2.451   3.192   1.654  0.5703 -0.7423 -0.0562
    7PET     H2  195   2.362   3.202   1.593  1.1778 -0.3848 -0.8989
    7PET     C2  196   2.569   3.179   1.585  0.1830  0.9608 -1.1374
    7PET     H1  197   2.585   3.184   1.477  0.6976 -0.3117 -1.1211
    7PET     C1  198   2.688   3.139   1.655 -0.1045  0.3586 -1.2271
    7PET     C7  199   2.813   3.116   1.582 -0.6089  0.0012  0.5025
    7PET     O3  200   2.825   3.086   1.463  1.3019 -0.0417  0.0073
    7PET     O4  201   2.922   3.128   1.666  0.4025 -0.5437 -0.3867
    7PET    C10  202   3.049   3.054   1.640 -0.1215  0.1164  0.2543
    7PET     H8  203   3.136   3.089   1.697  0.5518 -0.4323 -0.4135
    7PET     H9  204   3.084   3.066   1.536  0.4703  1.6646  0.6202
    7PET    C11  205   3.030   2.900   1.662  0.7460 -0.1958 -0.8233
    7PET    H10  206   3.111   2.844   1.614  0.0226 -1.8916 -0.0763
    7PET    H11  207   2.939   2.874   1.608 -0.7045  1.3461  0.8188
    7PET    C12  208   3.032   2.867   1.810  0.5225  0.7366  0.1827
    7PET    H13  209   2.966   2.924   1.876  1.6321  3.9552 -1.4166
    7PET    H14  210   3.135   2.877   1.846  0.0696 -0.9959  2.0315
    8PET     C9  211   2.986   2.727   1.830  0.4194  1.0800  0.0789
    8PET     H6  212   3.009   2.703   1.935  1.5599  0.0872 -0.3917
    8PET     H7  213   3.038   2.647   1.776 -0.5046  0.9601 -0.6459
    8PET     O2  214   2.851   2.720   1.814  0.3281 -0.0056  1.0111
    8PET     C8  215   2.784   2.599   1.818  0.2887  0.0870  0.1326
    8PET     O1  216   2.830   2.493   1.863  0.2525 -0.2616  0.9772
    8PET     C4  217   2.638   2.607   1.785 -0.2930 -0.2902  0.2508
    8PET     C5  218   2.559   2.487   1.787  0.2344  0.2447  0.6767
    8PET     C6  219   2.417   2.492   1.765 -0.5048  0.3149 -0.3636
    8PET     H4  220   2.352   2.408   1.742 -0.6682  0.3904 -0.1825
    8PET     H3  221   2.599   2.386   1.785 -0.6291 -0.0857 -1.3972
    8PET     C3  222   2.572   2.724   1.769  0.2358 -0.9291 -0.4919
    8PET     H2  223   2.639   2.810   1.767 -0.9684  0.0155 -2.5689
    8PET     C2  224   2.432   2.743   1.755  0.2910 -0.2351 -0.0930
    8PET     H1  225   2.394   2.842   1.731 -2.6956 -0.5696  2.8411
    8PET     C1  226   2.354   2.626   1.761 -0.1957 -0.1265 -0.1560
    8PET     C7  227   2.207   2.634   1.734 -0.2131 -0.4380 -0.3147
    8PET     O3  228   2.129   2.542   1.729  0.2140 -0.5409  0.2183
    8PET     O4  229   2.168   2.758   1.716 -0.1754  0.1817  0.3943
    8PET    C10  230   2.030   2.768   1.707  0.6407 -0.4149 -0.2871
    8PET     H8  231   1.982   2.761   1.806  1.3388  0.3387  0.1108
    8PET     H9  232   1.971   2.709   1.636 -0.8303 -0.2166  0.7499
    8PET    C11  233   2.013   2.916   1.667  0.9558  0.0901 -0.3095
    8PET    H10  234   2.029   2.974   1.759 -1.1376 -0.4927  0.4467
    8PET    H11  235   1.913   2.934   1.625 -0.3610  0.2945  2.7942
    8PET    C12  236   2.084   2.990   1.557 -0.3012  0.6621 -0.2717
    8PET    H13  237   2.186   3.014   1.590 -0.4914  0.6547  0.3263
    8PET    H14  238   2.059   3.097   1.557  2.2872  1.3046  0.0176
    9PET     C9  239   2.095   2.926   1.415  0.5641  0.0682 -0.0429
    9PET     H6  240   2.109   3.011   1.346  1.0804 -2.2603 -2.8903
    9PET     H7  241   2.015   2.867   1.369  3.0108 -0.8214 -3.3758
    9PET     O2  242   2.209   2.840   1.419  0.2907 -0.4190 -0.6399
    9PET     C8  243   2.338   2.890   1.399  0.3326 -0.9205 -0.6052
    9PET     O1  244   2.364   3.009   1.400 -0.4429 -0.0873  0.3913
    9PET     C4  245   2.449   2.793   1.415  0.1127  0.2917 -0.6763
    9PET     C5  246   2.424   2.654   1.408 -0.5837  0.9045 -0.3025
    9PET     C6  247   2.525   2.554   1.441  0.6063  0.4247  0.1545
    9PET     H4  248   2.496   2.451   1.423 -2.0478  1.0054  0.8037
    9PET     H3  249   2.327   2.613   1.380 -1.0475 -1.1464  3.8326
    9PET     C3  250   2.583   2.829   1.451 -0.7014 -0.7462  0.6994
    9PET     H2  251   2.608   2.934   1.463 -3.3897  0.1105 -0.7591
    9PET     C2  252   2.685   2.733   1.473 -0.3469 -0.1638 -1.4239
    9PET     H1  253   2.787   2.764   1.498 -0.0164 -1.8825 -0.5060
    9PET     C1  254   2.655   2.594   1.469 -0.3217 -0.5509  0.4031
    9PET     C7  255   2.768   2.502   1.505 -0.3500  0.3124 -0.2782
    9PET     O3  256   2.882   2.539   1.537 -0.3038  0.3718  0.6885
    9PET     O4  257   2.726   2.369   1.513 -0.1637  0.2759 -0.7787
    9PET    C10  258   2.830   2.273   1.560 -0.1449  0.0766 -1.3994
    9PET     H8  259   2.782   2.205   1.631  0.0341  1.0134 -0.3742
    9PET     H9  260   2.914   2.322   1.609 -2.8045  3.9579 -0.4369
    9PET    C11  261   2.871   2.199   1.434  0.7929 -0.9016  0.2220
    9PET    H10  262   2.902   2.274   1.361  1.0247 -0.1426  1.0871
    9PET    H11  263   2.785   2.141   1.398 -0.1916 -0.3254  1.5577
    9PET    C12  264   2.987   2.109   1.446  1.1298  1.5212 -1.2210
    9PET    H13  265   3.061   2.136   1.522  0.1634  0.2750  0.1649
    9PET    H14  266   3.035   2.104   1.348 -1.7342 -0.9598 -2.5860
   10PET     C9  267   2.946   1.960   1.465 -0.3689 -0.2745  0.8703
   10PET     H6  268   3.031   1.901   1.499  0.9265  0.0652 -1.6514
   10PET     H7  269   2.914   1.913   1.371  1.0152  0.4165  0.0355
   10PET     O2  270   2.856   1.944   1.580  0.2792 -0.1679  0.5631
   10PET     C8  271   2.721   1.924   1.548  0.7482 -0.2511 -0.6992
   10PET     O1  272   2.670   1.924   1.438  0.0465  0.4449  0.0650
   10PET     C4  273   2.651   1.923   1.680  0.2279  0.2323  0.0609
   10PET     C5  274   2.708   1.862   1.795 -0.4412  0.2853 -0.6932
   10PET     C6  275   2.632   1.859   1.918  0.1309 -0.2543 -0.2286
   10PET     H4  276   2.676   1.803   2.001 -0.2239  2.0689  1.5839
   10PET     H3  277   2.792   1.795   1.777 -0.1097  0.8016 -1.0711
   10PET     C3  278   2.532   1.986   1.697  0.2062 -0.2322 -1.0077
   10PET     H2  279   2.487   2.037   1.613 -0.2202 -0.0370 -0.6649
   10PET     C2  280   2.450   1.974   1.815 -0.1376 -0.6761  0.4172
   10PET     H1  281   2.351   2.018   1.825  1.3981  4.1919 -3.4508
   10PET     C1  282   2.508   1.921   1.931 -0.1189  0.2169 -0.4811
   10PET     C7  283   2.436   1.919   2.053  0.6328 -0.0926  0.0734
   10PET     O3  284   2.312   1.926   2.068 -0.0898 -0.5059 -0.6574
   10PET     O4  285   2.522   1.924   2.156 -0.4601  0.4825 -0.2351
   10PET    C10  286   2.479   1.930   2.292 -0.0973 -0.1113 -0.3214
   10PET     H8  287   2.430   1.834   2.314  0.9283 -0.3765  0.8146
   10PET     H9  288   2.396   2.002   2.297 -0.9331 -0.9243 -2.1276
   10PET    C11  289   2.595   1.938   2.387 -0.4611  0.8768 -0.3361
   10PET    H10  290   2.665   1.854   2.379 -0.6824  0.8368 -2.1812
   10PET    H11  291   2.564   1.936   2.492 -4.5208 -0.1397 -1.4670
   10PET    C12  292   2.681   2.057   2.356 -0.3322  0.0750 -0.8470
   10PET    H13  293   2.620   2.147   2.370  0.2203  0.2716  0.4065
   10PET    H14  294   2.713   2.067   2.251  1.5114 -0.4802 -0.3594
   11PET     C9  295   2.799   2.059   2.454 -0.7951 -0.0682 -0.6958
   11PET     H6  296   2.854   1.965   2.466  0.6499  0.3630 -3.4313
   11PET     H7  297   2.762   2.109   2.544 -0.0330  2.6340 -1.8299
   11PET     O2  298   2.906   2.139   2.390 -0.3772  0.5240  0.0360
   11PET     C8  299   2.959   2.084   2.275 -0.5430  0.3715 -0.1481
   11PET     O1  300   2.949   1.963   2.256  0.3726 -0.1947 -0.1612
   11PET     C4  301   3.022   2.190   2.185  0.8202 -0.3910 -0.7306
   11PET     C5  302   3.105   2.297   2.235 -0.5890  0.0547  1.2804
   11PET     C6  303   3.159   2.390   2.141  0.4028  0.4760 -0.5866
   11PET     H4  304   3.191   2.485   2.184  0.7910  0.2280 -0.3255
   11PET     H3  305   3.118   2.308   2.342 -0.1034  0.2240  1.2039
   11PET     C3  306   2.998   2.189   2.046  0.8511 -0.0772  0.4671
   11PET     H2  307   2.923   2.119   2.010  1.7801  0.5914 -2.9019
   11PET     C2  308   3.045   2.282   1.956  0.6160  0.4358 -0.7624
   11PET     H1  309   3.010   2.284   1.853  1.0964 -2.4413 -1.0267
   11PET     C1  310   3.137   2.374   2.001  0.5449  0.3065 -0.0725
   11PET     C7  311   3.209   2.465   1.908 -0.6214  0.6527  0.7310
   11PET     O3  312   3.280   2.554   1.946 -0.5319 -0.6665 -1.4337
   11PET     O4  313   3.209   2.427   1.781 -0.4453 -0.2736  0.3463
   11PET    C10  314   3.296   2.481   1.680 -0.8027 -0.5342  0.2120
   11PET     H8  315   3.281   2.590   1.671  2.3610 -0.1394 -0.8090
   11PET     H9  316   3.280   2.438   1.580 -2.2017 -0.2737  0.3208
   11PET    C11  317   3.444   2.473   1.713  0.4530  0.4367  0.4027
   11PET    H10  318   3.479   2.378   1.671  2.4902  1.1483  0.4295
   11PET    H11  319   3.464   2.457   1.820 -0.0568 -3.8195 -0.0311
   11PET    C12  320   3.532   2.575   1.648 -0.0425 -0.0293  0.3850
   11PET    H13  321   3.529   2.542   1.543  1.1811  1.1606 -0.0403
   11PET    H14  322   3.638   2.561   1.674 -0.3203 -3.5989 -0.1088
   12PET     C9  323   3.498   2.726   1.645 -0.0637 -0.3499  0.4221
   12PET     H6  324   3.403   2.753   1.597  0.0976  1.7424  1.2425
   12PET     H7  325   3.574   2.792   1.604 -1.5712  0.3609 -1.2568
   12PET     O2  326   3.482   2.768   1.782 -0.1252  0.0137  0.0213
   12PET     C8  327   3.449   2.897   1.807  1.2263  0.1720  0.5170
   12PET     O1  328   3.433   2.977   1.719 -0.4090 -0.2701 -0.5118
   12PET     C4  329   3.433   2.934   1.950  0.1052 -0.6562 -0.0754
   12PET     C5  330   3.422   2.835   2.046 -0.0846  0.1204  0.4438
   12PET     C6  331   3.401   2.873   2.187  0.0900 -0.9815 -0.0298
   12PET     H4  332   3.373   2.800   2.262 -0.8816  0.5806  1.1525
   12PET     H3  333   3.417   2.727   2.033 -2.1681 -0.0016  1.9252
   12PET     C3  334   3.406   3.070   1.993 -0.8794  0.3025  0.2206
   12PET     H2  335   3.412   3.147   1.917 -2.3924  1.3247  1.1204
   12PET     C2  336   3.390   3.104   2.127 -0.9690 -0.1967 -0.4717
   12PET     H1  337   3.389   3.210   2.150  1.0448 -0.7041  2.2452
   12PET     C1  338   3.393   3.008   2.227 -0.3025  0.1081  0.9946
   12PET     C7  339   3.382   3.039   2.375  1.1059 -0.3297  0.2775
   12PET     O3  340   3.310   3.135   2.409 -0.0238 -0.7172  0.5106
   12PET     O4  341   3.418   2.945   2.455 -0.4744 -0.4409 -0.0615
   12PET    C10  342   3.374   2.946   2.594  0.4117  0.1416  0.2215
   12PET     H8  343   3.380   2.843   2.629  3.8883 -0.7566 -2.7454
   12PET     H9  344   3.269   2.972   2.611 -0.3180 -0.6368 -2.8141
   12PET    C11  345   3.477   3.029   2.679 -0.7379 -0.5864 -0.5191
   12PET    H10  346   3.448   3.018   2.784  0.1122 -1.4340 -0.3680
   12PET    H11  347   3.467   3.136   2.660 -1.6790 -0.6091 -0.1777
   12PET    C12  348   3.629   2.984   2.683 -0.5067 -1.1581 -0.2954
   12PET    H13  349   3.616   2.878   2.708 -1.7186 -1.2771 -1.4139
   12PET    H14  350   3.676   3.034   2.769 -0.0503 -1.7100 -0.2173
   13PET     C9  351   3.725   3.018   2.568 -0.5552  0.6923 -0.9295
   13PET     H6  352   3.701   2.971   2.472 -0.5002 -2.1708  0.3999
   13PET     H7  353   3.827   2.996   2.600 -1.2569  2.6529  3.0468
   13PET     O2  354   3.710   3.165   2.547 -0.7562  1.0885  0.5596
   13PET     C8  355   3.797   3.250   2.611  0.5261  0.0098  0.0074
   13PET     O1  356   3.897   3.215   2.675 -0.2793 -0.1164 -0.0648
   13PET     C4  357   3.777   3.386   2.558 -0.2556 -0.6521  0.7132
   13PET     C5  358   3.826   3.496   2.628  0.0888  1.2695 -0.2514
   13PET     C6  359   3.798   3.628   2.594  0.5055  0.1776  0.2963
   13PET     H4  360   3.840   3.709   2.652  0.3615  0.8762 -0.5697
   13PET     H3  361   3.871   3.463   2.721  0.4472 -2.6046 -1.7250
   13PET     C3  362   3.703   3.414   2.432  0.8654  0.2618  0.2476
   13PET     H2  363   3.651   3.331   2.386  0.6664  3.0945 -5.0660
   13PET     C2  364   3.694   3.547   2.394  0.1718  0.1069  0.7900
   13PET     H1  365   3.650   3.576   2.299 -2.8937 -0.9075  1.8510
   13PET     C1  366   3.739   3.659   2.470  0.4232  0.5884 -0.1217
   13PET     C7  367   3.712   3.802   2.423 -0.3686  0.7349  0.2664
   13PET     O3  368   3.719   3.896   2.502 -0.5412  0.4226 -0.2073
   13PET     O4  369   3.686   3.815   2.287 -0.2754  0.3257 -0.0305
   13PET    C10  370   3.694   3.941   2.222 -1.1421  0.3318 -0.6091
   13PET     H8  371   3.797   3.977   2.206 -0.9888  0.7437  1.1607
   13PET     H9  372   3.645   4.023   2.275  0.3030  0.1699  1.0391
   13PET    C11  373   3.634   3.933   2.076 -0.0022 -0.3862  0.5701
   13PET    H10  374   3.597   3.833   2.055 -0.7568 -0.2321  1.1378
   13PET    H11  375   3.726   3.935   2.016  0.3662  0.4308  1.1481
   13PET    C12  376   3.532   4.042   2.038  0.2650  0.0894  0.1308
   13PET    H13  377   3.469   4.001   1.959 -1.9266  1.6158  1.0360
   13PET    H14  378   3.581   4.133   2.002  3.0267 -2.4209 -2.7233
   14PET     C9  379   3.420   4.088   2.131  0.7642 -0.4153  0.2820
   14PET     H6  380   3.337   4.092   2.059  2.5200  0.0079 -1.7777
   14PET     H7  381   3.429   4.192   2.164 -2.5228 -0.4195  1.3620
   14PET     O2  382   3.394   4.006   2.241  0.0717  0.2969 -0.1000
   14PET     C8  383   3.373   3.867   2.226 -0.0685 -0.8498  0.2171
   14PET     O1  384   3.347   3.804   2.127  0.1600 -0.5347 -0.0240
   14PET     C4  385   3.378   3.787   2.360 -0.0202 -0.9531 -0.0126
   14PET     C5  386   3.423   3.845   2.479  0.5974  0.2583  0.5691
   14PET     C6  387   3.452   3.767   2.586 -0.4457  0.0034 -1.0431
   14PET     H4  388   3.485   3.823   2.672  0.8669 -0.0709 -1.4843
   14PET     H3  389   3.423   3.954   2.474 -3.0283  0.2687 -1.2709
   14PET     C3  390   3.352   3.646   2.361 -0.2118 -1.1582  0.1302
   14PET     H2  391   3.315   3.595   2.272 -2.2904 -1.9577  1.4137
   14PET     C2  392   3.383   3.562   2.469 -0.6596  0.0995  0.0834
   14PET     H1  393   3.376   3.456   2.450 -3.4096  0.3925 -0.6840
   14PET     C1  394   3.439   3.624   2.582  0.0430 -0.9822  0.4918
   14PET     C7  395   3.473   3.549   2.715 -0.5956 -0.2732  0.9023
   14PET     O3  396   3.477   3.426   2.713 -0.2955 -0.0802  0.1971
   14PET     O4  397   3.524   3.636   2.817  0.7228 -0.1798  0.3581
   14PET    C10  398   3.579   3.566   2.930  0.2517  0.1854  0.0885
   14PET     H8  399   3.652   3.494   2.891 -1.0038 -0.0789 -1.8619
   14PET     H9  400   3.500   3.506   2.976 -3.1579  3.6082 -1.0263
   14PET    C11  401   3.642   3.668   3.033 -0.4656  0.0057 -0.6534
   14PET    H10  402   3.560   3.721   3.084 -1.1132  0.8719 -2.5536
   14PET    H11  403   3.715   3.730   2.980 -0.5954 -1.2882 -2.3708
   14PET    C12  404   3.721   3.596   3.150 -0.1922  1.1615 -0.2309
   14PET    H13  405   3.639   3.533   3.188 -0.7205  1.7486 -0.3756
   14PET    H14  406   3.749   3.674   3.222  0.4271 -0.4235  1.2576
   15PET     C9  407   3.845   3.513   3.113  0.3897  0.7409 -1.0950
   15PET     H6  408   3.917   3.526   3.195  2.0300 -1.1908 -2.1972
   15PET     H7  409   3.903   3.546   3.027  0.8757  2.6605 -0.0581
   15PET     O2  410   3.796   3.374   3.105  0.1850  0.0100  0.1755
   15PET     C8  411   3.887   3.266   3.126  0.0556  0.1078 -0.8045
   15PET     O1  412   4.004   3.289   3.158 -0.6827  0.3744  0.5601
   15PET     C4  413   3.841   3.125   3.092  0.0548  0.9522  0.8451
   15PET     C5  414   3.703   3.094   3.095  0.1052  0.4943  0.6142
   15PET     C6  415   3.658   2.961   3.060  0.8875  0.4129 -0.5739
   15PET     H4  416   3.553   2.932   3.064  1.0576 -0.1547 -0.2116
   15PET     H3  417   3.628   3.172   3.107 -1.3216 -0.0337 -3.9520
   15PET     C3  418   3.932   3.028   3.076 -0.5307  0.6114  0.6147
   15PET     H2  419   4.036   3.051   3.092 -0.5212  1.0029  0.0108
   15PET     C2  420   3.889   2.892   3.051  0.0686  0.6798 -0.0223
   15PET     H1  421   3.973   2.827   3.030 -0.2571 -0.2660  1.5425
   15PET     C1  422   3.751   2.858   3.036 -0.7009  0.5741  0.0028
   15PET     C7  423   3.708   2.719   2.995  0.3239  0.1868  0.2143
   15PET     O3  424   3.598   2.670   3.020 -0.1122  0.0219  0.6589
   15PET     O4  425   3.794   2.660   2.911 -0.1081  0.5868 -0.1983
   15PET    C10  426   3.761   2.523   2.869 -0.1955 -0.3258  0.2377
   15PET     H8  427   3.725   2.446   2.938  0.5895 -1.8220 -0.9846
   15PET     H9  428   3.857   2.482   2.836  0.8388  2.6971 -0.6133
   15PET    C11  429   3.666   2.531   2.744 -0.0773 -0.2163 -0.2326
   15PET    H10  430   3.666   2.634   2.707  1.8196  0.6864  2.1364
   15PET    H11  431   3.564   2.512   2.779  0.0671 -0.8641 -0.1539
   15PET    C12  432   3.712   2.440   2.635  0.8105  0.1170 -0.0460
   15PET    H13  433   3.730   2.341   2.678 -0.1609  1.0073  2.4667
   15PET    H14  434   3.809   2.472   2.595  0.1549  1.3910 -0.6203
   16PET     C9  435   3.615   2.448   2.514 -1.2393  0.4241  1.1494
   16PET     H6  436   3.654   2.387   2.432 -1.7189  1.6213  0.0042
   16PET     H7  437   3.620   2.551   2.476 -0.5922 -0.5311 -1.4828
   16PET     O2  438   3.479   2.424   2.559 -0.1163 -0.3044 -0.1704
   16PET     C8  439   3.383   2.494   2.492 -0.1241 -0.1565 -0.6335
   16PET     O1  440   3.401   2.573   2.398 -0.3469 -0.1312  1.0603
   16PET     C4  441   3.240   2.464   2.547  0.0392 -0.4380  0.1479
   16PET     C5  442   3.135   2.549   2.512  0.1327  0.6552 -0.0825
   16PET     C6  443   3.004   2.521   2.553 -0.7987  0.1722 -1.0148
   16PET     H4  444   2.927   2.598   2.553 -1.0560 -0.0653  0.3904
   16PET     H3  445   3.151   2.653   2.484 -1.3465  1.0315  0.4073
   16PET     C3  446   3.221   2.336   2.608 -0.4812  0.3527 -0.0505
   16PET     H2  447   3.298   2.265   2.639  1.8503  2.3245 -1.1422
   16PET     C2  448   3.086   2.301   2.633  0.3652 -0.3844 -0.1548
   16PET     H1  449   3.080   2.209   2.690  1.0834  0.1586  0.8139
   16PET     C1  450   2.975   2.392   2.619 -0.8274 -0.0891  0.0425
   16PET     C7  451   2.844   2.363   2.675  1.2558 -0.1947 -0.2925
   16PET     O3  452   2.816   2.263   2.742  0.0130 -0.1455 -0.0722
   16PET     O4  453   2.747   2.441   2.627  0.5183 -0.3324  0.3661
   16PET    C10  454   2.609   2.420   2.652 -0.1484  0.1721  0.8830
   16PET     H8  455   2.594   2.427   2.760  0.0103  2.3354  0.7832
   16PET     H9  456   2.582   2.324   2.604 -0.7903 -1.7125  4.8148
   16PET    C11  457   2.530   2.525   2.563  0.4946  0.0026 -0.3582
   16PET    H10  458   2.577   2.534   2.465  2.1392 -6.6426 -0.3709
   16PET    H11  459   2.535   2.620   2.619 -1.8801  0.3547 -0.6846
   16PET    C12  460   2.379   2.503   2.546 -0.0070  0.5116  0.2332
   16PET    H13  461   2.374   2.419   2.476 -0.7931  0.7277  0.0309
   16PET    H14  462   2.334   2.583   2.487  0.4958 -2.3914 -4.3228
   17PET     C9  463   2.304   2.475   2.678  0.2856  0.4031 -0.4015
   17PET     H6  464   2.197   2.487   2.662  0.6157  1.1061 -2.1920
   17PET     H7  465   2.322   2.550   2.756 -3.1956  0.5969  0.2864
   17PET     O2  466   2.329   2.331   2.701  0.4561 -0.3713  0.3064
   17PET     C8  467   2.245   2.265   2.793 -0.0824  0.1553  0.2596
   17PET     O1  468   2.166   2.323   2.860  0.0424 -0.0996 -1.0048
   17PET     C4  469   2.276   2.116   2.820 -0.3668 -0.6039  0.2333
   17PET     C5  470   2.375   2.047   2.750  0.3333  0.1197 -0.1055
   17PET     C6  471   2.395   1.912   2.775 -0.0773  0.5826 -1.0934
   17PET     H4  472   2.465   1.854   2.717  0.8263  0.5897 -0.0376
   17PET     H3  473   2.429   2.089   2.666 -0.5201 -1.3629 -1.4336
   17PET     C3  474   2.196   2.047   2.917 -0.0487 -0.2257  0.0191
   17PET     H2  475   2.104   2.096   2.947  1.0626  1.2707  1.0788
   17PET     C2  476   2.213   1.905   2.932 -0.4245 -0.1222 -0.1749
   17PET     H1  477   2.147   1.846   2.995 -1.5143  1.4473  0.1824
   17PET     C1  478   2.314   1.839   2.867  0.6110  0.6070  0.7885
   17PET     C7  479   2.328   1.689   2.888  0.1533 -0.1149  0.9378
   17PET     O3  480   2.238   1.619   2.934 -0.3793  0.1150 -0.2166
   17PET     O4  481   2.448   1.632   2.836  0.4097  0.2706 -0.5983
   17PET    C10  482   2.474   1.493   2.841 -0.4491  0.4813 -0.2704
   17PET     H8  483   2.562   1.470   2.779  0.2709 -1.5282  1.4355
   17PET     H9  484   2.378   1.442   2.828  0.2055 -1.9351  3.4507
   17PET    C11  485   2.516   1.461   2.978  0.0737  0.8076 -0.7320
   17PET    H10  486   2.443   1.495   3.052  0.5941  0.2531  0.0362
   17PET    H11  487   2.612   1.506   3.006 -0.4819 -0.2232  3.1533
   17PET    C12  488   2.535   1.306   3.010 -0.4763  0.2730  0.0734
   17PET    H13  489   2.542   1.288   3.118  0.0121 -2.2001 -0.3519
   17PET    H14  490   2.623   1.266   2.959  0.5238  3.0331 -0.4704
   18PET     C9  491   2.429   1.212   2.960  0.0607 -0.5596  0.7407
   18PET     H6  492   2.448   1.108   2.988 -0.2646 -0.7164  0.3794
   18PET     H7  493   2.422   1.222   2.851  2.1722  2.6019  0.8097
   18PET     O2  494   2.313   1.269   3.014 -0.3972 -0.0207 -0.0024
   18PET     C8  495   2.187   1.207   2.994  0.9196 -0.7342 -0.2301
   18PET     O1  496   2.175   1.100   2.940  0.6016 -0.0290  1.1146
   18PET     C4  497   2.078   1.284   3.055  0.2741 -0.6520 -0.3998
   18PET     C5  498   2.093   1.394   3.141 -0.1283  0.9187 -0.5909
   18PET     C6  499   1.980   1.474   3.176  0.5308 -0.2550  0.2353
   18PET     H4  500   1.995   1.564   3.235 -0.9835  1.0591 -1.3018
   18PET     H3  501   2.192   1.422   3.177  0.6885  1.5339 -3.2298
   18PET     C3  502   1.945   1.259   3.007 -0.4392 -0.2297  0.2292
   18PET     H2  503   1.940   1.186   2.927  0.5653 -0.5879  0.4867
   18PET     C2  504   1.834   1.338   3.043  0.7254 -0.2421 -0.3062
   18PET     H1  505   1.740   1.322   2.991  0.2827 -0.3219  0.5012
   18PET     C1  506   1.847   1.448   3.127 -0.0852  0.1028  0.1638
   18PET     C7  507   1.720   1.532   3.160  0.2437 -0.1700 -0.4761
   18PET     O3  508   1.612   1.524   3.109  0.5734 -0.8026  0.2422
   18PET     O4  509   1.755   1.632   3.246 -0.2186  0.5677  0.0760
   18PET    C10  510   1.654   1.718   3.284  1.1096 -0.1400 -0.1485
   18PET     H8  511   1.561   1.661   3.299  0.4162  0.1884 -2.8987
   18PET     H9  512   1.633   1.795   3.209  1.8258  0.7150  0.5144
   18PET    C11  513   1.705   1.805   3.413 -0.3646  1.0865  0.2895
   18PET    H10  514   1.622   1.867   3.448 -1.6996  0.2165 -1.2876
   18PET    H11  515   1.778   1.859   3.351  0.0288 -2.2350 -2.3198
   18PET    C12  516   1.769   1.722   3.527  0.4799 -0.2079  0.1893
   18PET    H13  517   1.859   1.666   3.499  1.4489  1.2519  0.3022
   18PET    H14  518   1.689   1.659   3.569 -0.1914  1.4527  1.4972
   19PET     C9  519   1.802   1.822   3.637  0.1460  0.6762  0.1779
   19PET     H6  520   1.775   1.780   3.735 -1.6063 -1.0376 -1.0216
   19PET     H7  521   1.734   1.908   3.626  1.6184  1.4476 -3.3926
   19PET     O2  522   1.934   1.853   3.630  0.0970 -0.3610 -0.4350
   19PET     C8  523   1.979   1.983   3.648 -0.1624 -0.1459  0.2137
   19PET     O1  524   1.904   2.075   3.681  0.4314 -0.2280  0.3952
   19PET     C4  525   2.122   1.996   3.612  0.8279 -0.5291  0.3496
   19PET     C5  526   2.188   1.906   3.521  0.0379 -0.5448 -0.5139
   19PET     C6  527   2.317   1.941   3.476  0.2048 -0.2394  0.4852
   19PET     H4  528   2.370   1.887   3.398 -0.2142 -0.8221  0.6017
   19PET     H3  529   2.132   1.832   3.465  0.8844 -1.1096 -0.6198
   19PET     C3  530   2.193   2.099   3.667 -0.2733  0.7807  0.6794
   19PET     H2  531   2.153   2.162   3.745  1.5792 -1.9516  3.9915
   19PET     C2  532   2.336   2.110   3.636 -0.3905  0.9847 -0.2189
   19PET     H1  533   2.390   2.195   3.676 -0.5961  1.0726 -0.1278
   19PET     C1  534   2.394   2.026   3.545  0.3624 -0.4056  0.1913
   19PET     C7  535   2.544   2.058   3.509 -0.1748  0.0816  0.3125
   19PET     O3  536   2.625   2.113   3.590 -0.3461  0.0193  0.3659
   19PET     O4  537   2.577   2.042   3.376 -0.2778  0.2889  1.0704
   19PET    C10  538   2.711   2.051   3.325 -0.1206 -0.0850 -0.5111
   19PET     H8  539   2.774   1.970   3.363 -0.8942  0.8571  3.0065
   19PET     H9  540   2.754   2.145   3.361  1.0288 -2.3190  4.3025
   19PET    C11  541   2.708   2.047   3.164  0.3009 -0.0114 -0.1764
   19PET    H10  542   2.806   2.024   3.122  2.1559  2.0494  2.9108
   19PET    H11  543   2.678   2.152   3.148 -0.4487 -0.5619 -2.6574
   19PET    C12  544   2.603   1.963   3.095 -0.1865  0.9467 -0.2566
   19PET    H13  545   2.573   2.011   3.001  0.7302 -3.3598 -2.8884
   19PET    H14  546   2.512   1.967   3.156  0.0214 -1.6115  0.2601
   20PET     C9  547   2.643   1.808   3.076 -0.9129  0.7778  1.8213
   20PET     H6  548   2.570   1.742   3.027  3.0303 -2.6323  0.2496
   20PET     H7  549   2.633   1.762   3.175  2.2396  0.8845  2.2239
   20PET     O2  550   2.782   1.808   3.027 -0.4898  0.1101  0.5386
   20PET     C8  551   2.802   1.801   2.891  0.2598 -0.1172 -0.5223
   20PET     O1  552   2.713   1.773   2.809 -0.2300  0.8935 -0.0474
   20PET     C4  553   2.941   1.822   2.849 -0.9024 -0.1100  0.0342
   20PET     C5  554   3.038   1.857   2.947 -0.0230  0.0389 -0.0966
   20PET     C6  555   3.173   1.863   2.913 -0.0581 -0.0522  0.4058
   20PET     H4  556   3.255   1.862   2.983  0.9916  0.3956 -0.7905
   20PET     H3  557   3.027   1.852   3.055  0.6356  2.4559  0.1099
   20PET     C3  558   2.976   1.828   2.715  0.2496  0.2374 -0.4481
   20PET     H2  559   2.905   1.801   2.638  0.1773  1.3417 -0.7767
   20PET     C2  560   3.113   1.855   2.677  0.8044 -0.1271 -0.3477
   20PET     H1  561   3.127   1.851   2.569 -1.9979 -1.7043 -0.7078
   20PET     C1  562   3.210   1.869   2.778 -0.3203 -0.0615 -0.1132
   20PET     C7  563   3.356   1.881   2.730  0.6879  0.5010  0.2478
   20PET     O3  564   3.385   1.895   2.615 -0.0947 -0.0583  0.3148
   20PET     O4  565   3.449   1.865   2.829 -0.4160 -0.3674  0.1674
   20PET    C10  566   3.582   1.891   2.784 -0.3096 -0.3946 -0.6789
   20PET     H8  567   3.594   1.849   2.684 -2.8968 -2.0785 -0.3205
   20PET     H9  568   3.662   1.849   2.847  0.0746  0.4284 -0.6069
   20PET    C11  569   3.596   2.044   2.798  0.4234  0.4189  0.2955
   20PET    H10  570   3.512   2.084   2.739  1.2415  0.0404 -1.1586
   20PET    H11  571   3.684   2.086   2.748  1.1631 -0.8115  0.5542
   20PET    C12  572   3.604   2.102   2.934 -0.0028  0.1293  0.4952
   20PET    H13  573   3.677   2.183   2.935 -1.0325  1.0797  0.0236
   20PET    H14  574   3.655   2.029   2.999 -0.3367 -0.8562 -0.3237
   21PET     C9  575   3.475   2.128   3.007  0.3164  0.0790  0.2839
   21PET     H6  576   3.500   2.136   3.114 -0.6399  2.4505  0.3564
   21PET     H7  577   3.403   2.046   2.998  0.9600 -0.6741  1.7870
   21PET     O2  578   3.411   2.255   2.961  0.0779  0.6200 -0.1634
   21PET     C8  579   3.276   2.257   2.971  0.0400  0.5171  0.1746
   21PET     O1  580   3.208   2.157   2.985  0.3815  0.4917 -0.7024
   21PET     C4  581   3.219   2.398   2.950 -0.6404 -0.4326  0.3811
   21PET     C5  582   3.081   2.425   2.956 -0.7849  0.4658  0.6759
   21PET     C6  583   3.033   2.547   2.941  0.9531 -0.0452  0.1050
   21PET     H4  584   2.926   2.568   2.944  1.0949  0.9453 -0.9913
   21PET     H3  585   3.015   2.342   2.978 -2.6581  2.5627  3.2967
   21PET     C3  586   3.309   2.505   2.935 -0.0505  0.5253 -0.4960
   21PET     H2  587   3.416   2.492   2.948 -0.4493 -2.8101 -0.2023
   21PET     C2  588   3.263   2.631   2.915 -0.0638 -0.0063 -0.1130
   21PET     H1  589   3.333   2.713   2.903  0.0686 -0.3680 -2.0852
   21PET     C1  590   3.123   2.651   2.915 -0.1070  0.6577 -0.2012
   21PET     C7  591   3.075   2.792   2.887 -0.1755  0.0342  0.3193
   21PET     O3  592   3.153   2.892   2.900  0.4488 -0.4151  0.1036
   21PET     O4  593   2.958   2.794   2.813  0.3051  0.0237 -0.5234
   21PET    C10  594   2.903   2.920   2.781  0.9225 -0.0912 -0.1258
   21PET     H8  595   2.972   2.988   2.729  0.9619 -1.0210 -1.3211
   21PET     H9  596   2.881   2.974   2.874 -0.6042  1.1902 -1.2073
   21PET    C11  597   2.772   2.906   2.701 -0.2486  0.2141  0.3974
   21PET    H10  598   2.798   2.884   2.597  0.2472  3.9801 -0.3512
   21PET    H11  599   2.724   3.005   2.698 -1.7489 -0.4997  0.3386
   21PET    C12  600   2.676   2.811   2.762 -0.1041 -0.2038 -0.2271
   21PET    H13  601   2.726   2.713   2.751  2.3578  1.2521 -2.5476
   21PET    H14  602   2.589   2.800   2.696  0.9657  0.3605 -1.7494
   22PET     C9  603   2.645   2.849   2.913 -0.3919 -0.6401  0.5559
   22PET     H6  604   2.609   2.953   2.922  2.3145  0.4561 -0.8445
   22PET     H7  605   2.741   2.840   2.964  0.0339  0.8691  0.0429
   22PET     O2  606   2.548   2.763   2.975 -0.5612  0.4319  0.4359
   22PET     C8  607   2.594   2.632   2.993  1.0385  0.0845  0.6256
   22PET     O1  608   2.711   2.605   2.984 -0.5608 -0.0107 -0.3198
   22PET     C4  609   2.490   2.531   3.044  0.3610  0.0179  0.1043
   22PET     C5  610   2.360   2.566   3.061  0.4974  0.2683 -0.5748
   22PET     C6  611   2.256   2.482   3.106 -0.7633 -0.7559 -0.3674
   22PET     H4  612   2.151   2.508   3.119 -0.1130  2.6917 -1.3781
   22PET     H3  613   2.327   2.669   3.050 -3.3903 -0.5265  2.4042
   22PET     C3  614   2.523   2.397   3.069  0.3416 -0.2361 -0.3015
   22PET     H2  615   2.626   2.361   3.062 -0.1268 -1.7699  0.3613
   22PET     C2  616   2.428   2.309   3.114  0.1337  0.2376 -0.5867
   22PET     H1  617   2.462   2.207   3.127  1.7632  0.6217 -1.6751
   22PET     C1  618   2.292   2.347   3.136  0.5270 -0.4965  0.2081
   22PET     C7  619   2.203   2.249   3.197 -0.2844  0.3561  0.7187
   22PET     O3  620   2.240   2.139   3.228 -0.0696 -0.6187 -0.2566
   22PET     O4  621   2.080   2.295   3.236 -0.2026 -0.2653 -0.0403
   22PET    C10  622   1.993   2.207   3.316 -0.0550 -0.6953 -0.4638
   22PET     H8  623   2.030   2.178   3.415 -0.8876 -2.0366 -0.5453
   22PET     H9  624   1.967   2.118   3.258 -2.6077  1.0138 -2.0522
   22PET    C11  625   1.867   2.298   3.331  0.3480 -0.3388 -0.3057
   22PET    H10  626   1.791   2.232   3.374 -0.2247 -0.5403 -1.5867
   22PET    H11  627   1.828   2.334   3.235 -0.4330  4.4632  1.6937
   22PET    C12  628   1.883   2.424   3.415 -0.5584  0.0845  0.3212
   22PET    H13  629   1.790   2.482   3.420 -0.8634 -0.3927  0.2226
   22PET    H14  630   1.952   2.488   3.359  2.4685 -1.9119  1.6059
   23PET     C9  631   1.935   2.414   3.557  0.2270  0.2916  0.4723
   23PET     H6  632   1.880   2.336   3.611 -0.7920  0.6107 -0.1001
   23PET     H7  633   1.900   2.509   3.597  0.3524  1.1380 -1.3507
   23PET     O2  634   2.082   2.407   3.543  0.6221 -0.1697  0.1743
   23PET     C8  635   2.150   2.521   3.519  0.2141  0.6540 -0.1524
   23PET     O1  636   2.097   2.627   3.529  0.2191  0.2310 -0.2865
   23PET     C4  637   2.291   2.513   3.479 -1.1459 -0.3606 -0.0876
   23PET     C5  638   2.387   2.619   3.493  0.9201 -0.1636 -0.1080
   23PET     C6  639   2.517   2.613   3.451  0.5922 -0.0171 -1.0736
   23PET     H4  640   2.575   2.703   3.435  0.3495  0.3696  0.1302
   23PET     H3  641   2.358   2.719   3.525  0.3064 -0.4701  0.3215
   23PET     C3  642   2.348   2.393   3.439 -0.0475 -0.1034 -0.6801
   23PET     H2  643   2.281   2.308   3.432 -2.2675  1.7349 -2.5557
   23PET     C2  644   2.480   2.381   3.405 -0.8964 -0.4630  0.7570
   23PET     H1  645   2.523   2.287   3.373 -1.9570 -0.1902 -1.5612
   23PET     C1  646   2.574   2.489   3.415  0.9450 -0.1404  0.1829
   23PET     C7  647   2.713   2.468   3.363  0.5921 -0.0125  0.1990
   23PET     O3  648   2.734   2.372   3.281  0.3888  0.0939 -0.9163
   23PET     O4  649   2.808   2.557   3.412  0.2200 -0.0854 -0.9520
   23PET    C10  650   2.948   2.548   3.382  0.6355  0.3666  0.4631
   23PET     H8  651   2.982   2.445   3.363  3.0064  1.3679 -0.9507
   23PET     H9  652   3.019   2.585   3.458  2.0902 -1.6985  0.1489
   23PET    C11  653   2.955   2.611   3.242  0.2174 -0.2935 -0.3134
   23PET    H10  654   2.880   2.570   3.173 -1.5244  2.9364 -0.4438
   23PET    H11  655   3.058   2.587   3.214  0.2465 -1.8283  1.0240
   23PET    C12  656   2.933   2.761   3.227  1.1610  0.4571  1.1361
   23PET    H13  657   2.946   2.777   3.119 -0.7709  1.8664  1.0834
   23PET    H14  658   3.015   2.824   3.264  1.0379  0.6577  1.0728
   24PET     C9  659   2.802   2.817   3.281 -0.3250 -0.4716  0.7609
   24PET     H6  660   2.812   2.818   3.390  1.6658 -0.7962  0.6068
   24PET     H7  661   2.716   2.755   3.254 -0.3512 -1.3602  2.7970
   24PET     O2  662   2.795   2.950   3.233  0.1296 -0.2680  1.2687
   24PET     C8  663   2.675   3.012   3.245 -0.5042 -0.3898  0.0146
   24PET     O1  664   2.581   2.949   3.287  0.9294 -0.3991 -0.0094
   24PET     C4  665   2.666   3.147   3.199 -1.5010 -1.1760 -0.4496
   24PET     C5  666   2.780   3.203   3.126  0.1171 -1.3243  0.3408
   24PET     C6  667   2.778   3.333   3.077 -0.3042  0.5106  0.0793
   24PET     H4  668   2.870   3.376   3.038  0.6375 -1.4938 -0.0026
   24PET     H3  669   2.870   3.144   3.110 -0.3231 -1.7400 -0.6872
   24PET     C3  670   2.566   3.235   3.243 -0.7588 -0.0310  0.7392
   24PET     H2  671   2.492   3.199   3.313 -3.6269 -3.1669 -3.6195
   24PET     C2  672   2.558   3.365   3.184  0.6105 -0.5005 -0.4751
   24PET     H1  673   2.467   3.419   3.212  0.8762  0.8405 -2.1016
   24PET     C1  674   2.667   3.415   3.108  0.3966 -0.2335  0.4369
   24PET     C7  675   2.658   3.557   3.065 -0.5632  0.3371 -0.2029
   24PET     O3  676   2.579   3.634   3.120  0.3896  0.1509  0.3552
   24PET     O4  677   2.772   3.606   3.006  0.0884  0.4613  0.5524
   24PET    C10  678   2.774   3.731   2.937  0.7654  0.5615  0.1322
   24PET     H8  679   2.874   3.745   2.894  1.0034 -0.3891  0.3784
   24PET     H9  680   2.738   3.810   3.004  0.0181 -0.0462  0.4548
   24PET    C11  681   2.672   3.728   2.816 -0.1352  0.4568  0.0577
   24PET    H10  682   2.652   3.830   2.781  1.1491  1.0344  0.9652
   24PET    H11  683   2.572   3.694   2.844 -0.4490  1.4441  0.1765
   24PET    C12  684   2.719   3.654   2.682  0.1494  0.8865  0.5444
   24PET    H13  685   2.814   3.700   2.655  0.5502  0.5094  1.3048
   24PET    H14  686   2.638   3.672   2.611 -0.5388 -1.2654  0.7607
   25PEO     C1  687   2.736   3.497   2.685 -0.1641  0.2327 -0.0237
   25PEO     H3  688   2.831   3.460   2.727 -0.4628 -1.8320 -1.1254
   25PEO     H4  689   2.742   3.459   2.583 -1.9654 -0.2532  0.0379
   25PEO      O  690   2.621   3.427   2.749  0.0308  0.1447 -0.1098
   25PEO     C2  691   2.615   3.286   2.717 -0.4495  0.1083  0.4350
   25PEO     H5  692   2.699   3.239   2.769  1.6856  1.9736 -1.2203
   25PEO     H6  693   2.628   3.263   2.611  0.2981  0.2744  0.4899
   25PEO     C3  694   2.477   3.235   2.779  0.0489 -0.0091 -0.5489
   25PEO     H7  695   2.453   3.264   2.882 -0.6330 -2.7759  0.1142
   25PEO     H8  696   2.482   3.126   2.776  0.7397  0.0045 -0.0049
   25PEO     O1  697   2.372   3.273   2.686 -0.0497 -0.1176  0.0995
   25PEO     C4  698   2.337   3.410   2.694  0.2453  0.4497  0.4660
   25PEO     H9  699   2.419   3.477   2.667 -0.4533  1.1857  0.1803
   25PEO    H10  700   2.300   3.421   2.797  0.1797  1.5926  0.3164
   25PEO     C5  701   2.224   3.437   2.601  0.0259  0.7365  0.9834
   25PEO    H11  702   2.132   3.486   2.635 -0.9941  0.0502 -0.7180
   25PEO    H12  703   2.190   3.339   2.565 -1.1756  1.3127  0.5409
   25PEO     O2  704   2.284   3.512   2.488  0.4122 -0.4879  0.2002
   25PEO     C6  705   2.295   3.652   2.522  0.0535 -0.5640  0.2340
   25PEO    H13  706   2.357   3.660   2.612 -1.3966 -0.4374  1.2464
   25PEO    H14  707   2.195   3.681   2.559 -0.3090 -0.8097 -0.5450
   25PEO     C7  708   2.344   3.743   2.405 -0.7529 -0.2333 -0.6961
   25PEO    H15  709   2.286   3.835   2.419  0.1775  0.5302 -1.8184
   25PEO    H16  710   2.322   3.705   2.304  1.1780 -0.1816 -1.1429
   25PEO     O3  711   2.489   3.776   2.416 -0.6125  0.3094  0.0076
   25PEO     C8  712   2.549   3.865   2.316  0.1084  0.0981  0.2583
   25PEO    H17  713   2.511   3.968   2.323  1.8807  1.2420 -4.6131
   25PEO    H18  714   2.532   3.846   2.209 -1.9317  1.6907  0.2629
   25PEO     C9  715   2.699   3.888   2.343  0.6027 -0.5741  0.3504
   25PEO    H19  716   2.753   3.802   2.302  2.4762  0.1962  1.1577
   25PEO    H20  717   2.705   3.911   2.450  0.1617 -0.4069  0.3420
   25PEO     O4  718   2.735   3.999   2.272  0.3761 -0.6644 -0.3393
   25PEO    C10  719   2.863   4.058   2.301  0.0678  1.0652 -0.1037
   25PEO    H21  720   2.860   4.057   2.411  0.2447 -2.1197 -0.0667
   25PEO    H22  721   2.868   4.160   2.262  0.3005  0.8311 -0.6985
   26PET     C9  722   2.974   3.982   2.230 -0.3189 -0.3991 -1.1135
   26PET     H6  723   3.068   4.037   2.213  0.2092 -1.1062 -0.5545
   26PET     H7  724   2.940   3.951   2.131  2.5227  1.4523 -2.7416
   26PET     O2  725   3.000   3.866   2.307 -0.5303 -0.0363  0.0523
   26PET     C8  726   3.063   3.876   2.424 -0.5841  0.4791  0.4908
   26PET     O1  727   3.118   3.979   2.468 -0.3898  0.5923 -0.3447
   26PET     C4  728   3.052   3.738   2.493 -0.6524  0.4897 -0.5556
   26PET     C5  729   3.013   3.616   2.425 -0.1495 -1.0939 -0.2286
   26PET     C6  730   3.018   3.487   2.479 -0.0121 -0.1902  0.5109
   26PET     H4  731   2.985   3.395   2.432 -2.4485  0.6805  0.3956
   26PET     H3  732   2.968   3.623   2.326  0.4573  1.9131 -0.3550
   26PET     C3  733   3.098   3.723   2.628 -0.0565  1.1887  0.8474
   26PET     H2  734   3.123   3.811   2.687  2.2468  0.3633  1.1426
   26PET     C2  735   3.110   3.593   2.684  0.3318 -0.5371 -0.3995
   26PET     H1  736   3.153   3.592   2.783  0.4674  1.5853 -0.4154
   26PET     C1  737   3.066   3.478   2.609  0.4592 -0.2214 -0.4490
   26PET     C7  738   3.046   3.351   2.685  0.2774 -0.6376  0.3608
   26PET     O3  739   2.995   3.249   2.640 -0.1884 -0.0285  0.6535
   26PET     O4  740   3.114   3.344   2.797 -0.8437 -0.0936 -0.1445
   26PET    C10  741   3.134   3.216   2.866  0.0311 -0.2089  0.2400
   26PET     H8  742   3.205   3.157   2.806  0.9425  1.3092 -0.1892
   26PET     H9  743   3.045   3.155   2.888  0.8790 -1.2094  0.9955
   26PET    C11  744   3.190   3.242   3.007 -0.2784 -0.1744 -0.2525
   26PET    H10  745   3.216   3.148   3.058 -0.3102  2.1347  4.2808
   26PET    H11  746   3.104   3.266   3.070  2.2221 -1.5348  3.8585
   26PET    C12  747   3.296   3.352   3.021  0.7675  0.6502 -0.1955
   26PET    H13  748   3.256   3.445   2.981  1.1899  0.0622 -2.0089
   26PET    H14  749   3.376   3.330   2.950 -0.2210 -2.6554 -0.3826
   27PET     C9  750   3.335   3.392   3.168 -0.3126  0.7877  0.3075
   27PET     H6  751   3.344   3.501   3.179 -0.7526  0.7943  0.6208
   27PET     H7  752   3.433   3.350   3.192 -1.4498 -2.6964 -0.7706
   27PET     O2  753   3.247   3.330   3.264  0.4574 -0.2195 -0.5537
   27PET     C8  754   3.122   3.400   3.277 -0.9629  0.0309  0.0673
   27PET     O1  755   3.109   3.512   3.230 -0.7075  0.6676  0.2096
   27PET     C4  756   3.015   3.331   3.361 -0.9720 -0.1868  0.4037
   27PET     C5  757   3.037   3.205   3.408  0.1668  0.0742  0.8287
   27PET     C6  758   2.941   3.140   3.485 -0.1416 -0.4874 -1.1417
   27PET     H4  759   2.977   3.041   3.513 -1.2373 -0.4210  0.5727
   27PET     H3  760   3.130   3.154   3.387 -0.3530 -0.9744  1.0862
   27PET     C3  761   2.894   3.390   3.381  0.1013 -0.3201  0.8779
   27PET     H2  762   2.869   3.489   3.344  1.2519 -1.2183 -2.4681
   27PET     C2  763   2.801   3.330   3.465  0.2383 -0.4027  0.8955
   27PET     H1  764   2.705   3.380   3.480  0.2936 -0.2324  0.6886
   27PET     C1  765   2.820   3.194   3.513 -0.4068 -0.3922  0.1994
   27PET     C7  766   2.712   3.120   3.581  0.6251  0.2277 -1.0016
   27PET     O3  767   2.603   3.167   3.615  0.7371 -0.7236  0.7526
   27PET     O4  768   2.752   2.998   3.623 -0.3060  0.1325 -1.1153
   27PET    C10  769   2.658   2.915   3.697  0.8447 -0.6919  0.5705
   27PET     H8  770   2.584   2.877   3.625  1.6197 -2.4187  0.6357
   27PET     H9  771   2.605   2.965   3.779 -2.6906 -2.3227 -0.6451
   27PET    C11  772   2.734   2.784   3.733  0.8340  0.3989  0.6974
   27PET    H10  773   2.826   2.803   3.790  2.0190  2.3184 -1.7455
   27PET    H11  774   2.769   2.746   3.637  1.8442  0.7135  0.9368
   27PET    C12  775   2.657   2.672   3.801  0.5079  0.8792 -0.3399
   27PET    H13  776   2.574   2.638   3.739  1.7617 -0.7341 -1.1651
   27PET    H14  777   2.599   2.716   3.883  0.4704 -1.0317  0.6778
   28PEO     C1  778   2.762   2.554   3.845  0.2617  0.9209 -0.5323
   28PEO     H3  779   2.845   2.546   3.774  0.6140 -0.7525  0.0413
   28PEO     H4  780   2.715   2.456   3.856 -0.1950  1.5816  5.2855
   28PEO      O  781   2.828   2.596   3.960 -0.0730  0.7214 -0.0817
   28PEO     C2  782   2.929   2.499   4.005  0.4634 -1.1404 -0.4226
   28PEO     H5  783   2.913   2.394   3.979 -0.8773 -1.4660  1.5983
   28PEO     H6  784   2.935   2.502   4.115 -0.3178 -1.2021 -0.3782
   28PEO     C3  785   3.056   2.534   3.937 -0.6229 -0.6227 -0.2620
   28PEO     H7  786   3.130   2.573   4.008 -0.5119 -1.0330 -0.1534
   28PEO     H8  787   3.039   2.616   3.866 -0.4864  1.9778  2.5791
   28PEO     O1  788   3.117   2.426   3.871  0.1368  0.1948  0.0668
   28PEO     C4  789   3.060   2.394   3.740  0.1743  0.2687 -0.2067
   28PEO     H9  790   3.087   2.479   3.676 -2.4536  0.3362 -1.3009
   28PEO    H10  791   2.951   2.379   3.742  0.3992 -1.1064  2.3107
   28PEO     C5  792   3.128   2.254   3.689  0.1239 -0.0659 -0.6431
   28PEO    H11  793   3.072   2.173   3.738  2.9268  0.9460  4.6856
   28PEO    H12  794   3.233   2.252   3.719  0.5080 -1.3800 -2.1002
   28PEO     O2  795   3.112   2.241   3.547  0.2920  0.4608 -0.5527
   28PEO     C6  796   3.164   2.116   3.484 -0.1911 -0.0488 -0.0917
   28PEO    H13  797   3.105   2.030   3.517 -2.1846  2.2070  2.4913
   28PEO    H14  798   3.266   2.098   3.520 -0.9199 -0.8482  1.5966
   28PEO     C7  799   3.167   2.132   3.328 -0.3227 -0.6713  0.2597
   28PEO    H15  800   3.083   2.194   3.294 -0.3368 -1.2694 -0.8036
   28PEO    H16  801   3.172   2.038   3.273  0.1199  0.0611 -0.9541
   28PEO     O3  802   3.279   2.204   3.287 -0.3326  0.2690  0.5989
   28PEO     C8  803   3.266   2.343   3.286 -0.3867 -0.5092 -0.0020
   28PEO    H17  804   3.223   2.377   3.381  1.1827  0.0114  0.5447
   28PEO    H18  805   3.195   2.374   3.208 -0.5450 -0.0372  0.3247
   28PEO     C9  806   3.416   2.388   3.268  0.2995 -0.0275  0.1260
   28PEO    H19  807   3.433   2.496   3.257 -1.9100  0.1636 -1.7897
   28PEO    H20  808   3.455   2.333   3.182  3.3212  2.9496 -0.5197
   28PEO     O4  809   3.495   2.344   3.390  1.0297 -0.8538  0.2224
   28PEO    C10  810   3.638   2.374   3.374  0.5073  0.2538 -0.7033
   28PEO    H21  811   3.666   2.344   3.272  2.3039 -0.9094  0.1076
   28PEO    H22  812   3.692   2.304   3.439 -1.2841 -1.8204 -1.3989
   29PEO     C1  813   3.664   2.529   3.384 -0.0316  0.1226  0.5778
   29PEO     H3  814   3.623   2.597   3.309 -0.0962 -0.7396 -0.1786
   29PEO     H4  815   3.772   2.538   3.365  0.2019 -0.7212  1.4112
   29PEO      O  816   3.635   2.565   3.518 -0.0613 -0.3842  0.6264
   29PEO     C2  817   3.505   2.593   3.560 -0.5158 -0.5095 -0.1068
   29PEO     H5  818   3.447   2.500   3.567 -0.6878 -1.0742 -6.2951
   29PEO     H6  819   3.461   2.648   3.477 -0.4576 -1.3170 -0.6761
   29PEO     C3  820   3.505   2.679   3.694  0.8134 -0.1587 -0.7610
   29PEO     H7  821   3.553   2.774   3.669  2.3639 -1.0991 -1.3765
   29PEO     H8  822   3.568   2.626   3.766 -1.5698 -2.0020  0.0109
   29PEO     O1  823   3.373   2.683   3.749  0.4315  0.2003  0.3083
   29PEO     C4  824   3.271   2.741   3.672 -0.2035 -1.0858 -0.4921
   29PEO     H9  825   3.183   2.708   3.728 -1.7191  0.3083 -1.9913
   29PEO    H10  826   3.258   2.693   3.574  1.4972 -1.8110 -0.3820
   29PEO     C5  827   3.292   2.899   3.663  0.3898  1.5278 -0.7095
   29PEO    H11  828   3.368   2.917   3.740 -1.5810 -1.3834  2.0269
   29PEO    H12  829   3.198   2.954   3.674 -0.1016  0.6956 -0.7016
   29PEO     O2  830   3.341   2.932   3.534  0.2553 -0.2615  0.7501
   29PEO     C6  831   3.394   3.069   3.529 -0.4147 -0.1735  0.1608
   29PEO    H13  832   3.468   3.080   3.610 -1.1207 -2.7249  1.2047
   29PEO    H14  833   3.317   3.146   3.544  0.3343  0.8708 -1.2735
   29PEO     C7  834   3.457   3.080   3.389  0.6822  0.3228  0.9935
   29PEO    H15  835   3.477   3.186   3.370 -0.8253  0.6017  0.9399
   29PEO    H16  836   3.378   3.053   3.318 -0.6291  2.4362  1.6001
   29PEO     O3  837   3.570   2.991   3.374 -0.7822 -0.1278  0.3200
   29PEO     C8  838   3.684   3.022   3.458  0.3789 -0.2236  0.1655
   29PEO    H17  839   3.760   2.952   3.422 -0.3409 -1.0436  0.2382
   29PEO    H18  840   3.668   2.994   3.563  1.3039  0.9948  0.6578
   29PEO     C9  841   3.745   3.156   3.441 -0.0958 -0.0226 -0.0719
   29PEO    H19  842   3.747   3.191   3.337  0.8460 -0.1138 -0.0892
   29PEO    H20  843   3.853   3.158   3.461  0.2234  1.5258 -1.8776
   29PEO     O4  844   3.670   3.258   3.519  0.1961  0.0306  0.1479
   29PEO    C10  845   3.713   3.391   3.499 -0.5455 -0.0000 -0.0191
   29PEO    H21  846   3.760   3.409   3.402  0.3805  0.1371  0.4457
   29PEO    H22  847   3.779   3.416   3.583 -3.2486  3.2944  1.2419
   30PET     C9  848   3.593   3.485   3.498  1.6458 -0.2761 -0.0748
   30PET     H6  849   3.527   3.473   3.411 -0.5459  1.2235  1.3204
   30PET     H7  850   3.623   3.589   3.509  1.5716 -0.3335  0.7012
   30PET     O2  851   3.517   3.451   3.613 -0.0632 -0.8360 -0.0183
   30PET     C8  852   3.388   3.494   3.612 -0.4770 -0.1451 -0.0703
   30PET     O1  853   3.347   3.589   3.546 -0.4969 -0.2758  0.2981
   30PET     C4  854   3.306   3.417   3.702 -0.0650 -0.2101 -0.0231
   30PET     C5  855   3.359   3.319   3.789  0.3473  0.0681  0.2673
   30PET     C6  856   3.275   3.259   3.879 -0.3720 -0.5791 -0.9163
   30PET     H4  857   3.327   3.190   3.944  3.4254  1.3869 -1.7607
   30PET     H3  858   3.468   3.310   3.793  0.3567 -0.4060 -0.9100
   30PET     C3  859   3.163   3.445   3.715  0.4208 -0.1968 -0.2185
   30PET     H2  860   3.117   3.515   3.646  1.0538  0.3669 -0.0700
   30PET     C2  861   3.084   3.370   3.803  0.1592 -0.2261 -0.1513
   30PET     H1  862   2.978   3.391   3.814 -0.0572 -1.7893  0.9601
   30PET     C1  863   3.141   3.284   3.896 -0.3488  0.2705 -0.1753
   30PET     C7  864   3.060   3.220   4.009 -0.7557  0.4347 -0.3359
   30PET     O3  865   2.932   3.227   4.010 -0.5736  0.4359  0.3970
   30PET     O4  866   3.132   3.156   4.097  0.3304  0.0061 -0.4874
   30PET    C10  867   3.061   3.083   4.207 -0.1569 -0.1660  0.0276
   30PET     H8  868   2.997   3.004   4.164 -0.9745  0.3654  0.2542
   30PET     H9  869   2.993   3.155   4.255 -0.8443 -0.5707 -0.3290
   30PET    C11  870   3.158   3.030   4.312 -1.0039  0.3608 -0.6729
   30PET    H10  871   3.104   2.977   4.391  0.8985  0.8923  1.0237
   30PET    H11  872   3.211   3.111   4.363 -1.6586  1.3587 -1.5477
   30PET    C12  873   3.268   2.927   4.254 -0.9684  0.5787 -0.2652
   30PET    H13  874   3.298   2.870   4.343 -0.5744  2.2155  0.6668
   30PET    H14  875   3.244   2.852   4.179 -3.9196 -1.2083  2.3141
   5.50273   5.50273   5.50273
