;
;   File /Users/harish/Documents/Work_folder/MetaChem-workshops/polymermd-workshop/Day3-gen-polymer-solved/polymers/PEO25_PET25_random/topol.top  was generated
;   By user: harish (501)
;   On host:Mac 
;   At date:Mon. December  1 12:57:25 2025 
;
;   This is a standalone topology file
;
;   Created by:
;   ParmEd:       ipykernel_launcher.py, VERSION4.3.0 
;   Executable:   ipykernel_launcher.py
;   Library dir:  /Users/harish/miniconda3/envs/polymer_md/share/gromacs/top
;   Command line:
;     /Users/harish/miniconda3/envs/polymer_md/lib/python3.12/site-packages/ipykernel_launcher.py -f /Users/harish/Library/Jupyter/runtime/kernel-c570b46c-59a8-4ce8-ae11-db0524ce7a58.json
;

[ defaults ]
; nbfunc        comb-rule       gen-pairs       fudgeLJ fudgeQQ
1               2               yes             0.5          0.83333333  

[ atomtypes ]
; name    at.num    mass    charge ptype  sigma      epsilon
c3             6  12.010000  0.00000000  A     0.33977095      0.4510352
h1             1   1.008000  0.00000000  A     0.24219973      0.0870272
os             8  16.000000  0.00000000  A     0.31560978      0.3037584
c              6  12.010000  0.00000000  A     0.33152123      0.4133792
o              8  16.000000  0.00000000  A     0.30481209      0.6121192
ca             6  12.010000  0.00000000  A     0.33152123      0.4133792
ha             1   1.008000  0.00000000  A     0.26254785      0.0673624
hc             1   1.008000  0.00000000  A      0.2600177      0.0870272
; Add the following lines to the [ atomtypes ] section of the topology file:
OW           8      16.00    0.0000  A   3.15061e-01  6.36386e-01
HW           1       1.008   0.0000  A   0.00000e+00  0.00000e+00
Na          11      22.99    0.0000  A   3.32840e-01  1.15897e-02
Cl          17      35.45    0.0000  A   4.40104e-01  4.18400e-01

; Include water topology:
#include "amber03.ff/tip3p.itp"

; Include topology for ions:
[ moleculetype ]
; molname       nrexcl
CL              1

[ atoms ]
; id    at type         res nr  residu name     at name  cg nr  charge
1       Cl              1       CL              CL       1      -1.00000

[ moleculetype ]
; molname       nrexcl
NA              1

[ atoms ]
; id    at type         res nr  residu name     at name  cg nr  charge
1       Na              1       NA              NA       1      1.00000

[ moleculetype ]
; Name            nrexcl
system1          3

[ atoms ]
;   nr       type  resnr residue  atom   cgnr    charge       mass  typeB    chargeB      massB
; residue    1 PET rtp PET q 0.0
    1         c3      1    PET     C9      1 0.12984200  12.010000   ; qtot 0.129842
    2         h1      1    PET     H6      2 0.05392300   1.008000   ; qtot 0.183765
    3         h1      1    PET     H7      3 0.05392300   1.008000   ; qtot 0.237688
    4         os      1    PET     O2      4 -0.43055400  16.000000   ; qtot -0.192866
    5          c      1    PET     C8      5 0.65144800  12.010000   ; qtot 0.458582
    6          o      1    PET     O1      6 -0.52602500  16.000000   ; qtot -0.067443
    7         ca      1    PET     C4      7 -0.10087900  12.010000   ; qtot -0.168322
    8         ca      1    PET     C5      8 -0.08898200  12.010000   ; qtot -0.257304
    9         ca      1    PET     C6      9 -0.08898200  12.010000   ; qtot -0.346286
   10         ha      1    PET     H4     10 0.16624300   1.008000   ; qtot -0.180043
   11         ha      1    PET     H3     11 0.16573400   1.008000   ; qtot -0.014309
   12         ca      1    PET     C3     12 -0.08898200  12.010000   ; qtot -0.103291
   13         ha      1    PET     H2     13 0.16573400   1.008000   ; qtot 0.062443
   14         ca      1    PET     C2     14 -0.08898200  12.010000   ; qtot -0.026539
   15         ha      1    PET     H1     15 0.16624300   1.008000   ; qtot 0.139704
   16         ca      1    PET     C1     16 -0.10087900  12.010000   ; qtot 0.038825
   17          c      1    PET     C7     17 0.65348100  12.010000   ; qtot 0.692306
   18          o      1    PET     O3     18 -0.52897500  16.000000   ; qtot 0.163331
   19         os      1    PET     O4     19 -0.43055400  16.000000   ; qtot -0.267223
   20         c3      1    PET    C10     20 0.14275500  12.010000   ; qtot -0.124468
   21         h1      1    PET     H8     21 0.06629400   1.008000   ; qtot -0.058174
   22         h1      1    PET     H9     22 0.06629400   1.008000   ; qtot 0.008120
   23         c3      1    PET    C11     23 -0.10854800  12.010000   ; qtot -0.100428
   24         hc      1    PET    H10     24 0.05866800   1.008000   ; qtot -0.041760
   25         hc      1    PET    H11     25 0.05866800   1.008000   ; qtot 0.016908
   26         c3      1    PET    C12     26 -0.09153800  12.010000   ; qtot -0.074630
   27         hc      1    PET    H13     27 0.03731600   1.008000   ; qtot -0.037314
   28         hc      1    PET    H14     28 0.03731600   1.008000   ; qtot 0.000002
; residue    2 PEO rtp PEO q 0.0
   29         c3      2    PEO     C1     29 0.13484800  12.010000   ; qtot 0.134850
   30         h1      2    PEO     H3     30 0.02617500   1.008000   ; qtot 0.161025
   31         h1      2    PEO     H4     31 0.02617500   1.008000   ; qtot 0.187200
   32         os      2    PEO      O     32 -0.42067400  16.000000   ; qtot -0.233474
   33         c3      2    PEO     C2     33 0.12975600  12.010000   ; qtot -0.103718
   34         h1      2    PEO     H5     34 0.04043400   1.008000   ; qtot -0.063284
   35         h1      2    PEO     H6     35 0.04043400   1.008000   ; qtot -0.022850
   36         c3      2    PEO     C3     36 0.13281100  12.010000   ; qtot 0.109961
   37         h1      2    PEO     H7     37 0.04349000   1.008000   ; qtot 0.153451
   38         h1      2    PEO     H8     38 0.04349000   1.008000   ; qtot 0.196941
   39         os      2    PEO     O1     39 -0.42263700  16.000000   ; qtot -0.225696
   40         c3      2    PEO     C4     40 0.13281100  12.010000   ; qtot -0.092885
   41         h1      2    PEO     H9     41 0.04349000   1.008000   ; qtot -0.049395
   42         h1      2    PEO    H10     42 0.04349000   1.008000   ; qtot -0.005905
   43         c3      2    PEO     C5     43 0.13179300  12.010000   ; qtot 0.125888
   44         h1      2    PEO    H11     44 0.04247100   1.008000   ; qtot 0.168359
   45         h1      2    PEO    H12     45 0.04247100   1.008000   ; qtot 0.210830
   46         os      2    PEO     O2     46 -0.42165600  16.000000   ; qtot -0.210826
   47         c3      2    PEO     C6     47 0.13179300  12.010000   ; qtot -0.079033
   48         h1      2    PEO    H13     48 0.04247100   1.008000   ; qtot -0.036562
   49         h1      2    PEO    H14     49 0.04247100   1.008000   ; qtot 0.005909
   50         c3      2    PEO     C7     50 0.13281100  12.010000   ; qtot 0.138720
   51         h1      2    PEO    H15     51 0.04349000   1.008000   ; qtot 0.182210
   52         h1      2    PEO    H16     52 0.04349000   1.008000   ; qtot 0.225700
   53         os      2    PEO     O3     53 -0.42263700  16.000000   ; qtot -0.196937
   54         c3      2    PEO     C8     54 0.13281100  12.010000   ; qtot -0.064126
   55         h1      2    PEO    H17     55 0.04349000   1.008000   ; qtot -0.020636
   56         h1      2    PEO    H18     56 0.04349000   1.008000   ; qtot 0.022854
   57         c3      2    PEO     C9     57 0.12975600  12.010000   ; qtot 0.152610
   58         h1      2    PEO    H19     58 0.04043400   1.008000   ; qtot 0.193044
   59         h1      2    PEO    H20     59 0.04043400   1.008000   ; qtot 0.233478
   60         os      2    PEO     O4     60 -0.42067400  16.000000   ; qtot -0.187196
   61         c3      2    PEO    C10     61 0.13484800  12.010000   ; qtot -0.052348
   62         h1      2    PEO    H21     62 0.02617500   1.008000   ; qtot -0.026173
   63         h1      2    PEO    H22     63 0.02617500   1.008000   ; qtot 0.000002
; residue    3 PET rtp PET q 0.0
   64         c3      3    PET     C9     64 0.12984200  12.010000   ; qtot 0.129844
   65         h1      3    PET     H6     65 0.05392300   1.008000   ; qtot 0.183767
   66         h1      3    PET     H7     66 0.05392300   1.008000   ; qtot 0.237690
   67         os      3    PET     O2     67 -0.43055400  16.000000   ; qtot -0.192864
   68          c      3    PET     C8     68 0.65144800  12.010000   ; qtot 0.458584
   69          o      3    PET     O1     69 -0.52602500  16.000000   ; qtot -0.067441
   70         ca      3    PET     C4     70 -0.10087900  12.010000   ; qtot -0.168320
   71         ca      3    PET     C5     71 -0.08898200  12.010000   ; qtot -0.257302
   72         ca      3    PET     C6     72 -0.08898200  12.010000   ; qtot -0.346284
   73         ha      3    PET     H4     73 0.16624300   1.008000   ; qtot -0.180041
   74         ha      3    PET     H3     74 0.16573400   1.008000   ; qtot -0.014307
   75         ca      3    PET     C3     75 -0.08898200  12.010000   ; qtot -0.103289
   76         ha      3    PET     H2     76 0.16573400   1.008000   ; qtot 0.062445
   77         ca      3    PET     C2     77 -0.08898200  12.010000   ; qtot -0.026537
   78         ha      3    PET     H1     78 0.16624300   1.008000   ; qtot 0.139706
   79         ca      3    PET     C1     79 -0.10087900  12.010000   ; qtot 0.038827
   80          c      3    PET     C7     80 0.65348100  12.010000   ; qtot 0.692308
   81          o      3    PET     O3     81 -0.52897500  16.000000   ; qtot 0.163333
   82         os      3    PET     O4     82 -0.43055400  16.000000   ; qtot -0.267221
   83         c3      3    PET    C10     83 0.14275500  12.010000   ; qtot -0.124466
   84         h1      3    PET     H8     84 0.06629400   1.008000   ; qtot -0.058172
   85         h1      3    PET     H9     85 0.06629400   1.008000   ; qtot 0.008122
   86         c3      3    PET    C11     86 -0.10854800  12.010000   ; qtot -0.100426
   87         hc      3    PET    H10     87 0.05866800   1.008000   ; qtot -0.041758
   88         hc      3    PET    H11     88 0.05866800   1.008000   ; qtot 0.016910
   89         c3      3    PET    C12     89 -0.09153800  12.010000   ; qtot -0.074628
   90         hc      3    PET    H13     90 0.03731600   1.008000   ; qtot -0.037312
   91         hc      3    PET    H14     91 0.03731600   1.008000   ; qtot 0.000004
; residue    4 PET rtp PET q 0.0
   92         c3      4    PET     C9     92 0.12984200  12.010000   ; qtot 0.129846
   93         h1      4    PET     H6     93 0.05392300   1.008000   ; qtot 0.183769
   94         h1      4    PET     H7     94 0.05392300   1.008000   ; qtot 0.237692
   95         os      4    PET     O2     95 -0.43055400  16.000000   ; qtot -0.192862
   96          c      4    PET     C8     96 0.65144800  12.010000   ; qtot 0.458586
   97          o      4    PET     O1     97 -0.52602500  16.000000   ; qtot -0.067439
   98         ca      4    PET     C4     98 -0.10087900  12.010000   ; qtot -0.168318
   99         ca      4    PET     C5     99 -0.08898200  12.010000   ; qtot -0.257300
  100         ca      4    PET     C6    100 -0.08898200  12.010000   ; qtot -0.346282
  101         ha      4    PET     H4    101 0.16624300   1.008000   ; qtot -0.180039
  102         ha      4    PET     H3    102 0.16573400   1.008000   ; qtot -0.014305
  103         ca      4    PET     C3    103 -0.08898200  12.010000   ; qtot -0.103287
  104         ha      4    PET     H2    104 0.16573400   1.008000   ; qtot 0.062447
  105         ca      4    PET     C2    105 -0.08898200  12.010000   ; qtot -0.026535
  106         ha      4    PET     H1    106 0.16624300   1.008000   ; qtot 0.139708
  107         ca      4    PET     C1    107 -0.10087900  12.010000   ; qtot 0.038829
  108          c      4    PET     C7    108 0.65348100  12.010000   ; qtot 0.692310
  109          o      4    PET     O3    109 -0.52897500  16.000000   ; qtot 0.163335
  110         os      4    PET     O4    110 -0.43055400  16.000000   ; qtot -0.267219
  111         c3      4    PET    C10    111 0.14275500  12.010000   ; qtot -0.124464
  112         h1      4    PET     H8    112 0.06629400   1.008000   ; qtot -0.058170
  113         h1      4    PET     H9    113 0.06629400   1.008000   ; qtot 0.008124
  114         c3      4    PET    C11    114 -0.10854800  12.010000   ; qtot -0.100424
  115         hc      4    PET    H10    115 0.05866800   1.008000   ; qtot -0.041756
  116         hc      4    PET    H11    116 0.05866800   1.008000   ; qtot 0.016912
  117         c3      4    PET    C12    117 -0.09153800  12.010000   ; qtot -0.074626
  118         hc      4    PET    H13    118 0.03731600   1.008000   ; qtot -0.037310
  119         hc      4    PET    H14    119 0.03731600   1.008000   ; qtot 0.000006
; residue    5 PET rtp PET q 0.0
  120         c3      5    PET     C9    120 0.12984200  12.010000   ; qtot 0.129848
  121         h1      5    PET     H6    121 0.05392300   1.008000   ; qtot 0.183771
  122         h1      5    PET     H7    122 0.05392300   1.008000   ; qtot 0.237694
  123         os      5    PET     O2    123 -0.43055400  16.000000   ; qtot -0.192860
  124          c      5    PET     C8    124 0.65144800  12.010000   ; qtot 0.458588
  125          o      5    PET     O1    125 -0.52602500  16.000000   ; qtot -0.067437
  126         ca      5    PET     C4    126 -0.10087900  12.010000   ; qtot -0.168316
  127         ca      5    PET     C5    127 -0.08898200  12.010000   ; qtot -0.257298
  128         ca      5    PET     C6    128 -0.08898200  12.010000   ; qtot -0.346280
  129         ha      5    PET     H4    129 0.16624300   1.008000   ; qtot -0.180037
  130         ha      5    PET     H3    130 0.16573400   1.008000   ; qtot -0.014303
  131         ca      5    PET     C3    131 -0.08898200  12.010000   ; qtot -0.103285
  132         ha      5    PET     H2    132 0.16573400   1.008000   ; qtot 0.062449
  133         ca      5    PET     C2    133 -0.08898200  12.010000   ; qtot -0.026533
  134         ha      5    PET     H1    134 0.16624300   1.008000   ; qtot 0.139710
  135         ca      5    PET     C1    135 -0.10087900  12.010000   ; qtot 0.038831
  136          c      5    PET     C7    136 0.65348100  12.010000   ; qtot 0.692312
  137          o      5    PET     O3    137 -0.52897500  16.000000   ; qtot 0.163337
  138         os      5    PET     O4    138 -0.43055400  16.000000   ; qtot -0.267217
  139         c3      5    PET    C10    139 0.14275500  12.010000   ; qtot -0.124462
  140         h1      5    PET     H8    140 0.06629400   1.008000   ; qtot -0.058168
  141         h1      5    PET     H9    141 0.06629400   1.008000   ; qtot 0.008126
  142         c3      5    PET    C11    142 -0.10854800  12.010000   ; qtot -0.100422
  143         hc      5    PET    H10    143 0.05866800   1.008000   ; qtot -0.041754
  144         hc      5    PET    H11    144 0.05866800   1.008000   ; qtot 0.016914
  145         c3      5    PET    C12    145 -0.09153800  12.010000   ; qtot -0.074624
  146         hc      5    PET    H13    146 0.03731600   1.008000   ; qtot -0.037308
  147         hc      5    PET    H14    147 0.03731600   1.008000   ; qtot 0.000008
; residue    6 PEO rtp PEO q 0.0
  148         c3      6    PEO     C1    148 0.13484800  12.010000   ; qtot 0.134856
  149         h1      6    PEO     H3    149 0.02617500   1.008000   ; qtot 0.161031
  150         h1      6    PEO     H4    150 0.02617500   1.008000   ; qtot 0.187206
  151         os      6    PEO      O    151 -0.42067400  16.000000   ; qtot -0.233468
  152         c3      6    PEO     C2    152 0.12975600  12.010000   ; qtot -0.103712
  153         h1      6    PEO     H5    153 0.04043400   1.008000   ; qtot -0.063278
  154         h1      6    PEO     H6    154 0.04043400   1.008000   ; qtot -0.022844
  155         c3      6    PEO     C3    155 0.13281100  12.010000   ; qtot 0.109967
  156         h1      6    PEO     H7    156 0.04349000   1.008000   ; qtot 0.153457
  157         h1      6    PEO     H8    157 0.04349000   1.008000   ; qtot 0.196947
  158         os      6    PEO     O1    158 -0.42263700  16.000000   ; qtot -0.225690
  159         c3      6    PEO     C4    159 0.13281100  12.010000   ; qtot -0.092879
  160         h1      6    PEO     H9    160 0.04349000   1.008000   ; qtot -0.049389
  161         h1      6    PEO    H10    161 0.04349000   1.008000   ; qtot -0.005899
  162         c3      6    PEO     C5    162 0.13179300  12.010000   ; qtot 0.125894
  163         h1      6    PEO    H11    163 0.04247100   1.008000   ; qtot 0.168365
  164         h1      6    PEO    H12    164 0.04247100   1.008000   ; qtot 0.210836
  165         os      6    PEO     O2    165 -0.42165600  16.000000   ; qtot -0.210820
  166         c3      6    PEO     C6    166 0.13179300  12.010000   ; qtot -0.079027
  167         h1      6    PEO    H13    167 0.04247100   1.008000   ; qtot -0.036556
  168         h1      6    PEO    H14    168 0.04247100   1.008000   ; qtot 0.005915
  169         c3      6    PEO     C7    169 0.13281100  12.010000   ; qtot 0.138726
  170         h1      6    PEO    H15    170 0.04349000   1.008000   ; qtot 0.182216
  171         h1      6    PEO    H16    171 0.04349000   1.008000   ; qtot 0.225706
  172         os      6    PEO     O3    172 -0.42263700  16.000000   ; qtot -0.196931
  173         c3      6    PEO     C8    173 0.13281100  12.010000   ; qtot -0.064120
  174         h1      6    PEO    H17    174 0.04349000   1.008000   ; qtot -0.020630
  175         h1      6    PEO    H18    175 0.04349000   1.008000   ; qtot 0.022860
  176         c3      6    PEO     C9    176 0.12975600  12.010000   ; qtot 0.152616
  177         h1      6    PEO    H19    177 0.04043400   1.008000   ; qtot 0.193050
  178         h1      6    PEO    H20    178 0.04043400   1.008000   ; qtot 0.233484
  179         os      6    PEO     O4    179 -0.42067400  16.000000   ; qtot -0.187190
  180         c3      6    PEO    C10    180 0.13484800  12.010000   ; qtot -0.052342
  181         h1      6    PEO    H21    181 0.02617500   1.008000   ; qtot -0.026167
  182         h1      6    PEO    H22    182 0.02617500   1.008000   ; qtot 0.000008
; residue    7 PET rtp PET q 0.0
  183         c3      7    PET     C9    183 0.12984200  12.010000   ; qtot 0.129850
  184         h1      7    PET     H6    184 0.05392300   1.008000   ; qtot 0.183773
  185         h1      7    PET     H7    185 0.05392300   1.008000   ; qtot 0.237696
  186         os      7    PET     O2    186 -0.43055400  16.000000   ; qtot -0.192858
  187          c      7    PET     C8    187 0.65144800  12.010000   ; qtot 0.458590
  188          o      7    PET     O1    188 -0.52602500  16.000000   ; qtot -0.067435
  189         ca      7    PET     C4    189 -0.10087900  12.010000   ; qtot -0.168314
  190         ca      7    PET     C5    190 -0.08898200  12.010000   ; qtot -0.257296
  191         ca      7    PET     C6    191 -0.08898200  12.010000   ; qtot -0.346278
  192         ha      7    PET     H4    192 0.16624300   1.008000   ; qtot -0.180035
  193         ha      7    PET     H3    193 0.16573400   1.008000   ; qtot -0.014301
  194         ca      7    PET     C3    194 -0.08898200  12.010000   ; qtot -0.103283
  195         ha      7    PET     H2    195 0.16573400   1.008000   ; qtot 0.062451
  196         ca      7    PET     C2    196 -0.08898200  12.010000   ; qtot -0.026531
  197         ha      7    PET     H1    197 0.16624300   1.008000   ; qtot 0.139712
  198         ca      7    PET     C1    198 -0.10087900  12.010000   ; qtot 0.038833
  199          c      7    PET     C7    199 0.65348100  12.010000   ; qtot 0.692314
  200          o      7    PET     O3    200 -0.52897500  16.000000   ; qtot 0.163339
  201         os      7    PET     O4    201 -0.43055400  16.000000   ; qtot -0.267215
  202         c3      7    PET    C10    202 0.14275500  12.010000   ; qtot -0.124460
  203         h1      7    PET     H8    203 0.06629400   1.008000   ; qtot -0.058166
  204         h1      7    PET     H9    204 0.06629400   1.008000   ; qtot 0.008128
  205         c3      7    PET    C11    205 -0.10854800  12.010000   ; qtot -0.100420
  206         hc      7    PET    H10    206 0.05866800   1.008000   ; qtot -0.041752
  207         hc      7    PET    H11    207 0.05866800   1.008000   ; qtot 0.016916
  208         c3      7    PET    C12    208 -0.09153800  12.010000   ; qtot -0.074622
  209         hc      7    PET    H13    209 0.03731600   1.008000   ; qtot -0.037306
  210         hc      7    PET    H14    210 0.03731600   1.008000   ; qtot 0.000010
; residue    8 PET rtp PET q 0.0
  211         c3      8    PET     C9    211 0.12984200  12.010000   ; qtot 0.129852
  212         h1      8    PET     H6    212 0.05392300   1.008000   ; qtot 0.183775
  213         h1      8    PET     H7    213 0.05392300   1.008000   ; qtot 0.237698
  214         os      8    PET     O2    214 -0.43055400  16.000000   ; qtot -0.192856
  215          c      8    PET     C8    215 0.65144800  12.010000   ; qtot 0.458592
  216          o      8    PET     O1    216 -0.52602500  16.000000   ; qtot -0.067433
  217         ca      8    PET     C4    217 -0.10087900  12.010000   ; qtot -0.168312
  218         ca      8    PET     C5    218 -0.08898200  12.010000   ; qtot -0.257294
  219         ca      8    PET     C6    219 -0.08898200  12.010000   ; qtot -0.346276
  220         ha      8    PET     H4    220 0.16624300   1.008000   ; qtot -0.180033
  221         ha      8    PET     H3    221 0.16573400   1.008000   ; qtot -0.014299
  222         ca      8    PET     C3    222 -0.08898200  12.010000   ; qtot -0.103281
  223         ha      8    PET     H2    223 0.16573400   1.008000   ; qtot 0.062453
  224         ca      8    PET     C2    224 -0.08898200  12.010000   ; qtot -0.026529
  225         ha      8    PET     H1    225 0.16624300   1.008000   ; qtot 0.139714
  226         ca      8    PET     C1    226 -0.10087900  12.010000   ; qtot 0.038835
  227          c      8    PET     C7    227 0.65348100  12.010000   ; qtot 0.692316
  228          o      8    PET     O3    228 -0.52897500  16.000000   ; qtot 0.163341
  229         os      8    PET     O4    229 -0.43055400  16.000000   ; qtot -0.267213
  230         c3      8    PET    C10    230 0.14275500  12.010000   ; qtot -0.124458
  231         h1      8    PET     H8    231 0.06629400   1.008000   ; qtot -0.058164
  232         h1      8    PET     H9    232 0.06629400   1.008000   ; qtot 0.008130
  233         c3      8    PET    C11    233 -0.10854800  12.010000   ; qtot -0.100418
  234         hc      8    PET    H10    234 0.05866800   1.008000   ; qtot -0.041750
  235         hc      8    PET    H11    235 0.05866800   1.008000   ; qtot 0.016918
  236         c3      8    PET    C12    236 -0.09153800  12.010000   ; qtot -0.074620
  237         hc      8    PET    H13    237 0.03731600   1.008000   ; qtot -0.037304
  238         hc      8    PET    H14    238 0.03731600   1.008000   ; qtot 0.000012
; residue    9 PET rtp PET q 0.0
  239         c3      9    PET     C9    239 0.12984200  12.010000   ; qtot 0.129854
  240         h1      9    PET     H6    240 0.05392300   1.008000   ; qtot 0.183777
  241         h1      9    PET     H7    241 0.05392300   1.008000   ; qtot 0.237700
  242         os      9    PET     O2    242 -0.43055400  16.000000   ; qtot -0.192854
  243          c      9    PET     C8    243 0.65144800  12.010000   ; qtot 0.458594
  244          o      9    PET     O1    244 -0.52602500  16.000000   ; qtot -0.067431
  245         ca      9    PET     C4    245 -0.10087900  12.010000   ; qtot -0.168310
  246         ca      9    PET     C5    246 -0.08898200  12.010000   ; qtot -0.257292
  247         ca      9    PET     C6    247 -0.08898200  12.010000   ; qtot -0.346274
  248         ha      9    PET     H4    248 0.16624300   1.008000   ; qtot -0.180031
  249         ha      9    PET     H3    249 0.16573400   1.008000   ; qtot -0.014297
  250         ca      9    PET     C3    250 -0.08898200  12.010000   ; qtot -0.103279
  251         ha      9    PET     H2    251 0.16573400   1.008000   ; qtot 0.062455
  252         ca      9    PET     C2    252 -0.08898200  12.010000   ; qtot -0.026527
  253         ha      9    PET     H1    253 0.16624300   1.008000   ; qtot 0.139716
  254         ca      9    PET     C1    254 -0.10087900  12.010000   ; qtot 0.038837
  255          c      9    PET     C7    255 0.65348100  12.010000   ; qtot 0.692318
  256          o      9    PET     O3    256 -0.52897500  16.000000   ; qtot 0.163343
  257         os      9    PET     O4    257 -0.43055400  16.000000   ; qtot -0.267211
  258         c3      9    PET    C10    258 0.14275500  12.010000   ; qtot -0.124456
  259         h1      9    PET     H8    259 0.06629400   1.008000   ; qtot -0.058162
  260         h1      9    PET     H9    260 0.06629400   1.008000   ; qtot 0.008132
  261         c3      9    PET    C11    261 -0.10854800  12.010000   ; qtot -0.100416
  262         hc      9    PET    H10    262 0.05866800   1.008000   ; qtot -0.041748
  263         hc      9    PET    H11    263 0.05866800   1.008000   ; qtot 0.016920
  264         c3      9    PET    C12    264 -0.09153800  12.010000   ; qtot -0.074618
  265         hc      9    PET    H13    265 0.03731600   1.008000   ; qtot -0.037302
  266         hc      9    PET    H14    266 0.03731600   1.008000   ; qtot 0.000014
; residue   10 PET rtp PET q 0.0
  267         c3     10    PET     C9    267 0.12984200  12.010000   ; qtot 0.129856
  268         h1     10    PET     H6    268 0.05392300   1.008000   ; qtot 0.183779
  269         h1     10    PET     H7    269 0.05392300   1.008000   ; qtot 0.237702
  270         os     10    PET     O2    270 -0.43055400  16.000000   ; qtot -0.192852
  271          c     10    PET     C8    271 0.65144800  12.010000   ; qtot 0.458596
  272          o     10    PET     O1    272 -0.52602500  16.000000   ; qtot -0.067429
  273         ca     10    PET     C4    273 -0.10087900  12.010000   ; qtot -0.168308
  274         ca     10    PET     C5    274 -0.08898200  12.010000   ; qtot -0.257290
  275         ca     10    PET     C6    275 -0.08898200  12.010000   ; qtot -0.346272
  276         ha     10    PET     H4    276 0.16624300   1.008000   ; qtot -0.180029
  277         ha     10    PET     H3    277 0.16573400   1.008000   ; qtot -0.014295
  278         ca     10    PET     C3    278 -0.08898200  12.010000   ; qtot -0.103277
  279         ha     10    PET     H2    279 0.16573400   1.008000   ; qtot 0.062457
  280         ca     10    PET     C2    280 -0.08898200  12.010000   ; qtot -0.026525
  281         ha     10    PET     H1    281 0.16624300   1.008000   ; qtot 0.139718
  282         ca     10    PET     C1    282 -0.10087900  12.010000   ; qtot 0.038839
  283          c     10    PET     C7    283 0.65348100  12.010000   ; qtot 0.692320
  284          o     10    PET     O3    284 -0.52897500  16.000000   ; qtot 0.163345
  285         os     10    PET     O4    285 -0.43055400  16.000000   ; qtot -0.267209
  286         c3     10    PET    C10    286 0.14275500  12.010000   ; qtot -0.124454
  287         h1     10    PET     H8    287 0.06629400   1.008000   ; qtot -0.058160
  288         h1     10    PET     H9    288 0.06629400   1.008000   ; qtot 0.008134
  289         c3     10    PET    C11    289 -0.10854800  12.010000   ; qtot -0.100414
  290         hc     10    PET    H10    290 0.05866800   1.008000   ; qtot -0.041746
  291         hc     10    PET    H11    291 0.05866800   1.008000   ; qtot 0.016922
  292         c3     10    PET    C12    292 -0.09153800  12.010000   ; qtot -0.074616
  293         hc     10    PET    H13    293 0.03731600   1.008000   ; qtot -0.037300
  294         hc     10    PET    H14    294 0.03731600   1.008000   ; qtot 0.000016
; residue   11 PET rtp PET q 0.0
  295         c3     11    PET     C9    295 0.12984200  12.010000   ; qtot 0.129858
  296         h1     11    PET     H6    296 0.05392300   1.008000   ; qtot 0.183781
  297         h1     11    PET     H7    297 0.05392300   1.008000   ; qtot 0.237704
  298         os     11    PET     O2    298 -0.43055400  16.000000   ; qtot -0.192850
  299          c     11    PET     C8    299 0.65144800  12.010000   ; qtot 0.458598
  300          o     11    PET     O1    300 -0.52602500  16.000000   ; qtot -0.067427
  301         ca     11    PET     C4    301 -0.10087900  12.010000   ; qtot -0.168306
  302         ca     11    PET     C5    302 -0.08898200  12.010000   ; qtot -0.257288
  303         ca     11    PET     C6    303 -0.08898200  12.010000   ; qtot -0.346270
  304         ha     11    PET     H4    304 0.16624300   1.008000   ; qtot -0.180027
  305         ha     11    PET     H3    305 0.16573400   1.008000   ; qtot -0.014293
  306         ca     11    PET     C3    306 -0.08898200  12.010000   ; qtot -0.103275
  307         ha     11    PET     H2    307 0.16573400   1.008000   ; qtot 0.062459
  308         ca     11    PET     C2    308 -0.08898200  12.010000   ; qtot -0.026523
  309         ha     11    PET     H1    309 0.16624300   1.008000   ; qtot 0.139720
  310         ca     11    PET     C1    310 -0.10087900  12.010000   ; qtot 0.038841
  311          c     11    PET     C7    311 0.65348100  12.010000   ; qtot 0.692322
  312          o     11    PET     O3    312 -0.52897500  16.000000   ; qtot 0.163347
  313         os     11    PET     O4    313 -0.43055400  16.000000   ; qtot -0.267207
  314         c3     11    PET    C10    314 0.14275500  12.010000   ; qtot -0.124452
  315         h1     11    PET     H8    315 0.06629400   1.008000   ; qtot -0.058158
  316         h1     11    PET     H9    316 0.06629400   1.008000   ; qtot 0.008136
  317         c3     11    PET    C11    317 -0.10854800  12.010000   ; qtot -0.100412
  318         hc     11    PET    H10    318 0.05866800   1.008000   ; qtot -0.041744
  319         hc     11    PET    H11    319 0.05866800   1.008000   ; qtot 0.016924
  320         c3     11    PET    C12    320 -0.09153800  12.010000   ; qtot -0.074614
  321         hc     11    PET    H13    321 0.03731600   1.008000   ; qtot -0.037298
  322         hc     11    PET    H14    322 0.03731600   1.008000   ; qtot 0.000018
; residue   12 PET rtp PET q 0.0
  323         c3     12    PET     C9    323 0.12984200  12.010000   ; qtot 0.129860
  324         h1     12    PET     H6    324 0.05392300   1.008000   ; qtot 0.183783
  325         h1     12    PET     H7    325 0.05392300   1.008000   ; qtot 0.237706
  326         os     12    PET     O2    326 -0.43055400  16.000000   ; qtot -0.192848
  327          c     12    PET     C8    327 0.65144800  12.010000   ; qtot 0.458600
  328          o     12    PET     O1    328 -0.52602500  16.000000   ; qtot -0.067425
  329         ca     12    PET     C4    329 -0.10087900  12.010000   ; qtot -0.168304
  330         ca     12    PET     C5    330 -0.08898200  12.010000   ; qtot -0.257286
  331         ca     12    PET     C6    331 -0.08898200  12.010000   ; qtot -0.346268
  332         ha     12    PET     H4    332 0.16624300   1.008000   ; qtot -0.180025
  333         ha     12    PET     H3    333 0.16573400   1.008000   ; qtot -0.014291
  334         ca     12    PET     C3    334 -0.08898200  12.010000   ; qtot -0.103273
  335         ha     12    PET     H2    335 0.16573400   1.008000   ; qtot 0.062461
  336         ca     12    PET     C2    336 -0.08898200  12.010000   ; qtot -0.026521
  337         ha     12    PET     H1    337 0.16624300   1.008000   ; qtot 0.139722
  338         ca     12    PET     C1    338 -0.10087900  12.010000   ; qtot 0.038843
  339          c     12    PET     C7    339 0.65348100  12.010000   ; qtot 0.692324
  340          o     12    PET     O3    340 -0.52897500  16.000000   ; qtot 0.163349
  341         os     12    PET     O4    341 -0.43055400  16.000000   ; qtot -0.267205
  342         c3     12    PET    C10    342 0.14275500  12.010000   ; qtot -0.124450
  343         h1     12    PET     H8    343 0.06629400   1.008000   ; qtot -0.058156
  344         h1     12    PET     H9    344 0.06629400   1.008000   ; qtot 0.008138
  345         c3     12    PET    C11    345 -0.10854800  12.010000   ; qtot -0.100410
  346         hc     12    PET    H10    346 0.05866800   1.008000   ; qtot -0.041742
  347         hc     12    PET    H11    347 0.05866800   1.008000   ; qtot 0.016926
  348         c3     12    PET    C12    348 -0.09153800  12.010000   ; qtot -0.074612
  349         hc     12    PET    H13    349 0.03731600   1.008000   ; qtot -0.037296
  350         hc     12    PET    H14    350 0.03731600   1.008000   ; qtot 0.000020
; residue   13 PET rtp PET q 0.0
  351         c3     13    PET     C9    351 0.12984200  12.010000   ; qtot 0.129862
  352         h1     13    PET     H6    352 0.05392300   1.008000   ; qtot 0.183785
  353         h1     13    PET     H7    353 0.05392300   1.008000   ; qtot 0.237708
  354         os     13    PET     O2    354 -0.43055400  16.000000   ; qtot -0.192846
  355          c     13    PET     C8    355 0.65144800  12.010000   ; qtot 0.458602
  356          o     13    PET     O1    356 -0.52602500  16.000000   ; qtot -0.067423
  357         ca     13    PET     C4    357 -0.10087900  12.010000   ; qtot -0.168302
  358         ca     13    PET     C5    358 -0.08898200  12.010000   ; qtot -0.257284
  359         ca     13    PET     C6    359 -0.08898200  12.010000   ; qtot -0.346266
  360         ha     13    PET     H4    360 0.16624300   1.008000   ; qtot -0.180023
  361         ha     13    PET     H3    361 0.16573400   1.008000   ; qtot -0.014289
  362         ca     13    PET     C3    362 -0.08898200  12.010000   ; qtot -0.103271
  363         ha     13    PET     H2    363 0.16573400   1.008000   ; qtot 0.062463
  364         ca     13    PET     C2    364 -0.08898200  12.010000   ; qtot -0.026519
  365         ha     13    PET     H1    365 0.16624300   1.008000   ; qtot 0.139724
  366         ca     13    PET     C1    366 -0.10087900  12.010000   ; qtot 0.038845
  367          c     13    PET     C7    367 0.65348100  12.010000   ; qtot 0.692326
  368          o     13    PET     O3    368 -0.52897500  16.000000   ; qtot 0.163351
  369         os     13    PET     O4    369 -0.43055400  16.000000   ; qtot -0.267203
  370         c3     13    PET    C10    370 0.14275500  12.010000   ; qtot -0.124448
  371         h1     13    PET     H8    371 0.06629400   1.008000   ; qtot -0.058154
  372         h1     13    PET     H9    372 0.06629400   1.008000   ; qtot 0.008140
  373         c3     13    PET    C11    373 -0.10854800  12.010000   ; qtot -0.100408
  374         hc     13    PET    H10    374 0.05866800   1.008000   ; qtot -0.041740
  375         hc     13    PET    H11    375 0.05866800   1.008000   ; qtot 0.016928
  376         c3     13    PET    C12    376 -0.09153800  12.010000   ; qtot -0.074610
  377         hc     13    PET    H13    377 0.03731600   1.008000   ; qtot -0.037294
  378         hc     13    PET    H14    378 0.03731600   1.008000   ; qtot 0.000022
; residue   14 PET rtp PET q 0.0
  379         c3     14    PET     C9    379 0.12984200  12.010000   ; qtot 0.129864
  380         h1     14    PET     H6    380 0.05392300   1.008000   ; qtot 0.183787
  381         h1     14    PET     H7    381 0.05392300   1.008000   ; qtot 0.237710
  382         os     14    PET     O2    382 -0.43055400  16.000000   ; qtot -0.192844
  383          c     14    PET     C8    383 0.65144800  12.010000   ; qtot 0.458604
  384          o     14    PET     O1    384 -0.52602500  16.000000   ; qtot -0.067421
  385         ca     14    PET     C4    385 -0.10087900  12.010000   ; qtot -0.168300
  386         ca     14    PET     C5    386 -0.08898200  12.010000   ; qtot -0.257282
  387         ca     14    PET     C6    387 -0.08898200  12.010000   ; qtot -0.346264
  388         ha     14    PET     H4    388 0.16624300   1.008000   ; qtot -0.180021
  389         ha     14    PET     H3    389 0.16573400   1.008000   ; qtot -0.014287
  390         ca     14    PET     C3    390 -0.08898200  12.010000   ; qtot -0.103269
  391         ha     14    PET     H2    391 0.16573400   1.008000   ; qtot 0.062465
  392         ca     14    PET     C2    392 -0.08898200  12.010000   ; qtot -0.026517
  393         ha     14    PET     H1    393 0.16624300   1.008000   ; qtot 0.139726
  394         ca     14    PET     C1    394 -0.10087900  12.010000   ; qtot 0.038847
  395          c     14    PET     C7    395 0.65348100  12.010000   ; qtot 0.692328
  396          o     14    PET     O3    396 -0.52897500  16.000000   ; qtot 0.163353
  397         os     14    PET     O4    397 -0.43055400  16.000000   ; qtot -0.267201
  398         c3     14    PET    C10    398 0.14275500  12.010000   ; qtot -0.124446
  399         h1     14    PET     H8    399 0.06629400   1.008000   ; qtot -0.058152
  400         h1     14    PET     H9    400 0.06629400   1.008000   ; qtot 0.008142
  401         c3     14    PET    C11    401 -0.10854800  12.010000   ; qtot -0.100406
  402         hc     14    PET    H10    402 0.05866800   1.008000   ; qtot -0.041738
  403         hc     14    PET    H11    403 0.05866800   1.008000   ; qtot 0.016930
  404         c3     14    PET    C12    404 -0.09153800  12.010000   ; qtot -0.074608
  405         hc     14    PET    H13    405 0.03731600   1.008000   ; qtot -0.037292
  406         hc     14    PET    H14    406 0.03731600   1.008000   ; qtot 0.000024
; residue   15 PET rtp PET q 0.0
  407         c3     15    PET     C9    407 0.12984200  12.010000   ; qtot 0.129866
  408         h1     15    PET     H6    408 0.05392300   1.008000   ; qtot 0.183789
  409         h1     15    PET     H7    409 0.05392300   1.008000   ; qtot 0.237712
  410         os     15    PET     O2    410 -0.43055400  16.000000   ; qtot -0.192842
  411          c     15    PET     C8    411 0.65144800  12.010000   ; qtot 0.458606
  412          o     15    PET     O1    412 -0.52602500  16.000000   ; qtot -0.067419
  413         ca     15    PET     C4    413 -0.10087900  12.010000   ; qtot -0.168298
  414         ca     15    PET     C5    414 -0.08898200  12.010000   ; qtot -0.257280
  415         ca     15    PET     C6    415 -0.08898200  12.010000   ; qtot -0.346262
  416         ha     15    PET     H4    416 0.16624300   1.008000   ; qtot -0.180019
  417         ha     15    PET     H3    417 0.16573400   1.008000   ; qtot -0.014285
  418         ca     15    PET     C3    418 -0.08898200  12.010000   ; qtot -0.103267
  419         ha     15    PET     H2    419 0.16573400   1.008000   ; qtot 0.062467
  420         ca     15    PET     C2    420 -0.08898200  12.010000   ; qtot -0.026515
  421         ha     15    PET     H1    421 0.16624300   1.008000   ; qtot 0.139728
  422         ca     15    PET     C1    422 -0.10087900  12.010000   ; qtot 0.038849
  423          c     15    PET     C7    423 0.65348100  12.010000   ; qtot 0.692330
  424          o     15    PET     O3    424 -0.52897500  16.000000   ; qtot 0.163355
  425         os     15    PET     O4    425 -0.43055400  16.000000   ; qtot -0.267199
  426         c3     15    PET    C10    426 0.14275500  12.010000   ; qtot -0.124444
  427         h1     15    PET     H8    427 0.06629400   1.008000   ; qtot -0.058150
  428         h1     15    PET     H9    428 0.06629400   1.008000   ; qtot 0.008144
  429         c3     15    PET    C11    429 -0.10854800  12.010000   ; qtot -0.100404
  430         hc     15    PET    H10    430 0.05866800   1.008000   ; qtot -0.041736
  431         hc     15    PET    H11    431 0.05866800   1.008000   ; qtot 0.016932
  432         c3     15    PET    C12    432 -0.09153800  12.010000   ; qtot -0.074606
  433         hc     15    PET    H13    433 0.03731600   1.008000   ; qtot -0.037290
  434         hc     15    PET    H14    434 0.03731600   1.008000   ; qtot 0.000026
; residue   16 PET rtp PET q 0.0
  435         c3     16    PET     C9    435 0.12984200  12.010000   ; qtot 0.129868
  436         h1     16    PET     H6    436 0.05392300   1.008000   ; qtot 0.183791
  437         h1     16    PET     H7    437 0.05392300   1.008000   ; qtot 0.237714
  438         os     16    PET     O2    438 -0.43055400  16.000000   ; qtot -0.192840
  439          c     16    PET     C8    439 0.65144800  12.010000   ; qtot 0.458608
  440          o     16    PET     O1    440 -0.52602500  16.000000   ; qtot -0.067417
  441         ca     16    PET     C4    441 -0.10087900  12.010000   ; qtot -0.168296
  442         ca     16    PET     C5    442 -0.08898200  12.010000   ; qtot -0.257278
  443         ca     16    PET     C6    443 -0.08898200  12.010000   ; qtot -0.346260
  444         ha     16    PET     H4    444 0.16624300   1.008000   ; qtot -0.180017
  445         ha     16    PET     H3    445 0.16573400   1.008000   ; qtot -0.014283
  446         ca     16    PET     C3    446 -0.08898200  12.010000   ; qtot -0.103265
  447         ha     16    PET     H2    447 0.16573400   1.008000   ; qtot 0.062469
  448         ca     16    PET     C2    448 -0.08898200  12.010000   ; qtot -0.026513
  449         ha     16    PET     H1    449 0.16624300   1.008000   ; qtot 0.139730
  450         ca     16    PET     C1    450 -0.10087900  12.010000   ; qtot 0.038851
  451          c     16    PET     C7    451 0.65348100  12.010000   ; qtot 0.692332
  452          o     16    PET     O3    452 -0.52897500  16.000000   ; qtot 0.163357
  453         os     16    PET     O4    453 -0.43055400  16.000000   ; qtot -0.267197
  454         c3     16    PET    C10    454 0.14275500  12.010000   ; qtot -0.124442
  455         h1     16    PET     H8    455 0.06629400   1.008000   ; qtot -0.058148
  456         h1     16    PET     H9    456 0.06629400   1.008000   ; qtot 0.008146
  457         c3     16    PET    C11    457 -0.10854800  12.010000   ; qtot -0.100402
  458         hc     16    PET    H10    458 0.05866800   1.008000   ; qtot -0.041734
  459         hc     16    PET    H11    459 0.05866800   1.008000   ; qtot 0.016934
  460         c3     16    PET    C12    460 -0.09153800  12.010000   ; qtot -0.074604
  461         hc     16    PET    H13    461 0.03731600   1.008000   ; qtot -0.037288
  462         hc     16    PET    H14    462 0.03731600   1.008000   ; qtot 0.000028
; residue   17 PET rtp PET q 0.0
  463         c3     17    PET     C9    463 0.12984200  12.010000   ; qtot 0.129870
  464         h1     17    PET     H6    464 0.05392300   1.008000   ; qtot 0.183793
  465         h1     17    PET     H7    465 0.05392300   1.008000   ; qtot 0.237716
  466         os     17    PET     O2    466 -0.43055400  16.000000   ; qtot -0.192838
  467          c     17    PET     C8    467 0.65144800  12.010000   ; qtot 0.458610
  468          o     17    PET     O1    468 -0.52602500  16.000000   ; qtot -0.067415
  469         ca     17    PET     C4    469 -0.10087900  12.010000   ; qtot -0.168294
  470         ca     17    PET     C5    470 -0.08898200  12.010000   ; qtot -0.257276
  471         ca     17    PET     C6    471 -0.08898200  12.010000   ; qtot -0.346258
  472         ha     17    PET     H4    472 0.16624300   1.008000   ; qtot -0.180015
  473         ha     17    PET     H3    473 0.16573400   1.008000   ; qtot -0.014281
  474         ca     17    PET     C3    474 -0.08898200  12.010000   ; qtot -0.103263
  475         ha     17    PET     H2    475 0.16573400   1.008000   ; qtot 0.062471
  476         ca     17    PET     C2    476 -0.08898200  12.010000   ; qtot -0.026511
  477         ha     17    PET     H1    477 0.16624300   1.008000   ; qtot 0.139732
  478         ca     17    PET     C1    478 -0.10087900  12.010000   ; qtot 0.038853
  479          c     17    PET     C7    479 0.65348100  12.010000   ; qtot 0.692334
  480          o     17    PET     O3    480 -0.52897500  16.000000   ; qtot 0.163359
  481         os     17    PET     O4    481 -0.43055400  16.000000   ; qtot -0.267195
  482         c3     17    PET    C10    482 0.14275500  12.010000   ; qtot -0.124440
  483         h1     17    PET     H8    483 0.06629400   1.008000   ; qtot -0.058146
  484         h1     17    PET     H9    484 0.06629400   1.008000   ; qtot 0.008148
  485         c3     17    PET    C11    485 -0.10854800  12.010000   ; qtot -0.100400
  486         hc     17    PET    H10    486 0.05866800   1.008000   ; qtot -0.041732
  487         hc     17    PET    H11    487 0.05866800   1.008000   ; qtot 0.016936
  488         c3     17    PET    C12    488 -0.09153800  12.010000   ; qtot -0.074602
  489         hc     17    PET    H13    489 0.03731600   1.008000   ; qtot -0.037286
  490         hc     17    PET    H14    490 0.03731600   1.008000   ; qtot 0.000030
; residue   18 PET rtp PET q 0.0
  491         c3     18    PET     C9    491 0.12984200  12.010000   ; qtot 0.129872
  492         h1     18    PET     H6    492 0.05392300   1.008000   ; qtot 0.183795
  493         h1     18    PET     H7    493 0.05392300   1.008000   ; qtot 0.237718
  494         os     18    PET     O2    494 -0.43055400  16.000000   ; qtot -0.192836
  495          c     18    PET     C8    495 0.65144800  12.010000   ; qtot 0.458612
  496          o     18    PET     O1    496 -0.52602500  16.000000   ; qtot -0.067413
  497         ca     18    PET     C4    497 -0.10087900  12.010000   ; qtot -0.168292
  498         ca     18    PET     C5    498 -0.08898200  12.010000   ; qtot -0.257274
  499         ca     18    PET     C6    499 -0.08898200  12.010000   ; qtot -0.346256
  500         ha     18    PET     H4    500 0.16624300   1.008000   ; qtot -0.180013
  501         ha     18    PET     H3    501 0.16573400   1.008000   ; qtot -0.014279
  502         ca     18    PET     C3    502 -0.08898200  12.010000   ; qtot -0.103261
  503         ha     18    PET     H2    503 0.16573400   1.008000   ; qtot 0.062473
  504         ca     18    PET     C2    504 -0.08898200  12.010000   ; qtot -0.026509
  505         ha     18    PET     H1    505 0.16624300   1.008000   ; qtot 0.139734
  506         ca     18    PET     C1    506 -0.10087900  12.010000   ; qtot 0.038855
  507          c     18    PET     C7    507 0.65348100  12.010000   ; qtot 0.692336
  508          o     18    PET     O3    508 -0.52897500  16.000000   ; qtot 0.163361
  509         os     18    PET     O4    509 -0.43055400  16.000000   ; qtot -0.267193
  510         c3     18    PET    C10    510 0.14275500  12.010000   ; qtot -0.124438
  511         h1     18    PET     H8    511 0.06629400   1.008000   ; qtot -0.058144
  512         h1     18    PET     H9    512 0.06629400   1.008000   ; qtot 0.008150
  513         c3     18    PET    C11    513 -0.10854800  12.010000   ; qtot -0.100398
  514         hc     18    PET    H10    514 0.05866800   1.008000   ; qtot -0.041730
  515         hc     18    PET    H11    515 0.05866800   1.008000   ; qtot 0.016938
  516         c3     18    PET    C12    516 -0.09153800  12.010000   ; qtot -0.074600
  517         hc     18    PET    H13    517 0.03731600   1.008000   ; qtot -0.037284
  518         hc     18    PET    H14    518 0.03731600   1.008000   ; qtot 0.000032
; residue   19 PET rtp PET q 0.0
  519         c3     19    PET     C9    519 0.12984200  12.010000   ; qtot 0.129874
  520         h1     19    PET     H6    520 0.05392300   1.008000   ; qtot 0.183797
  521         h1     19    PET     H7    521 0.05392300   1.008000   ; qtot 0.237720
  522         os     19    PET     O2    522 -0.43055400  16.000000   ; qtot -0.192834
  523          c     19    PET     C8    523 0.65144800  12.010000   ; qtot 0.458614
  524          o     19    PET     O1    524 -0.52602500  16.000000   ; qtot -0.067411
  525         ca     19    PET     C4    525 -0.10087900  12.010000   ; qtot -0.168290
  526         ca     19    PET     C5    526 -0.08898200  12.010000   ; qtot -0.257272
  527         ca     19    PET     C6    527 -0.08898200  12.010000   ; qtot -0.346254
  528         ha     19    PET     H4    528 0.16624300   1.008000   ; qtot -0.180011
  529         ha     19    PET     H3    529 0.16573400   1.008000   ; qtot -0.014277
  530         ca     19    PET     C3    530 -0.08898200  12.010000   ; qtot -0.103259
  531         ha     19    PET     H2    531 0.16573400   1.008000   ; qtot 0.062475
  532         ca     19    PET     C2    532 -0.08898200  12.010000   ; qtot -0.026507
  533         ha     19    PET     H1    533 0.16624300   1.008000   ; qtot 0.139736
  534         ca     19    PET     C1    534 -0.10087900  12.010000   ; qtot 0.038857
  535          c     19    PET     C7    535 0.65348100  12.010000   ; qtot 0.692338
  536          o     19    PET     O3    536 -0.52897500  16.000000   ; qtot 0.163363
  537         os     19    PET     O4    537 -0.43055400  16.000000   ; qtot -0.267191
  538         c3     19    PET    C10    538 0.14275500  12.010000   ; qtot -0.124436
  539         h1     19    PET     H8    539 0.06629400   1.008000   ; qtot -0.058142
  540         h1     19    PET     H9    540 0.06629400   1.008000   ; qtot 0.008152
  541         c3     19    PET    C11    541 -0.10854800  12.010000   ; qtot -0.100396
  542         hc     19    PET    H10    542 0.05866800   1.008000   ; qtot -0.041728
  543         hc     19    PET    H11    543 0.05866800   1.008000   ; qtot 0.016940
  544         c3     19    PET    C12    544 -0.09153800  12.010000   ; qtot -0.074598
  545         hc     19    PET    H13    545 0.03731600   1.008000   ; qtot -0.037282
  546         hc     19    PET    H14    546 0.03731600   1.008000   ; qtot 0.000034
; residue   20 PET rtp PET q 0.0
  547         c3     20    PET     C9    547 0.12984200  12.010000   ; qtot 0.129876
  548         h1     20    PET     H6    548 0.05392300   1.008000   ; qtot 0.183799
  549         h1     20    PET     H7    549 0.05392300   1.008000   ; qtot 0.237722
  550         os     20    PET     O2    550 -0.43055400  16.000000   ; qtot -0.192832
  551          c     20    PET     C8    551 0.65144800  12.010000   ; qtot 0.458616
  552          o     20    PET     O1    552 -0.52602500  16.000000   ; qtot -0.067409
  553         ca     20    PET     C4    553 -0.10087900  12.010000   ; qtot -0.168288
  554         ca     20    PET     C5    554 -0.08898200  12.010000   ; qtot -0.257270
  555         ca     20    PET     C6    555 -0.08898200  12.010000   ; qtot -0.346252
  556         ha     20    PET     H4    556 0.16624300   1.008000   ; qtot -0.180009
  557         ha     20    PET     H3    557 0.16573400   1.008000   ; qtot -0.014275
  558         ca     20    PET     C3    558 -0.08898200  12.010000   ; qtot -0.103257
  559         ha     20    PET     H2    559 0.16573400   1.008000   ; qtot 0.062477
  560         ca     20    PET     C2    560 -0.08898200  12.010000   ; qtot -0.026505
  561         ha     20    PET     H1    561 0.16624300   1.008000   ; qtot 0.139738
  562         ca     20    PET     C1    562 -0.10087900  12.010000   ; qtot 0.038859
  563          c     20    PET     C7    563 0.65348100  12.010000   ; qtot 0.692340
  564          o     20    PET     O3    564 -0.52897500  16.000000   ; qtot 0.163365
  565         os     20    PET     O4    565 -0.43055400  16.000000   ; qtot -0.267189
  566         c3     20    PET    C10    566 0.14275500  12.010000   ; qtot -0.124434
  567         h1     20    PET     H8    567 0.06629400   1.008000   ; qtot -0.058140
  568         h1     20    PET     H9    568 0.06629400   1.008000   ; qtot 0.008154
  569         c3     20    PET    C11    569 -0.10854800  12.010000   ; qtot -0.100394
  570         hc     20    PET    H10    570 0.05866800   1.008000   ; qtot -0.041726
  571         hc     20    PET    H11    571 0.05866800   1.008000   ; qtot 0.016942
  572         c3     20    PET    C12    572 -0.09153800  12.010000   ; qtot -0.074596
  573         hc     20    PET    H13    573 0.03731600   1.008000   ; qtot -0.037280
  574         hc     20    PET    H14    574 0.03731600   1.008000   ; qtot 0.000036
; residue   21 PET rtp PET q 0.0
  575         c3     21    PET     C9    575 0.12984200  12.010000   ; qtot 0.129878
  576         h1     21    PET     H6    576 0.05392300   1.008000   ; qtot 0.183801
  577         h1     21    PET     H7    577 0.05392300   1.008000   ; qtot 0.237724
  578         os     21    PET     O2    578 -0.43055400  16.000000   ; qtot -0.192830
  579          c     21    PET     C8    579 0.65144800  12.010000   ; qtot 0.458618
  580          o     21    PET     O1    580 -0.52602500  16.000000   ; qtot -0.067407
  581         ca     21    PET     C4    581 -0.10087900  12.010000   ; qtot -0.168286
  582         ca     21    PET     C5    582 -0.08898200  12.010000   ; qtot -0.257268
  583         ca     21    PET     C6    583 -0.08898200  12.010000   ; qtot -0.346250
  584         ha     21    PET     H4    584 0.16624300   1.008000   ; qtot -0.180007
  585         ha     21    PET     H3    585 0.16573400   1.008000   ; qtot -0.014273
  586         ca     21    PET     C3    586 -0.08898200  12.010000   ; qtot -0.103255
  587         ha     21    PET     H2    587 0.16573400   1.008000   ; qtot 0.062479
  588         ca     21    PET     C2    588 -0.08898200  12.010000   ; qtot -0.026503
  589         ha     21    PET     H1    589 0.16624300   1.008000   ; qtot 0.139740
  590         ca     21    PET     C1    590 -0.10087900  12.010000   ; qtot 0.038861
  591          c     21    PET     C7    591 0.65348100  12.010000   ; qtot 0.692342
  592          o     21    PET     O3    592 -0.52897500  16.000000   ; qtot 0.163367
  593         os     21    PET     O4    593 -0.43055400  16.000000   ; qtot -0.267187
  594         c3     21    PET    C10    594 0.14275500  12.010000   ; qtot -0.124432
  595         h1     21    PET     H8    595 0.06629400   1.008000   ; qtot -0.058138
  596         h1     21    PET     H9    596 0.06629400   1.008000   ; qtot 0.008156
  597         c3     21    PET    C11    597 -0.10854800  12.010000   ; qtot -0.100392
  598         hc     21    PET    H10    598 0.05866800   1.008000   ; qtot -0.041724
  599         hc     21    PET    H11    599 0.05866800   1.008000   ; qtot 0.016944
  600         c3     21    PET    C12    600 -0.09153800  12.010000   ; qtot -0.074594
  601         hc     21    PET    H13    601 0.03731600   1.008000   ; qtot -0.037278
  602         hc     21    PET    H14    602 0.03731600   1.008000   ; qtot 0.000038
; residue   22 PET rtp PET q 0.0
  603         c3     22    PET     C9    603 0.12984200  12.010000   ; qtot 0.129880
  604         h1     22    PET     H6    604 0.05392300   1.008000   ; qtot 0.183803
  605         h1     22    PET     H7    605 0.05392300   1.008000   ; qtot 0.237726
  606         os     22    PET     O2    606 -0.43055400  16.000000   ; qtot -0.192828
  607          c     22    PET     C8    607 0.65144800  12.010000   ; qtot 0.458620
  608          o     22    PET     O1    608 -0.52602500  16.000000   ; qtot -0.067405
  609         ca     22    PET     C4    609 -0.10087900  12.010000   ; qtot -0.168284
  610         ca     22    PET     C5    610 -0.08898200  12.010000   ; qtot -0.257266
  611         ca     22    PET     C6    611 -0.08898200  12.010000   ; qtot -0.346248
  612         ha     22    PET     H4    612 0.16624300   1.008000   ; qtot -0.180005
  613         ha     22    PET     H3    613 0.16573400   1.008000   ; qtot -0.014271
  614         ca     22    PET     C3    614 -0.08898200  12.010000   ; qtot -0.103253
  615         ha     22    PET     H2    615 0.16573400   1.008000   ; qtot 0.062481
  616         ca     22    PET     C2    616 -0.08898200  12.010000   ; qtot -0.026501
  617         ha     22    PET     H1    617 0.16624300   1.008000   ; qtot 0.139742
  618         ca     22    PET     C1    618 -0.10087900  12.010000   ; qtot 0.038863
  619          c     22    PET     C7    619 0.65348100  12.010000   ; qtot 0.692344
  620          o     22    PET     O3    620 -0.52897500  16.000000   ; qtot 0.163369
  621         os     22    PET     O4    621 -0.43055400  16.000000   ; qtot -0.267185
  622         c3     22    PET    C10    622 0.14275500  12.010000   ; qtot -0.124430
  623         h1     22    PET     H8    623 0.06629400   1.008000   ; qtot -0.058136
  624         h1     22    PET     H9    624 0.06629400   1.008000   ; qtot 0.008158
  625         c3     22    PET    C11    625 -0.10854800  12.010000   ; qtot -0.100390
  626         hc     22    PET    H10    626 0.05866800   1.008000   ; qtot -0.041722
  627         hc     22    PET    H11    627 0.05866800   1.008000   ; qtot 0.016946
  628         c3     22    PET    C12    628 -0.09153800  12.010000   ; qtot -0.074592
  629         hc     22    PET    H13    629 0.03731600   1.008000   ; qtot -0.037276
  630         hc     22    PET    H14    630 0.03731600   1.008000   ; qtot 0.000040
; residue   23 PET rtp PET q 0.0
  631         c3     23    PET     C9    631 0.12984200  12.010000   ; qtot 0.129882
  632         h1     23    PET     H6    632 0.05392300   1.008000   ; qtot 0.183805
  633         h1     23    PET     H7    633 0.05392300   1.008000   ; qtot 0.237728
  634         os     23    PET     O2    634 -0.43055400  16.000000   ; qtot -0.192826
  635          c     23    PET     C8    635 0.65144800  12.010000   ; qtot 0.458622
  636          o     23    PET     O1    636 -0.52602500  16.000000   ; qtot -0.067403
  637         ca     23    PET     C4    637 -0.10087900  12.010000   ; qtot -0.168282
  638         ca     23    PET     C5    638 -0.08898200  12.010000   ; qtot -0.257264
  639         ca     23    PET     C6    639 -0.08898200  12.010000   ; qtot -0.346246
  640         ha     23    PET     H4    640 0.16624300   1.008000   ; qtot -0.180003
  641         ha     23    PET     H3    641 0.16573400   1.008000   ; qtot -0.014269
  642         ca     23    PET     C3    642 -0.08898200  12.010000   ; qtot -0.103251
  643         ha     23    PET     H2    643 0.16573400   1.008000   ; qtot 0.062483
  644         ca     23    PET     C2    644 -0.08898200  12.010000   ; qtot -0.026499
  645         ha     23    PET     H1    645 0.16624300   1.008000   ; qtot 0.139744
  646         ca     23    PET     C1    646 -0.10087900  12.010000   ; qtot 0.038865
  647          c     23    PET     C7    647 0.65348100  12.010000   ; qtot 0.692346
  648          o     23    PET     O3    648 -0.52897500  16.000000   ; qtot 0.163371
  649         os     23    PET     O4    649 -0.43055400  16.000000   ; qtot -0.267183
  650         c3     23    PET    C10    650 0.14275500  12.010000   ; qtot -0.124428
  651         h1     23    PET     H8    651 0.06629400   1.008000   ; qtot -0.058134
  652         h1     23    PET     H9    652 0.06629400   1.008000   ; qtot 0.008160
  653         c3     23    PET    C11    653 -0.10854800  12.010000   ; qtot -0.100388
  654         hc     23    PET    H10    654 0.05866800   1.008000   ; qtot -0.041720
  655         hc     23    PET    H11    655 0.05866800   1.008000   ; qtot 0.016948
  656         c3     23    PET    C12    656 -0.09153800  12.010000   ; qtot -0.074590
  657         hc     23    PET    H13    657 0.03731600   1.008000   ; qtot -0.037274
  658         hc     23    PET    H14    658 0.03731600   1.008000   ; qtot 0.000042
; residue   24 PET rtp PET q 0.0
  659         c3     24    PET     C9    659 0.12984200  12.010000   ; qtot 0.129884
  660         h1     24    PET     H6    660 0.05392300   1.008000   ; qtot 0.183807
  661         h1     24    PET     H7    661 0.05392300   1.008000   ; qtot 0.237730
  662         os     24    PET     O2    662 -0.43055400  16.000000   ; qtot -0.192824
  663          c     24    PET     C8    663 0.65144800  12.010000   ; qtot 0.458624
  664          o     24    PET     O1    664 -0.52602500  16.000000   ; qtot -0.067401
  665         ca     24    PET     C4    665 -0.10087900  12.010000   ; qtot -0.168280
  666         ca     24    PET     C5    666 -0.08898200  12.010000   ; qtot -0.257262
  667         ca     24    PET     C6    667 -0.08898200  12.010000   ; qtot -0.346244
  668         ha     24    PET     H4    668 0.16624300   1.008000   ; qtot -0.180001
  669         ha     24    PET     H3    669 0.16573400   1.008000   ; qtot -0.014267
  670         ca     24    PET     C3    670 -0.08898200  12.010000   ; qtot -0.103249
  671         ha     24    PET     H2    671 0.16573400   1.008000   ; qtot 0.062485
  672         ca     24    PET     C2    672 -0.08898200  12.010000   ; qtot -0.026497
  673         ha     24    PET     H1    673 0.16624300   1.008000   ; qtot 0.139746
  674         ca     24    PET     C1    674 -0.10087900  12.010000   ; qtot 0.038867
  675          c     24    PET     C7    675 0.65348100  12.010000   ; qtot 0.692348
  676          o     24    PET     O3    676 -0.52897500  16.000000   ; qtot 0.163373
  677         os     24    PET     O4    677 -0.43055400  16.000000   ; qtot -0.267181
  678         c3     24    PET    C10    678 0.14275500  12.010000   ; qtot -0.124426
  679         h1     24    PET     H8    679 0.06629400   1.008000   ; qtot -0.058132
  680         h1     24    PET     H9    680 0.06629400   1.008000   ; qtot 0.008162
  681         c3     24    PET    C11    681 -0.10854800  12.010000   ; qtot -0.100386
  682         hc     24    PET    H10    682 0.05866800   1.008000   ; qtot -0.041718
  683         hc     24    PET    H11    683 0.05866800   1.008000   ; qtot 0.016950
  684         c3     24    PET    C12    684 -0.09153800  12.010000   ; qtot -0.074588
  685         hc     24    PET    H13    685 0.03731600   1.008000   ; qtot -0.037272
  686         hc     24    PET    H14    686 0.03731600   1.008000   ; qtot 0.000044
; residue   25 PEO rtp PEO q 0.0
  687         c3     25    PEO     C1    687 0.13484800  12.010000   ; qtot 0.134892
  688         h1     25    PEO     H3    688 0.02617500   1.008000   ; qtot 0.161067
  689         h1     25    PEO     H4    689 0.02617500   1.008000   ; qtot 0.187242
  690         os     25    PEO      O    690 -0.42067400  16.000000   ; qtot -0.233432
  691         c3     25    PEO     C2    691 0.12975600  12.010000   ; qtot -0.103676
  692         h1     25    PEO     H5    692 0.04043400   1.008000   ; qtot -0.063242
  693         h1     25    PEO     H6    693 0.04043400   1.008000   ; qtot -0.022808
  694         c3     25    PEO     C3    694 0.13281100  12.010000   ; qtot 0.110003
  695         h1     25    PEO     H7    695 0.04349000   1.008000   ; qtot 0.153493
  696         h1     25    PEO     H8    696 0.04349000   1.008000   ; qtot 0.196983
  697         os     25    PEO     O1    697 -0.42263700  16.000000   ; qtot -0.225654
  698         c3     25    PEO     C4    698 0.13281100  12.010000   ; qtot -0.092843
  699         h1     25    PEO     H9    699 0.04349000   1.008000   ; qtot -0.049353
  700         h1     25    PEO    H10    700 0.04349000   1.008000   ; qtot -0.005863
  701         c3     25    PEO     C5    701 0.13179300  12.010000   ; qtot 0.125930
  702         h1     25    PEO    H11    702 0.04247100   1.008000   ; qtot 0.168401
  703         h1     25    PEO    H12    703 0.04247100   1.008000   ; qtot 0.210872
  704         os     25    PEO     O2    704 -0.42165600  16.000000   ; qtot -0.210784
  705         c3     25    PEO     C6    705 0.13179300  12.010000   ; qtot -0.078991
  706         h1     25    PEO    H13    706 0.04247100   1.008000   ; qtot -0.036520
  707         h1     25    PEO    H14    707 0.04247100   1.008000   ; qtot 0.005951
  708         c3     25    PEO     C7    708 0.13281100  12.010000   ; qtot 0.138762
  709         h1     25    PEO    H15    709 0.04349000   1.008000   ; qtot 0.182252
  710         h1     25    PEO    H16    710 0.04349000   1.008000   ; qtot 0.225742
  711         os     25    PEO     O3    711 -0.42263700  16.000000   ; qtot -0.196895
  712         c3     25    PEO     C8    712 0.13281100  12.010000   ; qtot -0.064084
  713         h1     25    PEO    H17    713 0.04349000   1.008000   ; qtot -0.020594
  714         h1     25    PEO    H18    714 0.04349000   1.008000   ; qtot 0.022896
  715         c3     25    PEO     C9    715 0.12975600  12.010000   ; qtot 0.152652
  716         h1     25    PEO    H19    716 0.04043400   1.008000   ; qtot 0.193086
  717         h1     25    PEO    H20    717 0.04043400   1.008000   ; qtot 0.233520
  718         os     25    PEO     O4    718 -0.42067400  16.000000   ; qtot -0.187154
  719         c3     25    PEO    C10    719 0.13484800  12.010000   ; qtot -0.052306
  720         h1     25    PEO    H21    720 0.02617500   1.008000   ; qtot -0.026131
  721         h1     25    PEO    H22    721 0.02617500   1.008000   ; qtot 0.000044
; residue   26 PET rtp PET q 0.0
  722         c3     26    PET     C9    722 0.12984200  12.010000   ; qtot 0.129886
  723         h1     26    PET     H6    723 0.05392300   1.008000   ; qtot 0.183809
  724         h1     26    PET     H7    724 0.05392300   1.008000   ; qtot 0.237732
  725         os     26    PET     O2    725 -0.43055400  16.000000   ; qtot -0.192822
  726          c     26    PET     C8    726 0.65144800  12.010000   ; qtot 0.458626
  727          o     26    PET     O1    727 -0.52602500  16.000000   ; qtot -0.067399
  728         ca     26    PET     C4    728 -0.10087900  12.010000   ; qtot -0.168278
  729         ca     26    PET     C5    729 -0.08898200  12.010000   ; qtot -0.257260
  730         ca     26    PET     C6    730 -0.08898200  12.010000   ; qtot -0.346242
  731         ha     26    PET     H4    731 0.16624300   1.008000   ; qtot -0.179999
  732         ha     26    PET     H3    732 0.16573400   1.008000   ; qtot -0.014265
  733         ca     26    PET     C3    733 -0.08898200  12.010000   ; qtot -0.103247
  734         ha     26    PET     H2    734 0.16573400   1.008000   ; qtot 0.062487
  735         ca     26    PET     C2    735 -0.08898200  12.010000   ; qtot -0.026495
  736         ha     26    PET     H1    736 0.16624300   1.008000   ; qtot 0.139748
  737         ca     26    PET     C1    737 -0.10087900  12.010000   ; qtot 0.038869
  738          c     26    PET     C7    738 0.65348100  12.010000   ; qtot 0.692350
  739          o     26    PET     O3    739 -0.52897500  16.000000   ; qtot 0.163375
  740         os     26    PET     O4    740 -0.43055400  16.000000   ; qtot -0.267179
  741         c3     26    PET    C10    741 0.14275500  12.010000   ; qtot -0.124424
  742         h1     26    PET     H8    742 0.06629400   1.008000   ; qtot -0.058130
  743         h1     26    PET     H9    743 0.06629400   1.008000   ; qtot 0.008164
  744         c3     26    PET    C11    744 -0.10854800  12.010000   ; qtot -0.100384
  745         hc     26    PET    H10    745 0.05866800   1.008000   ; qtot -0.041716
  746         hc     26    PET    H11    746 0.05866800   1.008000   ; qtot 0.016952
  747         c3     26    PET    C12    747 -0.09153800  12.010000   ; qtot -0.074586
  748         hc     26    PET    H13    748 0.03731600   1.008000   ; qtot -0.037270
  749         hc     26    PET    H14    749 0.03731600   1.008000   ; qtot 0.000046
; residue   27 PET rtp PET q 0.0
  750         c3     27    PET     C9    750 0.12984200  12.010000   ; qtot 0.129888
  751         h1     27    PET     H6    751 0.05392300   1.008000   ; qtot 0.183811
  752         h1     27    PET     H7    752 0.05392300   1.008000   ; qtot 0.237734
  753         os     27    PET     O2    753 -0.43055400  16.000000   ; qtot -0.192820
  754          c     27    PET     C8    754 0.65144800  12.010000   ; qtot 0.458628
  755          o     27    PET     O1    755 -0.52602500  16.000000   ; qtot -0.067397
  756         ca     27    PET     C4    756 -0.10087900  12.010000   ; qtot -0.168276
  757         ca     27    PET     C5    757 -0.08898200  12.010000   ; qtot -0.257258
  758         ca     27    PET     C6    758 -0.08898200  12.010000   ; qtot -0.346240
  759         ha     27    PET     H4    759 0.16624300   1.008000   ; qtot -0.179997
  760         ha     27    PET     H3    760 0.16573400   1.008000   ; qtot -0.014263
  761         ca     27    PET     C3    761 -0.08898200  12.010000   ; qtot -0.103245
  762         ha     27    PET     H2    762 0.16573400   1.008000   ; qtot 0.062489
  763         ca     27    PET     C2    763 -0.08898200  12.010000   ; qtot -0.026493
  764         ha     27    PET     H1    764 0.16624300   1.008000   ; qtot 0.139750
  765         ca     27    PET     C1    765 -0.10087900  12.010000   ; qtot 0.038871
  766          c     27    PET     C7    766 0.65348100  12.010000   ; qtot 0.692352
  767          o     27    PET     O3    767 -0.52897500  16.000000   ; qtot 0.163377
  768         os     27    PET     O4    768 -0.43055400  16.000000   ; qtot -0.267177
  769         c3     27    PET    C10    769 0.14275500  12.010000   ; qtot -0.124422
  770         h1     27    PET     H8    770 0.06629400   1.008000   ; qtot -0.058128
  771         h1     27    PET     H9    771 0.06629400   1.008000   ; qtot 0.008166
  772         c3     27    PET    C11    772 -0.10854800  12.010000   ; qtot -0.100382
  773         hc     27    PET    H10    773 0.05866800   1.008000   ; qtot -0.041714
  774         hc     27    PET    H11    774 0.05866800   1.008000   ; qtot 0.016954
  775         c3     27    PET    C12    775 -0.09153800  12.010000   ; qtot -0.074584
  776         hc     27    PET    H13    776 0.03731600   1.008000   ; qtot -0.037268
  777         hc     27    PET    H14    777 0.03731600   1.008000   ; qtot 0.000048
; residue   28 PEO rtp PEO q 0.0
  778         c3     28    PEO     C1    778 0.13484800  12.010000   ; qtot 0.134896
  779         h1     28    PEO     H3    779 0.02617500   1.008000   ; qtot 0.161071
  780         h1     28    PEO     H4    780 0.02617500   1.008000   ; qtot 0.187246
  781         os     28    PEO      O    781 -0.42067400  16.000000   ; qtot -0.233428
  782         c3     28    PEO     C2    782 0.12975600  12.010000   ; qtot -0.103672
  783         h1     28    PEO     H5    783 0.04043400   1.008000   ; qtot -0.063238
  784         h1     28    PEO     H6    784 0.04043400   1.008000   ; qtot -0.022804
  785         c3     28    PEO     C3    785 0.13281100  12.010000   ; qtot 0.110007
  786         h1     28    PEO     H7    786 0.04349000   1.008000   ; qtot 0.153497
  787         h1     28    PEO     H8    787 0.04349000   1.008000   ; qtot 0.196987
  788         os     28    PEO     O1    788 -0.42263700  16.000000   ; qtot -0.225650
  789         c3     28    PEO     C4    789 0.13281100  12.010000   ; qtot -0.092839
  790         h1     28    PEO     H9    790 0.04349000   1.008000   ; qtot -0.049349
  791         h1     28    PEO    H10    791 0.04349000   1.008000   ; qtot -0.005859
  792         c3     28    PEO     C5    792 0.13179300  12.010000   ; qtot 0.125934
  793         h1     28    PEO    H11    793 0.04247100   1.008000   ; qtot 0.168405
  794         h1     28    PEO    H12    794 0.04247100   1.008000   ; qtot 0.210876
  795         os     28    PEO     O2    795 -0.42165600  16.000000   ; qtot -0.210780
  796         c3     28    PEO     C6    796 0.13179300  12.010000   ; qtot -0.078987
  797         h1     28    PEO    H13    797 0.04247100   1.008000   ; qtot -0.036516
  798         h1     28    PEO    H14    798 0.04247100   1.008000   ; qtot 0.005955
  799         c3     28    PEO     C7    799 0.13281100  12.010000   ; qtot 0.138766
  800         h1     28    PEO    H15    800 0.04349000   1.008000   ; qtot 0.182256
  801         h1     28    PEO    H16    801 0.04349000   1.008000   ; qtot 0.225746
  802         os     28    PEO     O3    802 -0.42263700  16.000000   ; qtot -0.196891
  803         c3     28    PEO     C8    803 0.13281100  12.010000   ; qtot -0.064080
  804         h1     28    PEO    H17    804 0.04349000   1.008000   ; qtot -0.020590
  805         h1     28    PEO    H18    805 0.04349000   1.008000   ; qtot 0.022900
  806         c3     28    PEO     C9    806 0.12975600  12.010000   ; qtot 0.152656
  807         h1     28    PEO    H19    807 0.04043400   1.008000   ; qtot 0.193090
  808         h1     28    PEO    H20    808 0.04043400   1.008000   ; qtot 0.233524
  809         os     28    PEO     O4    809 -0.42067400  16.000000   ; qtot -0.187150
  810         c3     28    PEO    C10    810 0.13484800  12.010000   ; qtot -0.052302
  811         h1     28    PEO    H21    811 0.02617500   1.008000   ; qtot -0.026127
  812         h1     28    PEO    H22    812 0.02617500   1.008000   ; qtot 0.000048
; residue   29 PEO rtp PEO q 0.0
  813         c3     29    PEO     C1    813 0.13484800  12.010000   ; qtot 0.134896
  814         h1     29    PEO     H3    814 0.02617500   1.008000   ; qtot 0.161071
  815         h1     29    PEO     H4    815 0.02617500   1.008000   ; qtot 0.187246
  816         os     29    PEO      O    816 -0.42067400  16.000000   ; qtot -0.233428
  817         c3     29    PEO     C2    817 0.12975600  12.010000   ; qtot -0.103672
  818         h1     29    PEO     H5    818 0.04043400   1.008000   ; qtot -0.063238
  819         h1     29    PEO     H6    819 0.04043400   1.008000   ; qtot -0.022804
  820         c3     29    PEO     C3    820 0.13281100  12.010000   ; qtot 0.110007
  821         h1     29    PEO     H7    821 0.04349000   1.008000   ; qtot 0.153497
  822         h1     29    PEO     H8    822 0.04349000   1.008000   ; qtot 0.196987
  823         os     29    PEO     O1    823 -0.42263700  16.000000   ; qtot -0.225650
  824         c3     29    PEO     C4    824 0.13281100  12.010000   ; qtot -0.092839
  825         h1     29    PEO     H9    825 0.04349000   1.008000   ; qtot -0.049349
  826         h1     29    PEO    H10    826 0.04349000   1.008000   ; qtot -0.005859
  827         c3     29    PEO     C5    827 0.13179300  12.010000   ; qtot 0.125934
  828         h1     29    PEO    H11    828 0.04247100   1.008000   ; qtot 0.168405
  829         h1     29    PEO    H12    829 0.04247100   1.008000   ; qtot 0.210876
  830         os     29    PEO     O2    830 -0.42165600  16.000000   ; qtot -0.210780
  831         c3     29    PEO     C6    831 0.13179300  12.010000   ; qtot -0.078987
  832         h1     29    PEO    H13    832 0.04247100   1.008000   ; qtot -0.036516
  833         h1     29    PEO    H14    833 0.04247100   1.008000   ; qtot 0.005955
  834         c3     29    PEO     C7    834 0.13281100  12.010000   ; qtot 0.138766
  835         h1     29    PEO    H15    835 0.04349000   1.008000   ; qtot 0.182256
  836         h1     29    PEO    H16    836 0.04349000   1.008000   ; qtot 0.225746
  837         os     29    PEO     O3    837 -0.42263700  16.000000   ; qtot -0.196891
  838         c3     29    PEO     C8    838 0.13281100  12.010000   ; qtot -0.064080
  839         h1     29    PEO    H17    839 0.04349000   1.008000   ; qtot -0.020590
  840         h1     29    PEO    H18    840 0.04349000   1.008000   ; qtot 0.022900
  841         c3     29    PEO     C9    841 0.12975600  12.010000   ; qtot 0.152656
  842         h1     29    PEO    H19    842 0.04043400   1.008000   ; qtot 0.193090
  843         h1     29    PEO    H20    843 0.04043400   1.008000   ; qtot 0.233524
  844         os     29    PEO     O4    844 -0.42067400  16.000000   ; qtot -0.187150
  845         c3     29    PEO    C10    845 0.13484800  12.010000   ; qtot -0.052302
  846         h1     29    PEO    H21    846 0.02617500   1.008000   ; qtot -0.026127
  847         h1     29    PEO    H22    847 0.02617500   1.008000   ; qtot 0.000048
; residue   30 PET rtp PET q 0.0
  848         c3     30    PET     C9    848 0.12984200  12.010000   ; qtot 0.129890
  849         h1     30    PET     H6    849 0.05392300   1.008000   ; qtot 0.183813
  850         h1     30    PET     H7    850 0.05392300   1.008000   ; qtot 0.237736
  851         os     30    PET     O2    851 -0.43055400  16.000000   ; qtot -0.192818
  852          c     30    PET     C8    852 0.65144800  12.010000   ; qtot 0.458630
  853          o     30    PET     O1    853 -0.52602500  16.000000   ; qtot -0.067395
  854         ca     30    PET     C4    854 -0.10087900  12.010000   ; qtot -0.168274
  855         ca     30    PET     C5    855 -0.08898200  12.010000   ; qtot -0.257256
  856         ca     30    PET     C6    856 -0.08898200  12.010000   ; qtot -0.346238
  857         ha     30    PET     H4    857 0.16624300   1.008000   ; qtot -0.179995
  858         ha     30    PET     H3    858 0.16573400   1.008000   ; qtot -0.014261
  859         ca     30    PET     C3    859 -0.08898200  12.010000   ; qtot -0.103243
  860         ha     30    PET     H2    860 0.16573400   1.008000   ; qtot 0.062491
  861         ca     30    PET     C2    861 -0.08898200  12.010000   ; qtot -0.026491
  862         ha     30    PET     H1    862 0.16624300   1.008000   ; qtot 0.139752
  863         ca     30    PET     C1    863 -0.10087900  12.010000   ; qtot 0.038873
  864          c     30    PET     C7    864 0.65348100  12.010000   ; qtot 0.692354
  865          o     30    PET     O3    865 -0.52897500  16.000000   ; qtot 0.163379
  866         os     30    PET     O4    866 -0.43055400  16.000000   ; qtot -0.267175
  867         c3     30    PET    C10    867 0.14275500  12.010000   ; qtot -0.124420
  868         h1     30    PET     H8    868 0.06629400   1.008000   ; qtot -0.058126
  869         h1     30    PET     H9    869 0.06629400   1.008000   ; qtot 0.008168
  870         c3     30    PET    C11    870 -0.10854800  12.010000   ; qtot -0.100380
  871         hc     30    PET    H10    871 0.05866800   1.008000   ; qtot -0.041712
  872         hc     30    PET    H11    872 0.05866800   1.008000   ; qtot 0.016956
  873         c3     30    PET    C12    873 -0.09153800  12.010000   ; qtot -0.074582
  874         hc     30    PET    H13    874 0.03731600   1.008000   ; qtot -0.037266
  875         hc     30    PET    H14    875 0.03731600   1.008000   ; qtot 0.000050

[ bonds ]
;    ai     aj funct         c0         c1         c2         c3
     26     29     1   0.15354 191535.152000
     23     26     1   0.15354 191535.152000
     20     23     1   0.15354 191535.152000
     19     20     1   0.14273 236203.536000
     17     18     1   0.12190 494214.080000
     17     19     1   0.13621 293976.208000
     16     17     1   0.14907 219944.512000
     14     16     1   0.13986 296436.400000
     12     14     1   0.13986 296436.400000
      9     16     1   0.13986 296436.400000
      8      9     1   0.13986 296436.400000
      7      8     1   0.13986 296436.400000
      7     12     1   0.13986 296436.400000
      5      6     1   0.12190 494214.080000
      5      7     1   0.14907 219944.512000
      4      5     1   0.13621 293976.208000
      1      4     1   0.14273 236203.536000
     61     64     1   0.15354 191535.152000
     60     61     1   0.14273 236203.536000
     57     60     1   0.14273 236203.536000
     54     57     1   0.15354 191535.152000
     53     54     1   0.14273 236203.536000
     50     53     1   0.14273 236203.536000
     47     50     1   0.15354 191535.152000
     46     47     1   0.14273 236203.536000
     43     46     1   0.14273 236203.536000
     40     43     1   0.15354 191535.152000
     39     40     1   0.14273 236203.536000
     36     39     1   0.14273 236203.536000
     33     36     1   0.15354 191535.152000
     32     33     1   0.14273 236203.536000
     29     32     1   0.14273 236203.536000
     89     92     1   0.15354 191535.152000
     86     89     1   0.15354 191535.152000
     83     86     1   0.15354 191535.152000
     82     83     1   0.14273 236203.536000
     80     81     1   0.12190 494214.080000
     80     82     1   0.13621 293976.208000
     79     80     1   0.14907 219944.512000
     77     79     1   0.13986 296436.400000
     75     77     1   0.13986 296436.400000
     72     79     1   0.13986 296436.400000
     71     72     1   0.13986 296436.400000
     70     71     1   0.13986 296436.400000
     70     75     1   0.13986 296436.400000
     68     69     1   0.12190 494214.080000
     68     70     1   0.14907 219944.512000
     67     68     1   0.13621 293976.208000
     64     67     1   0.14273 236203.536000
    117    120     1   0.15354 191535.152000
    114    117     1   0.15354 191535.152000
    111    114     1   0.15354 191535.152000
    110    111     1   0.14273 236203.536000
    108    109     1   0.12190 494214.080000
    108    110     1   0.13621 293976.208000
    107    108     1   0.14907 219944.512000
    105    107     1   0.13986 296436.400000
    103    105     1   0.13986 296436.400000
    100    107     1   0.13986 296436.400000
     99    100     1   0.13986 296436.400000
     98     99     1   0.13986 296436.400000
     98    103     1   0.13986 296436.400000
     96     97     1   0.12190 494214.080000
     96     98     1   0.14907 219944.512000
     95     96     1   0.13621 293976.208000
     92     95     1   0.14273 236203.536000
    145    148     1   0.15354 191535.152000
    142    145     1   0.15354 191535.152000
    139    142     1   0.15354 191535.152000
    138    139     1   0.14273 236203.536000
    136    137     1   0.12190 494214.080000
    136    138     1   0.13621 293976.208000
    135    136     1   0.14907 219944.512000
    133    135     1   0.13986 296436.400000
    131    133     1   0.13986 296436.400000
    128    135     1   0.13986 296436.400000
    127    128     1   0.13986 296436.400000
    126    127     1   0.13986 296436.400000
    126    131     1   0.13986 296436.400000
    124    125     1   0.12190 494214.080000
    124    126     1   0.14907 219944.512000
    123    124     1   0.13621 293976.208000
    120    123     1   0.14273 236203.536000
    180    183     1   0.15354 191535.152000
    179    180     1   0.14273 236203.536000
    176    179     1   0.14273 236203.536000
    173    176     1   0.15354 191535.152000
    172    173     1   0.14273 236203.536000
    169    172     1   0.14273 236203.536000
    166    169     1   0.15354 191535.152000
    165    166     1   0.14273 236203.536000
    162    165     1   0.14273 236203.536000
    159    162     1   0.15354 191535.152000
    158    159     1   0.14273 236203.536000
    155    158     1   0.14273 236203.536000
    152    155     1   0.15354 191535.152000
    151    152     1   0.14273 236203.536000
    148    151     1   0.14273 236203.536000
    208    211     1   0.15354 191535.152000
    205    208     1   0.15354 191535.152000
    202    205     1   0.15354 191535.152000
    201    202     1   0.14273 236203.536000
    199    200     1   0.12190 494214.080000
    199    201     1   0.13621 293976.208000
    198    199     1   0.14907 219944.512000
    196    198     1   0.13986 296436.400000
    194    196     1   0.13986 296436.400000
    191    198     1   0.13986 296436.400000
    190    191     1   0.13986 296436.400000
    189    190     1   0.13986 296436.400000
    189    194     1   0.13986 296436.400000
    187    188     1   0.12190 494214.080000
    187    189     1   0.14907 219944.512000
    186    187     1   0.13621 293976.208000
    183    186     1   0.14273 236203.536000
    236    239     1   0.15354 191535.152000
    233    236     1   0.15354 191535.152000
    230    233     1   0.15354 191535.152000
    229    230     1   0.14273 236203.536000
    227    228     1   0.12190 494214.080000
    227    229     1   0.13621 293976.208000
    226    227     1   0.14907 219944.512000
    224    226     1   0.13986 296436.400000
    222    224     1   0.13986 296436.400000
    219    226     1   0.13986 296436.400000
    218    219     1   0.13986 296436.400000
    217    218     1   0.13986 296436.400000
    217    222     1   0.13986 296436.400000
    215    216     1   0.12190 494214.080000
    215    217     1   0.14907 219944.512000
    214    215     1   0.13621 293976.208000
    211    214     1   0.14273 236203.536000
    264    267     1   0.15354 191535.152000
    261    264     1   0.15354 191535.152000
    258    261     1   0.15354 191535.152000
    257    258     1   0.14273 236203.536000
    255    256     1   0.12190 494214.080000
    255    257     1   0.13621 293976.208000
    254    255     1   0.14907 219944.512000
    252    254     1   0.13986 296436.400000
    250    252     1   0.13986 296436.400000
    247    254     1   0.13986 296436.400000
    246    247     1   0.13986 296436.400000
    245    246     1   0.13986 296436.400000
    245    250     1   0.13986 296436.400000
    243    244     1   0.12190 494214.080000
    243    245     1   0.14907 219944.512000
    242    243     1   0.13621 293976.208000
    239    242     1   0.14273 236203.536000
    292    295     1   0.15354 191535.152000
    289    292     1   0.15354 191535.152000
    286    289     1   0.15354 191535.152000
    285    286     1   0.14273 236203.536000
    283    284     1   0.12190 494214.080000
    283    285     1   0.13621 293976.208000
    282    283     1   0.14907 219944.512000
    280    282     1   0.13986 296436.400000
    278    280     1   0.13986 296436.400000
    275    282     1   0.13986 296436.400000
    274    275     1   0.13986 296436.400000
    273    274     1   0.13986 296436.400000
    273    278     1   0.13986 296436.400000
    271    272     1   0.12190 494214.080000
    271    273     1   0.14907 219944.512000
    270    271     1   0.13621 293976.208000
    267    270     1   0.14273 236203.536000
    320    323     1   0.15354 191535.152000
    317    320     1   0.15354 191535.152000
    314    317     1   0.15354 191535.152000
    313    314     1   0.14273 236203.536000
    311    312     1   0.12190 494214.080000
    311    313     1   0.13621 293976.208000
    310    311     1   0.14907 219944.512000
    308    310     1   0.13986 296436.400000
    306    308     1   0.13986 296436.400000
    303    310     1   0.13986 296436.400000
    302    303     1   0.13986 296436.400000
    301    302     1   0.13986 296436.400000
    301    306     1   0.13986 296436.400000
    299    300     1   0.12190 494214.080000
    299    301     1   0.14907 219944.512000
    298    299     1   0.13621 293976.208000
    295    298     1   0.14273 236203.536000
    348    351     1   0.15354 191535.152000
    345    348     1   0.15354 191535.152000
    342    345     1   0.15354 191535.152000
    341    342     1   0.14273 236203.536000
    339    340     1   0.12190 494214.080000
    339    341     1   0.13621 293976.208000
    338    339     1   0.14907 219944.512000
    336    338     1   0.13986 296436.400000
    334    336     1   0.13986 296436.400000
    331    338     1   0.13986 296436.400000
    330    331     1   0.13986 296436.400000
    329    330     1   0.13986 296436.400000
    329    334     1   0.13986 296436.400000
    327    328     1   0.12190 494214.080000
    327    329     1   0.14907 219944.512000
    326    327     1   0.13621 293976.208000
    323    326     1   0.14273 236203.536000
    376    379     1   0.15354 191535.152000
    373    376     1   0.15354 191535.152000
    370    373     1   0.15354 191535.152000
    369    370     1   0.14273 236203.536000
    367    368     1   0.12190 494214.080000
    367    369     1   0.13621 293976.208000
    366    367     1   0.14907 219944.512000
    364    366     1   0.13986 296436.400000
    362    364     1   0.13986 296436.400000
    359    366     1   0.13986 296436.400000
    358    359     1   0.13986 296436.400000
    357    358     1   0.13986 296436.400000
    357    362     1   0.13986 296436.400000
    355    356     1   0.12190 494214.080000
    355    357     1   0.14907 219944.512000
    354    355     1   0.13621 293976.208000
    351    354     1   0.14273 236203.536000
    404    407     1   0.15354 191535.152000
    401    404     1   0.15354 191535.152000
    398    401     1   0.15354 191535.152000
    397    398     1   0.14273 236203.536000
    395    396     1   0.12190 494214.080000
    395    397     1   0.13621 293976.208000
    394    395     1   0.14907 219944.512000
    392    394     1   0.13986 296436.400000
    390    392     1   0.13986 296436.400000
    387    394     1   0.13986 296436.400000
    386    387     1   0.13986 296436.400000
    385    386     1   0.13986 296436.400000
    385    390     1   0.13986 296436.400000
    383    384     1   0.12190 494214.080000
    383    385     1   0.14907 219944.512000
    382    383     1   0.13621 293976.208000
    379    382     1   0.14273 236203.536000
    432    435     1   0.15354 191535.152000
    429    432     1   0.15354 191535.152000
    426    429     1   0.15354 191535.152000
    425    426     1   0.14273 236203.536000
    423    424     1   0.12190 494214.080000
    423    425     1   0.13621 293976.208000
    422    423     1   0.14907 219944.512000
    420    422     1   0.13986 296436.400000
    418    420     1   0.13986 296436.400000
    415    422     1   0.13986 296436.400000
    414    415     1   0.13986 296436.400000
    413    414     1   0.13986 296436.400000
    413    418     1   0.13986 296436.400000
    411    412     1   0.12190 494214.080000
    411    413     1   0.14907 219944.512000
    410    411     1   0.13621 293976.208000
    407    410     1   0.14273 236203.536000
    460    463     1   0.15354 191535.152000
    457    460     1   0.15354 191535.152000
    454    457     1   0.15354 191535.152000
    453    454     1   0.14273 236203.536000
    451    452     1   0.12190 494214.080000
    451    453     1   0.13621 293976.208000
    450    451     1   0.14907 219944.512000
    448    450     1   0.13986 296436.400000
    446    448     1   0.13986 296436.400000
    443    450     1   0.13986 296436.400000
    442    443     1   0.13986 296436.400000
    441    442     1   0.13986 296436.400000
    441    446     1   0.13986 296436.400000
    439    440     1   0.12190 494214.080000
    439    441     1   0.14907 219944.512000
    438    439     1   0.13621 293976.208000
    435    438     1   0.14273 236203.536000
    488    491     1   0.15354 191535.152000
    485    488     1   0.15354 191535.152000
    482    485     1   0.15354 191535.152000
    481    482     1   0.14273 236203.536000
    479    480     1   0.12190 494214.080000
    479    481     1   0.13621 293976.208000
    478    479     1   0.14907 219944.512000
    476    478     1   0.13986 296436.400000
    474    476     1   0.13986 296436.400000
    471    478     1   0.13986 296436.400000
    470    471     1   0.13986 296436.400000
    469    470     1   0.13986 296436.400000
    469    474     1   0.13986 296436.400000
    467    468     1   0.12190 494214.080000
    467    469     1   0.14907 219944.512000
    466    467     1   0.13621 293976.208000
    463    466     1   0.14273 236203.536000
    516    519     1   0.15354 191535.152000
    513    516     1   0.15354 191535.152000
    510    513     1   0.15354 191535.152000
    509    510     1   0.14273 236203.536000
    507    508     1   0.12190 494214.080000
    507    509     1   0.13621 293976.208000
    506    507     1   0.14907 219944.512000
    504    506     1   0.13986 296436.400000
    502    504     1   0.13986 296436.400000
    499    506     1   0.13986 296436.400000
    498    499     1   0.13986 296436.400000
    497    498     1   0.13986 296436.400000
    497    502     1   0.13986 296436.400000
    495    496     1   0.12190 494214.080000
    495    497     1   0.14907 219944.512000
    494    495     1   0.13621 293976.208000
    491    494     1   0.14273 236203.536000
    544    547     1   0.15354 191535.152000
    541    544     1   0.15354 191535.152000
    538    541     1   0.15354 191535.152000
    537    538     1   0.14273 236203.536000
    535    536     1   0.12190 494214.080000
    535    537     1   0.13621 293976.208000
    534    535     1   0.14907 219944.512000
    532    534     1   0.13986 296436.400000
    530    532     1   0.13986 296436.400000
    527    534     1   0.13986 296436.400000
    526    527     1   0.13986 296436.400000
    525    526     1   0.13986 296436.400000
    525    530     1   0.13986 296436.400000
    523    524     1   0.12190 494214.080000
    523    525     1   0.14907 219944.512000
    522    523     1   0.13621 293976.208000
    519    522     1   0.14273 236203.536000
    572    575     1   0.15354 191535.152000
    569    572     1   0.15354 191535.152000
    566    569     1   0.15354 191535.152000
    565    566     1   0.14273 236203.536000
    563    564     1   0.12190 494214.080000
    563    565     1   0.13621 293976.208000
    562    563     1   0.14907 219944.512000
    560    562     1   0.13986 296436.400000
    558    560     1   0.13986 296436.400000
    555    562     1   0.13986 296436.400000
    554    555     1   0.13986 296436.400000
    553    554     1   0.13986 296436.400000
    553    558     1   0.13986 296436.400000
    551    552     1   0.12190 494214.080000
    551    553     1   0.14907 219944.512000
    550    551     1   0.13621 293976.208000
    547    550     1   0.14273 236203.536000
    600    603     1   0.15354 191535.152000
    597    600     1   0.15354 191535.152000
    594    597     1   0.15354 191535.152000
    593    594     1   0.14273 236203.536000
    591    592     1   0.12190 494214.080000
    591    593     1   0.13621 293976.208000
    590    591     1   0.14907 219944.512000
    588    590     1   0.13986 296436.400000
    586    588     1   0.13986 296436.400000
    583    590     1   0.13986 296436.400000
    582    583     1   0.13986 296436.400000
    581    582     1   0.13986 296436.400000
    581    586     1   0.13986 296436.400000
    579    580     1   0.12190 494214.080000
    579    581     1   0.14907 219944.512000
    578    579     1   0.13621 293976.208000
    575    578     1   0.14273 236203.536000
    628    631     1   0.15354 191535.152000
    625    628     1   0.15354 191535.152000
    622    625     1   0.15354 191535.152000
    621    622     1   0.14273 236203.536000
    619    620     1   0.12190 494214.080000
    619    621     1   0.13621 293976.208000
    618    619     1   0.14907 219944.512000
    616    618     1   0.13986 296436.400000
    614    616     1   0.13986 296436.400000
    611    618     1   0.13986 296436.400000
    610    611     1   0.13986 296436.400000
    609    610     1   0.13986 296436.400000
    609    614     1   0.13986 296436.400000
    607    608     1   0.12190 494214.080000
    607    609     1   0.14907 219944.512000
    606    607     1   0.13621 293976.208000
    603    606     1   0.14273 236203.536000
    656    659     1   0.15354 191535.152000
    653    656     1   0.15354 191535.152000
    650    653     1   0.15354 191535.152000
    649    650     1   0.14273 236203.536000
    647    648     1   0.12190 494214.080000
    647    649     1   0.13621 293976.208000
    646    647     1   0.14907 219944.512000
    644    646     1   0.13986 296436.400000
    642    644     1   0.13986 296436.400000
    639    646     1   0.13986 296436.400000
    638    639     1   0.13986 296436.400000
    637    638     1   0.13986 296436.400000
    637    642     1   0.13986 296436.400000
    635    636     1   0.12190 494214.080000
    635    637     1   0.14907 219944.512000
    634    635     1   0.13621 293976.208000
    631    634     1   0.14273 236203.536000
    684    687     1   0.15354 191535.152000
    681    684     1   0.15354 191535.152000
    678    681     1   0.15354 191535.152000
    677    678     1   0.14273 236203.536000
    675    676     1   0.12190 494214.080000
    675    677     1   0.13621 293976.208000
    674    675     1   0.14907 219944.512000
    672    674     1   0.13986 296436.400000
    670    672     1   0.13986 296436.400000
    667    674     1   0.13986 296436.400000
    666    667     1   0.13986 296436.400000
    665    666     1   0.13986 296436.400000
    665    670     1   0.13986 296436.400000
    663    664     1   0.12190 494214.080000
    663    665     1   0.14907 219944.512000
    662    663     1   0.13621 293976.208000
    659    662     1   0.14273 236203.536000
    719    722     1   0.15354 191535.152000
    718    719     1   0.14273 236203.536000
    715    718     1   0.14273 236203.536000
    712    715     1   0.15354 191535.152000
    711    712     1   0.14273 236203.536000
    708    711     1   0.14273 236203.536000
    705    708     1   0.15354 191535.152000
    704    705     1   0.14273 236203.536000
    701    704     1   0.14273 236203.536000
    698    701     1   0.15354 191535.152000
    697    698     1   0.14273 236203.536000
    694    697     1   0.14273 236203.536000
    691    694     1   0.15354 191535.152000
    690    691     1   0.14273 236203.536000
    687    690     1   0.14273 236203.536000
    747    750     1   0.15354 191535.152000
    744    747     1   0.15354 191535.152000
    741    744     1   0.15354 191535.152000
    740    741     1   0.14273 236203.536000
    738    739     1   0.12190 494214.080000
    738    740     1   0.13621 293976.208000
    737    738     1   0.14907 219944.512000
    735    737     1   0.13986 296436.400000
    733    735     1   0.13986 296436.400000
    730    737     1   0.13986 296436.400000
    729    730     1   0.13986 296436.400000
    728    729     1   0.13986 296436.400000
    728    733     1   0.13986 296436.400000
    726    727     1   0.12190 494214.080000
    726    728     1   0.14907 219944.512000
    725    726     1   0.13621 293976.208000
    722    725     1   0.14273 236203.536000
    775    778     1   0.15354 191535.152000
    772    775     1   0.15354 191535.152000
    769    772     1   0.15354 191535.152000
    768    769     1   0.14273 236203.536000
    766    767     1   0.12190 494214.080000
    766    768     1   0.13621 293976.208000
    765    766     1   0.14907 219944.512000
    763    765     1   0.13986 296436.400000
    761    763     1   0.13986 296436.400000
    758    765     1   0.13986 296436.400000
    757    758     1   0.13986 296436.400000
    756    757     1   0.13986 296436.400000
    756    761     1   0.13986 296436.400000
    754    755     1   0.12190 494214.080000
    754    756     1   0.14907 219944.512000
    753    754     1   0.13621 293976.208000
    750    753     1   0.14273 236203.536000
    810    813     1   0.15354 191535.152000
    809    810     1   0.14273 236203.536000
    806    809     1   0.14273 236203.536000
    803    806     1   0.15354 191535.152000
    802    803     1   0.14273 236203.536000
    799    802     1   0.14273 236203.536000
    796    799     1   0.15354 191535.152000
    795    796     1   0.14273 236203.536000
    792    795     1   0.14273 236203.536000
    789    792     1   0.15354 191535.152000
    788    789     1   0.14273 236203.536000
    785    788     1   0.14273 236203.536000
    782    785     1   0.15354 191535.152000
    781    782     1   0.14273 236203.536000
    778    781     1   0.14273 236203.536000
    845    848     1   0.15354 191535.152000
    844    845     1   0.14273 236203.536000
    841    844     1   0.14273 236203.536000
    838    841     1   0.15354 191535.152000
    837    838     1   0.14273 236203.536000
    834    837     1   0.14273 236203.536000
    831    834     1   0.15354 191535.152000
    830    831     1   0.14273 236203.536000
    827    830     1   0.14273 236203.536000
    824    827     1   0.15354 191535.152000
    823    824     1   0.14273 236203.536000
    820    823     1   0.14273 236203.536000
    817    820     1   0.15354 191535.152000
    816    817     1   0.14273 236203.536000
    813    816     1   0.14273 236203.536000
    870    873     1   0.15354 191535.152000
    867    870     1   0.15354 191535.152000
    866    867     1   0.14273 236203.536000
    864    865     1   0.12190 494214.080000
    864    866     1   0.13621 293976.208000
    863    864     1   0.14907 219944.512000
    861    863     1   0.13986 296436.400000
    859    861     1   0.13986 296436.400000
    856    863     1   0.13986 296436.400000
    855    856     1   0.13986 296436.400000
    854    855     1   0.13986 296436.400000
    854    859     1   0.13986 296436.400000
    852    853     1   0.12190 494214.080000
    852    854     1   0.14907 219944.512000
    851    852     1   0.13621 293976.208000
    848    851     1   0.14273 236203.536000
     26     27     1   0.10962 288905.200000
     26     28     1   0.10962 288905.200000
     23     24     1   0.10962 288905.200000
     23     25     1   0.10962 288905.200000
     20     21     1   0.10969 288043.296000
     20     22     1   0.10969 288043.296000
     14     15     1   0.10860 301825.392000
     12     13     1   0.10860 301825.392000
      9     10     1   0.10860 301825.392000
      8     11     1   0.10860 301825.392000
      1      2     1   0.10969 288043.296000
      1      3     1   0.10969 288043.296000
     61     62     1   0.10969 288043.296000
     61     63     1   0.10969 288043.296000
     57     58     1   0.10969 288043.296000
     57     59     1   0.10969 288043.296000
     54     55     1   0.10969 288043.296000
     54     56     1   0.10969 288043.296000
     50     51     1   0.10969 288043.296000
     50     52     1   0.10969 288043.296000
     47     48     1   0.10969 288043.296000
     47     49     1   0.10969 288043.296000
     43     44     1   0.10969 288043.296000
     43     45     1   0.10969 288043.296000
     40     41     1   0.10969 288043.296000
     40     42     1   0.10969 288043.296000
     36     37     1   0.10969 288043.296000
     36     38     1   0.10969 288043.296000
     33     34     1   0.10969 288043.296000
     33     35     1   0.10969 288043.296000
     29     30     1   0.10969 288043.296000
     29     31     1   0.10969 288043.296000
     89     90     1   0.10962 288905.200000
     89     91     1   0.10962 288905.200000
     86     87     1   0.10962 288905.200000
     86     88     1   0.10962 288905.200000
     83     84     1   0.10969 288043.296000
     83     85     1   0.10969 288043.296000
     77     78     1   0.10860 301825.392000
     75     76     1   0.10860 301825.392000
     72     73     1   0.10860 301825.392000
     71     74     1   0.10860 301825.392000
     64     65     1   0.10969 288043.296000
     64     66     1   0.10969 288043.296000
    117    118     1   0.10962 288905.200000
    117    119     1   0.10962 288905.200000
    114    115     1   0.10962 288905.200000
    114    116     1   0.10962 288905.200000
    111    112     1   0.10969 288043.296000
    111    113     1   0.10969 288043.296000
    105    106     1   0.10860 301825.392000
    103    104     1   0.10860 301825.392000
    100    101     1   0.10860 301825.392000
     99    102     1   0.10860 301825.392000
     92     93     1   0.10969 288043.296000
     92     94     1   0.10969 288043.296000
    145    146     1   0.10962 288905.200000
    145    147     1   0.10962 288905.200000
    142    143     1   0.10962 288905.200000
    142    144     1   0.10962 288905.200000
    139    140     1   0.10969 288043.296000
    139    141     1   0.10969 288043.296000
    133    134     1   0.10860 301825.392000
    131    132     1   0.10860 301825.392000
    128    129     1   0.10860 301825.392000
    127    130     1   0.10860 301825.392000
    120    121     1   0.10969 288043.296000
    120    122     1   0.10969 288043.296000
    180    181     1   0.10969 288043.296000
    180    182     1   0.10969 288043.296000
    176    177     1   0.10969 288043.296000
    176    178     1   0.10969 288043.296000
    173    174     1   0.10969 288043.296000
    173    175     1   0.10969 288043.296000
    169    170     1   0.10969 288043.296000
    169    171     1   0.10969 288043.296000
    166    167     1   0.10969 288043.296000
    166    168     1   0.10969 288043.296000
    162    163     1   0.10969 288043.296000
    162    164     1   0.10969 288043.296000
    159    160     1   0.10969 288043.296000
    159    161     1   0.10969 288043.296000
    155    156     1   0.10969 288043.296000
    155    157     1   0.10969 288043.296000
    152    153     1   0.10969 288043.296000
    152    154     1   0.10969 288043.296000
    148    149     1   0.10969 288043.296000
    148    150     1   0.10969 288043.296000
    208    209     1   0.10962 288905.200000
    208    210     1   0.10962 288905.200000
    205    206     1   0.10962 288905.200000
    205    207     1   0.10962 288905.200000
    202    203     1   0.10969 288043.296000
    202    204     1   0.10969 288043.296000
    196    197     1   0.10860 301825.392000
    194    195     1   0.10860 301825.392000
    191    192     1   0.10860 301825.392000
    190    193     1   0.10860 301825.392000
    183    184     1   0.10969 288043.296000
    183    185     1   0.10969 288043.296000
    236    237     1   0.10962 288905.200000
    236    238     1   0.10962 288905.200000
    233    234     1   0.10962 288905.200000
    233    235     1   0.10962 288905.200000
    230    231     1   0.10969 288043.296000
    230    232     1   0.10969 288043.296000
    224    225     1   0.10860 301825.392000
    222    223     1   0.10860 301825.392000
    219    220     1   0.10860 301825.392000
    218    221     1   0.10860 301825.392000
    211    212     1   0.10969 288043.296000
    211    213     1   0.10969 288043.296000
    264    265     1   0.10962 288905.200000
    264    266     1   0.10962 288905.200000
    261    262     1   0.10962 288905.200000
    261    263     1   0.10962 288905.200000
    258    259     1   0.10969 288043.296000
    258    260     1   0.10969 288043.296000
    252    253     1   0.10860 301825.392000
    250    251     1   0.10860 301825.392000
    247    248     1   0.10860 301825.392000
    246    249     1   0.10860 301825.392000
    239    240     1   0.10969 288043.296000
    239    241     1   0.10969 288043.296000
    292    293     1   0.10962 288905.200000
    292    294     1   0.10962 288905.200000
    289    290     1   0.10962 288905.200000
    289    291     1   0.10962 288905.200000
    286    287     1   0.10969 288043.296000
    286    288     1   0.10969 288043.296000
    280    281     1   0.10860 301825.392000
    278    279     1   0.10860 301825.392000
    275    276     1   0.10860 301825.392000
    274    277     1   0.10860 301825.392000
    267    268     1   0.10969 288043.296000
    267    269     1   0.10969 288043.296000
    320    321     1   0.10962 288905.200000
    320    322     1   0.10962 288905.200000
    317    318     1   0.10962 288905.200000
    317    319     1   0.10962 288905.200000
    314    315     1   0.10969 288043.296000
    314    316     1   0.10969 288043.296000
    308    309     1   0.10860 301825.392000
    306    307     1   0.10860 301825.392000
    303    304     1   0.10860 301825.392000
    302    305     1   0.10860 301825.392000
    295    296     1   0.10969 288043.296000
    295    297     1   0.10969 288043.296000
    348    349     1   0.10962 288905.200000
    348    350     1   0.10962 288905.200000
    345    346     1   0.10962 288905.200000
    345    347     1   0.10962 288905.200000
    342    343     1   0.10969 288043.296000
    342    344     1   0.10969 288043.296000
    336    337     1   0.10860 301825.392000
    334    335     1   0.10860 301825.392000
    331    332     1   0.10860 301825.392000
    330    333     1   0.10860 301825.392000
    323    324     1   0.10969 288043.296000
    323    325     1   0.10969 288043.296000
    376    377     1   0.10962 288905.200000
    376    378     1   0.10962 288905.200000
    373    374     1   0.10962 288905.200000
    373    375     1   0.10962 288905.200000
    370    371     1   0.10969 288043.296000
    370    372     1   0.10969 288043.296000
    364    365     1   0.10860 301825.392000
    362    363     1   0.10860 301825.392000
    359    360     1   0.10860 301825.392000
    358    361     1   0.10860 301825.392000
    351    352     1   0.10969 288043.296000
    351    353     1   0.10969 288043.296000
    404    405     1   0.10962 288905.200000
    404    406     1   0.10962 288905.200000
    401    402     1   0.10962 288905.200000
    401    403     1   0.10962 288905.200000
    398    399     1   0.10969 288043.296000
    398    400     1   0.10969 288043.296000
    392    393     1   0.10860 301825.392000
    390    391     1   0.10860 301825.392000
    387    388     1   0.10860 301825.392000
    386    389     1   0.10860 301825.392000
    379    380     1   0.10969 288043.296000
    379    381     1   0.10969 288043.296000
    432    433     1   0.10962 288905.200000
    432    434     1   0.10962 288905.200000
    429    430     1   0.10962 288905.200000
    429    431     1   0.10962 288905.200000
    426    427     1   0.10969 288043.296000
    426    428     1   0.10969 288043.296000
    420    421     1   0.10860 301825.392000
    418    419     1   0.10860 301825.392000
    415    416     1   0.10860 301825.392000
    414    417     1   0.10860 301825.392000
    407    408     1   0.10969 288043.296000
    407    409     1   0.10969 288043.296000
    460    461     1   0.10962 288905.200000
    460    462     1   0.10962 288905.200000
    457    458     1   0.10962 288905.200000
    457    459     1   0.10962 288905.200000
    454    455     1   0.10969 288043.296000
    454    456     1   0.10969 288043.296000
    448    449     1   0.10860 301825.392000
    446    447     1   0.10860 301825.392000
    443    444     1   0.10860 301825.392000
    442    445     1   0.10860 301825.392000
    435    436     1   0.10969 288043.296000
    435    437     1   0.10969 288043.296000
    488    489     1   0.10962 288905.200000
    488    490     1   0.10962 288905.200000
    485    486     1   0.10962 288905.200000
    485    487     1   0.10962 288905.200000
    482    483     1   0.10969 288043.296000
    482    484     1   0.10969 288043.296000
    476    477     1   0.10860 301825.392000
    474    475     1   0.10860 301825.392000
    471    472     1   0.10860 301825.392000
    470    473     1   0.10860 301825.392000
    463    464     1   0.10969 288043.296000
    463    465     1   0.10969 288043.296000
    516    517     1   0.10962 288905.200000
    516    518     1   0.10962 288905.200000
    513    514     1   0.10962 288905.200000
    513    515     1   0.10962 288905.200000
    510    511     1   0.10969 288043.296000
    510    512     1   0.10969 288043.296000
    504    505     1   0.10860 301825.392000
    502    503     1   0.10860 301825.392000
    499    500     1   0.10860 301825.392000
    498    501     1   0.10860 301825.392000
    491    492     1   0.10969 288043.296000
    491    493     1   0.10969 288043.296000
    544    545     1   0.10962 288905.200000
    544    546     1   0.10962 288905.200000
    541    542     1   0.10962 288905.200000
    541    543     1   0.10962 288905.200000
    538    539     1   0.10969 288043.296000
    538    540     1   0.10969 288043.296000
    532    533     1   0.10860 301825.392000
    530    531     1   0.10860 301825.392000
    527    528     1   0.10860 301825.392000
    526    529     1   0.10860 301825.392000
    519    520     1   0.10969 288043.296000
    519    521     1   0.10969 288043.296000
    572    573     1   0.10962 288905.200000
    572    574     1   0.10962 288905.200000
    569    570     1   0.10962 288905.200000
    569    571     1   0.10962 288905.200000
    566    567     1   0.10969 288043.296000
    566    568     1   0.10969 288043.296000
    560    561     1   0.10860 301825.392000
    558    559     1   0.10860 301825.392000
    555    556     1   0.10860 301825.392000
    554    557     1   0.10860 301825.392000
    547    548     1   0.10969 288043.296000
    547    549     1   0.10969 288043.296000
    600    601     1   0.10962 288905.200000
    600    602     1   0.10962 288905.200000
    597    598     1   0.10962 288905.200000
    597    599     1   0.10962 288905.200000
    594    595     1   0.10969 288043.296000
    594    596     1   0.10969 288043.296000
    588    589     1   0.10860 301825.392000
    586    587     1   0.10860 301825.392000
    583    584     1   0.10860 301825.392000
    582    585     1   0.10860 301825.392000
    575    576     1   0.10969 288043.296000
    575    577     1   0.10969 288043.296000
    628    629     1   0.10962 288905.200000
    628    630     1   0.10962 288905.200000
    625    626     1   0.10962 288905.200000
    625    627     1   0.10962 288905.200000
    622    623     1   0.10969 288043.296000
    622    624     1   0.10969 288043.296000
    616    617     1   0.10860 301825.392000
    614    615     1   0.10860 301825.392000
    611    612     1   0.10860 301825.392000
    610    613     1   0.10860 301825.392000
    603    604     1   0.10969 288043.296000
    603    605     1   0.10969 288043.296000
    656    657     1   0.10962 288905.200000
    656    658     1   0.10962 288905.200000
    653    654     1   0.10962 288905.200000
    653    655     1   0.10962 288905.200000
    650    651     1   0.10969 288043.296000
    650    652     1   0.10969 288043.296000
    644    645     1   0.10860 301825.392000
    642    643     1   0.10860 301825.392000
    639    640     1   0.10860 301825.392000
    638    641     1   0.10860 301825.392000
    631    632     1   0.10969 288043.296000
    631    633     1   0.10969 288043.296000
    684    685     1   0.10962 288905.200000
    684    686     1   0.10962 288905.200000
    681    682     1   0.10962 288905.200000
    681    683     1   0.10962 288905.200000
    678    679     1   0.10969 288043.296000
    678    680     1   0.10969 288043.296000
    672    673     1   0.10860 301825.392000
    670    671     1   0.10860 301825.392000
    667    668     1   0.10860 301825.392000
    666    669     1   0.10860 301825.392000
    659    660     1   0.10969 288043.296000
    659    661     1   0.10969 288043.296000
    719    720     1   0.10969 288043.296000
    719    721     1   0.10969 288043.296000
    715    716     1   0.10969 288043.296000
    715    717     1   0.10969 288043.296000
    712    713     1   0.10969 288043.296000
    712    714     1   0.10969 288043.296000
    708    709     1   0.10969 288043.296000
    708    710     1   0.10969 288043.296000
    705    706     1   0.10969 288043.296000
    705    707     1   0.10969 288043.296000
    701    702     1   0.10969 288043.296000
    701    703     1   0.10969 288043.296000
    698    699     1   0.10969 288043.296000
    698    700     1   0.10969 288043.296000
    694    695     1   0.10969 288043.296000
    694    696     1   0.10969 288043.296000
    691    692     1   0.10969 288043.296000
    691    693     1   0.10969 288043.296000
    687    688     1   0.10969 288043.296000
    687    689     1   0.10969 288043.296000
    747    748     1   0.10962 288905.200000
    747    749     1   0.10962 288905.200000
    744    745     1   0.10962 288905.200000
    744    746     1   0.10962 288905.200000
    741    742     1   0.10969 288043.296000
    741    743     1   0.10969 288043.296000
    735    736     1   0.10860 301825.392000
    733    734     1   0.10860 301825.392000
    730    731     1   0.10860 301825.392000
    729    732     1   0.10860 301825.392000
    722    723     1   0.10969 288043.296000
    722    724     1   0.10969 288043.296000
    775    776     1   0.10962 288905.200000
    775    777     1   0.10962 288905.200000
    772    773     1   0.10962 288905.200000
    772    774     1   0.10962 288905.200000
    769    770     1   0.10969 288043.296000
    769    771     1   0.10969 288043.296000
    763    764     1   0.10860 301825.392000
    761    762     1   0.10860 301825.392000
    758    759     1   0.10860 301825.392000
    757    760     1   0.10860 301825.392000
    750    751     1   0.10969 288043.296000
    750    752     1   0.10969 288043.296000
    810    811     1   0.10969 288043.296000
    810    812     1   0.10969 288043.296000
    806    807     1   0.10969 288043.296000
    806    808     1   0.10969 288043.296000
    803    804     1   0.10969 288043.296000
    803    805     1   0.10969 288043.296000
    799    800     1   0.10969 288043.296000
    799    801     1   0.10969 288043.296000
    796    797     1   0.10969 288043.296000
    796    798     1   0.10969 288043.296000
    792    793     1   0.10969 288043.296000
    792    794     1   0.10969 288043.296000
    789    790     1   0.10969 288043.296000
    789    791     1   0.10969 288043.296000
    785    786     1   0.10969 288043.296000
    785    787     1   0.10969 288043.296000
    782    783     1   0.10969 288043.296000
    782    784     1   0.10969 288043.296000
    778    779     1   0.10969 288043.296000
    778    780     1   0.10969 288043.296000
    845    846     1   0.10969 288043.296000
    845    847     1   0.10969 288043.296000
    841    842     1   0.10969 288043.296000
    841    843     1   0.10969 288043.296000
    838    839     1   0.10969 288043.296000
    838    840     1   0.10969 288043.296000
    834    835     1   0.10969 288043.296000
    834    836     1   0.10969 288043.296000
    831    832     1   0.10969 288043.296000
    831    833     1   0.10969 288043.296000
    827    828     1   0.10969 288043.296000
    827    829     1   0.10969 288043.296000
    824    825     1   0.10969 288043.296000
    824    826     1   0.10969 288043.296000
    820    821     1   0.10969 288043.296000
    820    822     1   0.10969 288043.296000
    817    818     1   0.10969 288043.296000
    817    819     1   0.10969 288043.296000
    813    814     1   0.10969 288043.296000
    813    815     1   0.10969 288043.296000
    873    874     1   0.10962 288905.200000
    873    875     1   0.10962 288905.200000
    870    871     1   0.10962 288905.200000
    870    872     1   0.10962 288905.200000
    867    868     1   0.10969 288043.296000
    867    869     1   0.10969 288043.296000
    861    862     1   0.10860 301825.392000
    859    860     1   0.10860 301825.392000
    856    857     1   0.10860 301825.392000
    855    858     1   0.10860 301825.392000
    848    849     1   0.10969 288043.296000
    848    850     1   0.10969 288043.296000

[ pairs ]
;    ai     aj funct         c0         c1         c2         c3
     26     33     1
     23     32     1
     20     29     1
     19     26     1
     18     20     1
     17     23     1
     16     20     1
     14     18     1
     14     19     1
     12     17     1
      9     12     1
      9     18     1
      9     19     1
      8     14     1
      8     17     1
      7     16     1
      6      8     1
      6     12     1
      5      9     1
      5     14     1
      4      8     1
      4     12     1
      1      6     1
      1      7     1
     61     68     1
     60     67     1
     57     64     1
     54     61     1
     53     60     1
     50     57     1
     47     54     1
     46     53     1
     43     50     1
     40     47     1
     39     46     1
     36     43     1
     33     40     1
     32     39     1
     29     36     1
     89     96     1
     86     95     1
     83     92     1
     82     89     1
     81     83     1
     80     86     1
     79     83     1
     77     81     1
     77     82     1
     75     80     1
     72     75     1
     72     81     1
     72     82     1
     71     77     1
     71     80     1
     70     79     1
     69     71     1
     69     75     1
     68     72     1
     68     77     1
     67     71     1
     67     75     1
     64     69     1
     64     70     1
    117    124     1
    114    123     1
    111    120     1
    110    117     1
    109    111     1
    108    114     1
    107    111     1
    105    109     1
    105    110     1
    103    108     1
    100    103     1
    100    109     1
    100    110     1
     99    105     1
     99    108     1
     98    107     1
     97     99     1
     97    103     1
     96    100     1
     96    105     1
     95     99     1
     95    103     1
     92     97     1
     92     98     1
    145    152     1
    142    151     1
    139    148     1
    138    145     1
    137    139     1
    136    142     1
    135    139     1
    133    137     1
    133    138     1
    131    136     1
    128    131     1
    128    137     1
    128    138     1
    127    133     1
    127    136     1
    126    135     1
    125    127     1
    125    131     1
    124    128     1
    124    133     1
    123    127     1
    123    131     1
    120    125     1
    120    126     1
    180    187     1
    179    186     1
    176    183     1
    173    180     1
    172    179     1
    169    176     1
    166    173     1
    165    172     1
    162    169     1
    159    166     1
    158    165     1
    155    162     1
    152    159     1
    151    158     1
    148    155     1
    208    215     1
    205    214     1
    202    211     1
    201    208     1
    200    202     1
    199    205     1
    198    202     1
    196    200     1
    196    201     1
    194    199     1
    191    194     1
    191    200     1
    191    201     1
    190    196     1
    190    199     1
    189    198     1
    188    190     1
    188    194     1
    187    191     1
    187    196     1
    186    190     1
    186    194     1
    183    188     1
    183    189     1
    236    243     1
    233    242     1
    230    239     1
    229    236     1
    228    230     1
    227    233     1
    226    230     1
    224    228     1
    224    229     1
    222    227     1
    219    222     1
    219    228     1
    219    229     1
    218    224     1
    218    227     1
    217    226     1
    216    218     1
    216    222     1
    215    219     1
    215    224     1
    214    218     1
    214    222     1
    211    216     1
    211    217     1
    264    271     1
    261    270     1
    258    267     1
    257    264     1
    256    258     1
    255    261     1
    254    258     1
    252    256     1
    252    257     1
    250    255     1
    247    250     1
    247    256     1
    247    257     1
    246    252     1
    246    255     1
    245    254     1
    244    246     1
    244    250     1
    243    247     1
    243    252     1
    242    246     1
    242    250     1
    239    244     1
    239    245     1
    292    299     1
    289    298     1
    286    295     1
    285    292     1
    284    286     1
    283    289     1
    282    286     1
    280    284     1
    280    285     1
    278    283     1
    275    278     1
    275    284     1
    275    285     1
    274    280     1
    274    283     1
    273    282     1
    272    274     1
    272    278     1
    271    275     1
    271    280     1
    270    274     1
    270    278     1
    267    272     1
    267    273     1
    320    327     1
    317    326     1
    314    323     1
    313    320     1
    312    314     1
    311    317     1
    310    314     1
    308    312     1
    308    313     1
    306    311     1
    303    306     1
    303    312     1
    303    313     1
    302    308     1
    302    311     1
    301    310     1
    300    302     1
    300    306     1
    299    303     1
    299    308     1
    298    302     1
    298    306     1
    295    300     1
    295    301     1
    348    355     1
    345    354     1
    342    351     1
    341    348     1
    340    342     1
    339    345     1
    338    342     1
    336    340     1
    336    341     1
    334    339     1
    331    334     1
    331    340     1
    331    341     1
    330    336     1
    330    339     1
    329    338     1
    328    330     1
    328    334     1
    327    331     1
    327    336     1
    326    330     1
    326    334     1
    323    328     1
    323    329     1
    376    383     1
    373    382     1
    370    379     1
    369    376     1
    368    370     1
    367    373     1
    366    370     1
    364    368     1
    364    369     1
    362    367     1
    359    362     1
    359    368     1
    359    369     1
    358    364     1
    358    367     1
    357    366     1
    356    358     1
    356    362     1
    355    359     1
    355    364     1
    354    358     1
    354    362     1
    351    356     1
    351    357     1
    404    411     1
    401    410     1
    398    407     1
    397    404     1
    396    398     1
    395    401     1
    394    398     1
    392    396     1
    392    397     1
    390    395     1
    387    390     1
    387    396     1
    387    397     1
    386    392     1
    386    395     1
    385    394     1
    384    386     1
    384    390     1
    383    387     1
    383    392     1
    382    386     1
    382    390     1
    379    384     1
    379    385     1
    432    439     1
    429    438     1
    426    435     1
    425    432     1
    424    426     1
    423    429     1
    422    426     1
    420    424     1
    420    425     1
    418    423     1
    415    418     1
    415    424     1
    415    425     1
    414    420     1
    414    423     1
    413    422     1
    412    414     1
    412    418     1
    411    415     1
    411    420     1
    410    414     1
    410    418     1
    407    412     1
    407    413     1
    460    467     1
    457    466     1
    454    463     1
    453    460     1
    452    454     1
    451    457     1
    450    454     1
    448    452     1
    448    453     1
    446    451     1
    443    446     1
    443    452     1
    443    453     1
    442    448     1
    442    451     1
    441    450     1
    440    442     1
    440    446     1
    439    443     1
    439    448     1
    438    442     1
    438    446     1
    435    440     1
    435    441     1
    488    495     1
    485    494     1
    482    491     1
    481    488     1
    480    482     1
    479    485     1
    478    482     1
    476    480     1
    476    481     1
    474    479     1
    471    474     1
    471    480     1
    471    481     1
    470    476     1
    470    479     1
    469    478     1
    468    470     1
    468    474     1
    467    471     1
    467    476     1
    466    470     1
    466    474     1
    463    468     1
    463    469     1
    516    523     1
    513    522     1
    510    519     1
    509    516     1
    508    510     1
    507    513     1
    506    510     1
    504    508     1
    504    509     1
    502    507     1
    499    502     1
    499    508     1
    499    509     1
    498    504     1
    498    507     1
    497    506     1
    496    498     1
    496    502     1
    495    499     1
    495    504     1
    494    498     1
    494    502     1
    491    496     1
    491    497     1
    544    551     1
    541    550     1
    538    547     1
    537    544     1
    536    538     1
    535    541     1
    534    538     1
    532    536     1
    532    537     1
    530    535     1
    527    530     1
    527    536     1
    527    537     1
    526    532     1
    526    535     1
    525    534     1
    524    526     1
    524    530     1
    523    527     1
    523    532     1
    522    526     1
    522    530     1
    519    524     1
    519    525     1
    572    579     1
    569    578     1
    566    575     1
    565    572     1
    564    566     1
    563    569     1
    562    566     1
    560    564     1
    560    565     1
    558    563     1
    555    558     1
    555    564     1
    555    565     1
    554    560     1
    554    563     1
    553    562     1
    552    554     1
    552    558     1
    551    555     1
    551    560     1
    550    554     1
    550    558     1
    547    552     1
    547    553     1
    600    607     1
    597    606     1
    594    603     1
    593    600     1
    592    594     1
    591    597     1
    590    594     1
    588    592     1
    588    593     1
    586    591     1
    583    586     1
    583    592     1
    583    593     1
    582    588     1
    582    591     1
    581    590     1
    580    582     1
    580    586     1
    579    583     1
    579    588     1
    578    582     1
    578    586     1
    575    580     1
    575    581     1
    628    635     1
    625    634     1
    622    631     1
    621    628     1
    620    622     1
    619    625     1
    618    622     1
    616    620     1
    616    621     1
    614    619     1
    611    614     1
    611    620     1
    611    621     1
    610    616     1
    610    619     1
    609    618     1
    608    610     1
    608    614     1
    607    611     1
    607    616     1
    606    610     1
    606    614     1
    603    608     1
    603    609     1
    656    663     1
    653    662     1
    650    659     1
    649    656     1
    648    650     1
    647    653     1
    646    650     1
    644    648     1
    644    649     1
    642    647     1
    639    642     1
    639    648     1
    639    649     1
    638    644     1
    638    647     1
    637    646     1
    636    638     1
    636    642     1
    635    639     1
    635    644     1
    634    638     1
    634    642     1
    631    636     1
    631    637     1
    684    691     1
    681    690     1
    678    687     1
    677    684     1
    676    678     1
    675    681     1
    674    678     1
    672    676     1
    672    677     1
    670    675     1
    667    670     1
    667    676     1
    667    677     1
    666    672     1
    666    675     1
    665    674     1
    664    666     1
    664    670     1
    663    667     1
    663    672     1
    662    666     1
    662    670     1
    659    664     1
    659    665     1
    719    726     1
    718    725     1
    715    722     1
    712    719     1
    711    718     1
    708    715     1
    705    712     1
    704    711     1
    701    708     1
    698    705     1
    697    704     1
    694    701     1
    691    698     1
    690    697     1
    687    694     1
    747    754     1
    744    753     1
    741    750     1
    740    747     1
    739    741     1
    738    744     1
    737    741     1
    735    739     1
    735    740     1
    733    738     1
    730    733     1
    730    739     1
    730    740     1
    729    735     1
    729    738     1
    728    737     1
    727    729     1
    727    733     1
    726    730     1
    726    735     1
    725    729     1
    725    733     1
    722    727     1
    722    728     1
    775    782     1
    772    781     1
    769    778     1
    768    775     1
    767    769     1
    766    772     1
    765    769     1
    763    767     1
    763    768     1
    761    766     1
    758    761     1
    758    767     1
    758    768     1
    757    763     1
    757    766     1
    756    765     1
    755    757     1
    755    761     1
    754    758     1
    754    763     1
    753    757     1
    753    761     1
    750    755     1
    750    756     1
    810    817     1
    809    816     1
    806    813     1
    803    810     1
    802    809     1
    799    806     1
    796    803     1
    795    802     1
    792    799     1
    789    796     1
    788    795     1
    785    792     1
    782    789     1
    781    788     1
    778    785     1
    845    852     1
    844    851     1
    841    848     1
    838    845     1
    837    844     1
    834    841     1
    831    838     1
    830    837     1
    827    834     1
    824    831     1
    823    830     1
    820    827     1
    817    824     1
    816    823     1
    813    820     1
    866    873     1
    865    867     1
    864    870     1
    863    867     1
    861    865     1
    861    866     1
    859    864     1
    856    859     1
    856    865     1
    856    866     1
    855    861     1
    855    864     1
    854    863     1
    853    855     1
    853    859     1
    852    856     1
    852    861     1
    851    855     1
    851    859     1
    848    853     1
    848    854     1
     28     30     1
     28     31     1
     28     32     1
     27     30     1
     27     31     1
     27     32     1
     25     27     1
     25     28     1
     25     29     1
     24     27     1
     24     28     1
     24     29     1
     23     30     1
     23     31     1
     22     24     1
     22     25     1
     22     26     1
     21     24     1
     21     25     1
     21     26     1
     20     27     1
     20     28     1
     19     24     1
     19     25     1
     17     21     1
     17     22     1
     15     17     1
     13     15     1
     13     16     1
     11     12     1
     11     16     1
     10     11     1
     10     14     1
     10     17     1
      9     15     1
      8     13     1
      7     10     1
      7     15     1
      5     11     1
      5     13     1
      3      5     1
      2      5     1
     63     65     1
     63     66     1
     63     67     1
     62     65     1
     62     66     1
     62     67     1
     60     65     1
     60     66     1
     59     61     1
     58     61     1
     57     62     1
     57     63     1
     56     58     1
     56     59     1
     56     60     1
     55     58     1
     55     59     1
     55     60     1
     53     58     1
     53     59     1
     52     54     1
     51     54     1
     50     55     1
     50     56     1
     49     51     1
     49     52     1
     49     53     1
     48     51     1
     48     52     1
     48     53     1
     46     51     1
     46     52     1
     45     47     1
     44     47     1
     43     48     1
     43     49     1
     42     44     1
     42     45     1
     42     46     1
     41     44     1
     41     45     1
     41     46     1
     39     44     1
     39     45     1
     38     40     1
     37     40     1
     36     41     1
     36     42     1
     35     37     1
     35     38     1
     35     39     1
     34     37     1
     34     38     1
     34     39     1
     32     37     1
     32     38     1
     31     33     1
     30     33     1
     29     34     1
     29     35     1
     91     93     1
     91     94     1
     91     95     1
     90     93     1
     90     94     1
     90     95     1
     88     90     1
     88     91     1
     88     92     1
     87     90     1
     87     91     1
     87     92     1
     86     93     1
     86     94     1
     85     87     1
     85     88     1
     85     89     1
     84     87     1
     84     88     1
     84     89     1
     83     90     1
     83     91     1
     82     87     1
     82     88     1
     80     84     1
     80     85     1
     78     80     1
     76     78     1
     76     79     1
     74     75     1
     74     79     1
     73     74     1
     73     77     1
     73     80     1
     72     78     1
     71     76     1
     70     73     1
     70     78     1
     68     74     1
     68     76     1
     66     68     1
     65     68     1
    119    121     1
    119    122     1
    119    123     1
    118    121     1
    118    122     1
    118    123     1
    116    118     1
    116    119     1
    116    120     1
    115    118     1
    115    119     1
    115    120     1
    114    121     1
    114    122     1
    113    115     1
    113    116     1
    113    117     1
    112    115     1
    112    116     1
    112    117     1
    111    118     1
    111    119     1
    110    115     1
    110    116     1
    108    112     1
    108    113     1
    106    108     1
    104    106     1
    104    107     1
    102    103     1
    102    107     1
    101    102     1
    101    105     1
    101    108     1
    100    106     1
     99    104     1
     98    101     1
     98    106     1
     96    102     1
     96    104     1
     94     96     1
     93     96     1
    147    149     1
    147    150     1
    147    151     1
    146    149     1
    146    150     1
    146    151     1
    144    146     1
    144    147     1
    144    148     1
    143    146     1
    143    147     1
    143    148     1
    142    149     1
    142    150     1
    141    143     1
    141    144     1
    141    145     1
    140    143     1
    140    144     1
    140    145     1
    139    146     1
    139    147     1
    138    143     1
    138    144     1
    136    140     1
    136    141     1
    134    136     1
    132    134     1
    132    135     1
    130    131     1
    130    135     1
    129    130     1
    129    133     1
    129    136     1
    128    134     1
    127    132     1
    126    129     1
    126    134     1
    124    130     1
    124    132     1
    122    124     1
    121    124     1
    182    184     1
    182    185     1
    182    186     1
    181    184     1
    181    185     1
    181    186     1
    179    184     1
    179    185     1
    178    180     1
    177    180     1
    176    181     1
    176    182     1
    175    177     1
    175    178     1
    175    179     1
    174    177     1
    174    178     1
    174    179     1
    172    177     1
    172    178     1
    171    173     1
    170    173     1
    169    174     1
    169    175     1
    168    170     1
    168    171     1
    168    172     1
    167    170     1
    167    171     1
    167    172     1
    165    170     1
    165    171     1
    164    166     1
    163    166     1
    162    167     1
    162    168     1
    161    163     1
    161    164     1
    161    165     1
    160    163     1
    160    164     1
    160    165     1
    158    163     1
    158    164     1
    157    159     1
    156    159     1
    155    160     1
    155    161     1
    154    156     1
    154    157     1
    154    158     1
    153    156     1
    153    157     1
    153    158     1
    151    156     1
    151    157     1
    150    152     1
    149    152     1
    148    153     1
    148    154     1
    210    212     1
    210    213     1
    210    214     1
    209    212     1
    209    213     1
    209    214     1
    207    209     1
    207    210     1
    207    211     1
    206    209     1
    206    210     1
    206    211     1
    205    212     1
    205    213     1
    204    206     1
    204    207     1
    204    208     1
    203    206     1
    203    207     1
    203    208     1
    202    209     1
    202    210     1
    201    206     1
    201    207     1
    199    203     1
    199    204     1
    197    199     1
    195    197     1
    195    198     1
    193    194     1
    193    198     1
    192    193     1
    192    196     1
    192    199     1
    191    197     1
    190    195     1
    189    192     1
    189    197     1
    187    193     1
    187    195     1
    185    187     1
    184    187     1
    238    240     1
    238    241     1
    238    242     1
    237    240     1
    237    241     1
    237    242     1
    235    237     1
    235    238     1
    235    239     1
    234    237     1
    234    238     1
    234    239     1
    233    240     1
    233    241     1
    232    234     1
    232    235     1
    232    236     1
    231    234     1
    231    235     1
    231    236     1
    230    237     1
    230    238     1
    229    234     1
    229    235     1
    227    231     1
    227    232     1
    225    227     1
    223    225     1
    223    226     1
    221    222     1
    221    226     1
    220    221     1
    220    224     1
    220    227     1
    219    225     1
    218    223     1
    217    220     1
    217    225     1
    215    221     1
    215    223     1
    213    215     1
    212    215     1
    266    268     1
    266    269     1
    266    270     1
    265    268     1
    265    269     1
    265    270     1
    263    265     1
    263    266     1
    263    267     1
    262    265     1
    262    266     1
    262    267     1
    261    268     1
    261    269     1
    260    262     1
    260    263     1
    260    264     1
    259    262     1
    259    263     1
    259    264     1
    258    265     1
    258    266     1
    257    262     1
    257    263     1
    255    259     1
    255    260     1
    253    255     1
    251    253     1
    251    254     1
    249    250     1
    249    254     1
    248    249     1
    248    252     1
    248    255     1
    247    253     1
    246    251     1
    245    248     1
    245    253     1
    243    249     1
    243    251     1
    241    243     1
    240    243     1
    294    296     1
    294    297     1
    294    298     1
    293    296     1
    293    297     1
    293    298     1
    291    293     1
    291    294     1
    291    295     1
    290    293     1
    290    294     1
    290    295     1
    289    296     1
    289    297     1
    288    290     1
    288    291     1
    288    292     1
    287    290     1
    287    291     1
    287    292     1
    286    293     1
    286    294     1
    285    290     1
    285    291     1
    283    287     1
    283    288     1
    281    283     1
    279    281     1
    279    282     1
    277    278     1
    277    282     1
    276    277     1
    276    280     1
    276    283     1
    275    281     1
    274    279     1
    273    276     1
    273    281     1
    271    277     1
    271    279     1
    269    271     1
    268    271     1
    322    324     1
    322    325     1
    322    326     1
    321    324     1
    321    325     1
    321    326     1
    319    321     1
    319    322     1
    319    323     1
    318    321     1
    318    322     1
    318    323     1
    317    324     1
    317    325     1
    316    318     1
    316    319     1
    316    320     1
    315    318     1
    315    319     1
    315    320     1
    314    321     1
    314    322     1
    313    318     1
    313    319     1
    311    315     1
    311    316     1
    309    311     1
    307    309     1
    307    310     1
    305    306     1
    305    310     1
    304    305     1
    304    308     1
    304    311     1
    303    309     1
    302    307     1
    301    304     1
    301    309     1
    299    305     1
    299    307     1
    297    299     1
    296    299     1
    350    352     1
    350    353     1
    350    354     1
    349    352     1
    349    353     1
    349    354     1
    347    349     1
    347    350     1
    347    351     1
    346    349     1
    346    350     1
    346    351     1
    345    352     1
    345    353     1
    344    346     1
    344    347     1
    344    348     1
    343    346     1
    343    347     1
    343    348     1
    342    349     1
    342    350     1
    341    346     1
    341    347     1
    339    343     1
    339    344     1
    337    339     1
    335    337     1
    335    338     1
    333    334     1
    333    338     1
    332    333     1
    332    336     1
    332    339     1
    331    337     1
    330    335     1
    329    332     1
    329    337     1
    327    333     1
    327    335     1
    325    327     1
    324    327     1
    378    380     1
    378    381     1
    378    382     1
    377    380     1
    377    381     1
    377    382     1
    375    377     1
    375    378     1
    375    379     1
    374    377     1
    374    378     1
    374    379     1
    373    380     1
    373    381     1
    372    374     1
    372    375     1
    372    376     1
    371    374     1
    371    375     1
    371    376     1
    370    377     1
    370    378     1
    369    374     1
    369    375     1
    367    371     1
    367    372     1
    365    367     1
    363    365     1
    363    366     1
    361    362     1
    361    366     1
    360    361     1
    360    364     1
    360    367     1
    359    365     1
    358    363     1
    357    360     1
    357    365     1
    355    361     1
    355    363     1
    353    355     1
    352    355     1
    406    408     1
    406    409     1
    406    410     1
    405    408     1
    405    409     1
    405    410     1
    403    405     1
    403    406     1
    403    407     1
    402    405     1
    402    406     1
    402    407     1
    401    408     1
    401    409     1
    400    402     1
    400    403     1
    400    404     1
    399    402     1
    399    403     1
    399    404     1
    398    405     1
    398    406     1
    397    402     1
    397    403     1
    395    399     1
    395    400     1
    393    395     1
    391    393     1
    391    394     1
    389    390     1
    389    394     1
    388    389     1
    388    392     1
    388    395     1
    387    393     1
    386    391     1
    385    388     1
    385    393     1
    383    389     1
    383    391     1
    381    383     1
    380    383     1
    434    436     1
    434    437     1
    434    438     1
    433    436     1
    433    437     1
    433    438     1
    431    433     1
    431    434     1
    431    435     1
    430    433     1
    430    434     1
    430    435     1
    429    436     1
    429    437     1
    428    430     1
    428    431     1
    428    432     1
    427    430     1
    427    431     1
    427    432     1
    426    433     1
    426    434     1
    425    430     1
    425    431     1
    423    427     1
    423    428     1
    421    423     1
    419    421     1
    419    422     1
    417    418     1
    417    422     1
    416    417     1
    416    420     1
    416    423     1
    415    421     1
    414    419     1
    413    416     1
    413    421     1
    411    417     1
    411    419     1
    409    411     1
    408    411     1
    462    464     1
    462    465     1
    462    466     1
    461    464     1
    461    465     1
    461    466     1
    459    461     1
    459    462     1
    459    463     1
    458    461     1
    458    462     1
    458    463     1
    457    464     1
    457    465     1
    456    458     1
    456    459     1
    456    460     1
    455    458     1
    455    459     1
    455    460     1
    454    461     1
    454    462     1
    453    458     1
    453    459     1
    451    455     1
    451    456     1
    449    451     1
    447    449     1
    447    450     1
    445    446     1
    445    450     1
    444    445     1
    444    448     1
    444    451     1
    443    449     1
    442    447     1
    441    444     1
    441    449     1
    439    445     1
    439    447     1
    437    439     1
    436    439     1
    490    492     1
    490    493     1
    490    494     1
    489    492     1
    489    493     1
    489    494     1
    487    489     1
    487    490     1
    487    491     1
    486    489     1
    486    490     1
    486    491     1
    485    492     1
    485    493     1
    484    486     1
    484    487     1
    484    488     1
    483    486     1
    483    487     1
    483    488     1
    482    489     1
    482    490     1
    481    486     1
    481    487     1
    479    483     1
    479    484     1
    477    479     1
    475    477     1
    475    478     1
    473    474     1
    473    478     1
    472    473     1
    472    476     1
    472    479     1
    471    477     1
    470    475     1
    469    472     1
    469    477     1
    467    473     1
    467    475     1
    465    467     1
    464    467     1
    518    520     1
    518    521     1
    518    522     1
    517    520     1
    517    521     1
    517    522     1
    515    517     1
    515    518     1
    515    519     1
    514    517     1
    514    518     1
    514    519     1
    513    520     1
    513    521     1
    512    514     1
    512    515     1
    512    516     1
    511    514     1
    511    515     1
    511    516     1
    510    517     1
    510    518     1
    509    514     1
    509    515     1
    507    511     1
    507    512     1
    505    507     1
    503    505     1
    503    506     1
    501    502     1
    501    506     1
    500    501     1
    500    504     1
    500    507     1
    499    505     1
    498    503     1
    497    500     1
    497    505     1
    495    501     1
    495    503     1
    493    495     1
    492    495     1
    546    548     1
    546    549     1
    546    550     1
    545    548     1
    545    549     1
    545    550     1
    543    545     1
    543    546     1
    543    547     1
    542    545     1
    542    546     1
    542    547     1
    541    548     1
    541    549     1
    540    542     1
    540    543     1
    540    544     1
    539    542     1
    539    543     1
    539    544     1
    538    545     1
    538    546     1
    537    542     1
    537    543     1
    535    539     1
    535    540     1
    533    535     1
    531    533     1
    531    534     1
    529    530     1
    529    534     1
    528    529     1
    528    532     1
    528    535     1
    527    533     1
    526    531     1
    525    528     1
    525    533     1
    523    529     1
    523    531     1
    521    523     1
    520    523     1
    574    576     1
    574    577     1
    574    578     1
    573    576     1
    573    577     1
    573    578     1
    571    573     1
    571    574     1
    571    575     1
    570    573     1
    570    574     1
    570    575     1
    569    576     1
    569    577     1
    568    570     1
    568    571     1
    568    572     1
    567    570     1
    567    571     1
    567    572     1
    566    573     1
    566    574     1
    565    570     1
    565    571     1
    563    567     1
    563    568     1
    561    563     1
    559    561     1
    559    562     1
    557    558     1
    557    562     1
    556    557     1
    556    560     1
    556    563     1
    555    561     1
    554    559     1
    553    556     1
    553    561     1
    551    557     1
    551    559     1
    549    551     1
    548    551     1
    602    604     1
    602    605     1
    602    606     1
    601    604     1
    601    605     1
    601    606     1
    599    601     1
    599    602     1
    599    603     1
    598    601     1
    598    602     1
    598    603     1
    597    604     1
    597    605     1
    596    598     1
    596    599     1
    596    600     1
    595    598     1
    595    599     1
    595    600     1
    594    601     1
    594    602     1
    593    598     1
    593    599     1
    591    595     1
    591    596     1
    589    591     1
    587    589     1
    587    590     1
    585    586     1
    585    590     1
    584    585     1
    584    588     1
    584    591     1
    583    589     1
    582    587     1
    581    584     1
    581    589     1
    579    585     1
    579    587     1
    577    579     1
    576    579     1
    630    632     1
    630    633     1
    630    634     1
    629    632     1
    629    633     1
    629    634     1
    627    629     1
    627    630     1
    627    631     1
    626    629     1
    626    630     1
    626    631     1
    625    632     1
    625    633     1
    624    626     1
    624    627     1
    624    628     1
    623    626     1
    623    627     1
    623    628     1
    622    629     1
    622    630     1
    621    626     1
    621    627     1
    619    623     1
    619    624     1
    617    619     1
    615    617     1
    615    618     1
    613    614     1
    613    618     1
    612    613     1
    612    616     1
    612    619     1
    611    617     1
    610    615     1
    609    612     1
    609    617     1
    607    613     1
    607    615     1
    605    607     1
    604    607     1
    658    660     1
    658    661     1
    658    662     1
    657    660     1
    657    661     1
    657    662     1
    655    657     1
    655    658     1
    655    659     1
    654    657     1
    654    658     1
    654    659     1
    653    660     1
    653    661     1
    652    654     1
    652    655     1
    652    656     1
    651    654     1
    651    655     1
    651    656     1
    650    657     1
    650    658     1
    649    654     1
    649    655     1
    647    651     1
    647    652     1
    645    647     1
    643    645     1
    643    646     1
    641    642     1
    641    646     1
    640    641     1
    640    644     1
    640    647     1
    639    645     1
    638    643     1
    637    640     1
    637    645     1
    635    641     1
    635    643     1
    633    635     1
    632    635     1
    686    688     1
    686    689     1
    686    690     1
    685    688     1
    685    689     1
    685    690     1
    683    685     1
    683    686     1
    683    687     1
    682    685     1
    682    686     1
    682    687     1
    681    688     1
    681    689     1
    680    682     1
    680    683     1
    680    684     1
    679    682     1
    679    683     1
    679    684     1
    678    685     1
    678    686     1
    677    682     1
    677    683     1
    675    679     1
    675    680     1
    673    675     1
    671    673     1
    671    674     1
    669    670     1
    669    674     1
    668    669     1
    668    672     1
    668    675     1
    667    673     1
    666    671     1
    665    668     1
    665    673     1
    663    669     1
    663    671     1
    661    663     1
    660    663     1
    721    723     1
    721    724     1
    721    725     1
    720    723     1
    720    724     1
    720    725     1
    718    723     1
    718    724     1
    717    719     1
    716    719     1
    715    720     1
    715    721     1
    714    716     1
    714    717     1
    714    718     1
    713    716     1
    713    717     1
    713    718     1
    711    716     1
    711    717     1
    710    712     1
    709    712     1
    708    713     1
    708    714     1
    707    709     1
    707    710     1
    707    711     1
    706    709     1
    706    710     1
    706    711     1
    704    709     1
    704    710     1
    703    705     1
    702    705     1
    701    706     1
    701    707     1
    700    702     1
    700    703     1
    700    704     1
    699    702     1
    699    703     1
    699    704     1
    697    702     1
    697    703     1
    696    698     1
    695    698     1
    694    699     1
    694    700     1
    693    695     1
    693    696     1
    693    697     1
    692    695     1
    692    696     1
    692    697     1
    690    695     1
    690    696     1
    689    691     1
    688    691     1
    687    692     1
    687    693     1
    749    751     1
    749    752     1
    749    753     1
    748    751     1
    748    752     1
    748    753     1
    746    748     1
    746    749     1
    746    750     1
    745    748     1
    745    749     1
    745    750     1
    744    751     1
    744    752     1
    743    745     1
    743    746     1
    743    747     1
    742    745     1
    742    746     1
    742    747     1
    741    748     1
    741    749     1
    740    745     1
    740    746     1
    738    742     1
    738    743     1
    736    738     1
    734    736     1
    734    737     1
    732    733     1
    732    737     1
    731    732     1
    731    735     1
    731    738     1
    730    736     1
    729    734     1
    728    731     1
    728    736     1
    726    732     1
    726    734     1
    724    726     1
    723    726     1
    777    779     1
    777    780     1
    777    781     1
    776    779     1
    776    780     1
    776    781     1
    774    776     1
    774    777     1
    774    778     1
    773    776     1
    773    777     1
    773    778     1
    772    779     1
    772    780     1
    771    773     1
    771    774     1
    771    775     1
    770    773     1
    770    774     1
    770    775     1
    769    776     1
    769    777     1
    768    773     1
    768    774     1
    766    770     1
    766    771     1
    764    766     1
    762    764     1
    762    765     1
    760    761     1
    760    765     1
    759    760     1
    759    763     1
    759    766     1
    758    764     1
    757    762     1
    756    759     1
    756    764     1
    754    760     1
    754    762     1
    752    754     1
    751    754     1
    812    814     1
    812    815     1
    812    816     1
    811    814     1
    811    815     1
    811    816     1
    809    814     1
    809    815     1
    808    810     1
    807    810     1
    806    811     1
    806    812     1
    805    807     1
    805    808     1
    805    809     1
    804    807     1
    804    808     1
    804    809     1
    802    807     1
    802    808     1
    801    803     1
    800    803     1
    799    804     1
    799    805     1
    798    800     1
    798    801     1
    798    802     1
    797    800     1
    797    801     1
    797    802     1
    795    800     1
    795    801     1
    794    796     1
    793    796     1
    792    797     1
    792    798     1
    791    793     1
    791    794     1
    791    795     1
    790    793     1
    790    794     1
    790    795     1
    788    793     1
    788    794     1
    787    789     1
    786    789     1
    785    790     1
    785    791     1
    784    786     1
    784    787     1
    784    788     1
    783    786     1
    783    787     1
    783    788     1
    781    786     1
    781    787     1
    780    782     1
    779    782     1
    778    783     1
    778    784     1
    847    849     1
    847    850     1
    847    851     1
    846    849     1
    846    850     1
    846    851     1
    844    849     1
    844    850     1
    843    845     1
    842    845     1
    841    846     1
    841    847     1
    840    842     1
    840    843     1
    840    844     1
    839    842     1
    839    843     1
    839    844     1
    837    842     1
    837    843     1
    836    838     1
    835    838     1
    834    839     1
    834    840     1
    833    835     1
    833    836     1
    833    837     1
    832    835     1
    832    836     1
    832    837     1
    830    835     1
    830    836     1
    829    831     1
    828    831     1
    827    832     1
    827    833     1
    826    828     1
    826    829     1
    826    830     1
    825    828     1
    825    829     1
    825    830     1
    823    828     1
    823    829     1
    822    824     1
    821    824     1
    820    825     1
    820    826     1
    819    821     1
    819    822     1
    819    823     1
    818    821     1
    818    822     1
    818    823     1
    816    821     1
    816    822     1
    815    817     1
    814    817     1
    813    818     1
    813    819     1
    872    874     1
    872    875     1
    871    874     1
    871    875     1
    869    871     1
    869    872     1
    869    873     1
    868    871     1
    868    872     1
    868    873     1
    867    874     1
    867    875     1
    866    871     1
    866    872     1
    864    868     1
    864    869     1
    862    864     1
    860    862     1
    860    863     1
    858    859     1
    858    863     1
    857    858     1
    857    861     1
    857    864     1
    856    862     1
    855    860     1
    854    857     1
    854    862     1
    852    858     1
    852    860     1
    850    852     1
    849    852     1

[ angles ]
;    ai     aj     ak funct         c0         c1         c2         c3
     26     29     32     1   107.6200464 648.017920
     23     26     29     1   112.6300483 500.992160
     20     23     26     1   112.6300483 500.992160
     19     20     23     1   107.6200464 648.017920
     18     17     19     1   123.2000528 847.343680
     17     19     20     1   115.8200499 748.350240
     16     17     18     1   122.6000525 652.369280
     16     17     19     1   112.4100480 657.557440
     14     16     17     1   120.3300516 514.129920
     12     14     16     1   120.0200517 532.790560
      9     16     14     1   120.0200517 532.790560
      9     16     17     1   120.3300516 514.129920
      8      7     12     1   120.0200517 532.790560
      8      9     16     1   120.0200517 532.790560
      7      8      9     1   120.0200517 532.790560
      7     12     14     1   120.0200517 532.790560
      6      5      7     1   122.6000525 652.369280
      5      7      8     1   120.3300516 514.129920
      5      7     12     1   120.3300516 514.129920
      4      5      6     1   123.2000528 847.343680
      4      5      7     1   112.4100480 657.557440
      1      4      5     1   115.8200499 748.350240
     61     64     67     1   107.6200464 648.017920
     60     61     64     1   107.6200464 648.017920
     57     60     61     1   113.6000487 739.145440
     54     57     60     1   107.6200464 648.017920
     53     54     57     1   107.6200464 648.017920
     50     53     54     1   113.6000487 739.145440
     47     50     53     1   107.6200464 648.017920
     46     47     50     1   107.6200464 648.017920
     43     46     47     1   113.6000487 739.145440
     40     43     46     1   107.6200464 648.017920
     39     40     43     1   107.6200464 648.017920
     36     39     40     1   113.6000487 739.145440
     33     36     39     1   107.6200464 648.017920
     32     33     36     1   107.6200464 648.017920
     29     32     33     1   113.6000487 739.145440
     89     92     95     1   107.6200464 648.017920
     86     89     92     1   112.6300483 500.992160
     83     86     89     1   112.6300483 500.992160
     82     83     86     1   107.6200464 648.017920
     81     80     82     1   123.2000528 847.343680
     80     82     83     1   115.8200499 748.350240
     79     80     81     1   122.6000525 652.369280
     79     80     82     1   112.4100480 657.557440
     77     79     80     1   120.3300516 514.129920
     75     77     79     1   120.0200517 532.790560
     72     79     77     1   120.0200517 532.790560
     72     79     80     1   120.3300516 514.129920
     71     70     75     1   120.0200517 532.790560
     71     72     79     1   120.0200517 532.790560
     70     71     72     1   120.0200517 532.790560
     70     75     77     1   120.0200517 532.790560
     69     68     70     1   122.6000525 652.369280
     68     70     71     1   120.3300516 514.129920
     68     70     75     1   120.3300516 514.129920
     67     68     69     1   123.2000528 847.343680
     67     68     70     1   112.4100480 657.557440
     64     67     68     1   115.8200499 748.350240
    117    120    123     1   107.6200464 648.017920
    114    117    120     1   112.6300483 500.992160
    111    114    117     1   112.6300483 500.992160
    110    111    114     1   107.6200464 648.017920
    109    108    110     1   123.2000528 847.343680
    108    110    111     1   115.8200499 748.350240
    107    108    109     1   122.6000525 652.369280
    107    108    110     1   112.4100480 657.557440
    105    107    108     1   120.3300516 514.129920
    103    105    107     1   120.0200517 532.790560
    100    107    105     1   120.0200517 532.790560
    100    107    108     1   120.3300516 514.129920
     99     98    103     1   120.0200517 532.790560
     99    100    107     1   120.0200517 532.790560
     98     99    100     1   120.0200517 532.790560
     98    103    105     1   120.0200517 532.790560
     97     96     98     1   122.6000525 652.369280
     96     98     99     1   120.3300516 514.129920
     96     98    103     1   120.3300516 514.129920
     95     96     97     1   123.2000528 847.343680
     95     96     98     1   112.4100480 657.557440
     92     95     96     1   115.8200499 748.350240
    145    148    151     1   107.6200464 648.017920
    142    145    148     1   112.6300483 500.992160
    139    142    145     1   112.6300483 500.992160
    138    139    142     1   107.6200464 648.017920
    137    136    138     1   123.2000528 847.343680
    136    138    139     1   115.8200499 748.350240
    135    136    137     1   122.6000525 652.369280
    135    136    138     1   112.4100480 657.557440
    133    135    136     1   120.3300516 514.129920
    131    133    135     1   120.0200517 532.790560
    128    135    133     1   120.0200517 532.790560
    128    135    136     1   120.3300516 514.129920
    127    126    131     1   120.0200517 532.790560
    127    128    135     1   120.0200517 532.790560
    126    127    128     1   120.0200517 532.790560
    126    131    133     1   120.0200517 532.790560
    125    124    126     1   122.6000525 652.369280
    124    126    127     1   120.3300516 514.129920
    124    126    131     1   120.3300516 514.129920
    123    124    125     1   123.2000528 847.343680
    123    124    126     1   112.4100480 657.557440
    120    123    124     1   115.8200499 748.350240
    180    183    186     1   107.6200464 648.017920
    179    180    183     1   107.6200464 648.017920
    176    179    180     1   113.6000487 739.145440
    173    176    179     1   107.6200464 648.017920
    172    173    176     1   107.6200464 648.017920
    169    172    173     1   113.6000487 739.145440
    166    169    172     1   107.6200464 648.017920
    165    166    169     1   107.6200464 648.017920
    162    165    166     1   113.6000487 739.145440
    159    162    165     1   107.6200464 648.017920
    158    159    162     1   107.6200464 648.017920
    155    158    159     1   113.6000487 739.145440
    152    155    158     1   107.6200464 648.017920
    151    152    155     1   107.6200464 648.017920
    148    151    152     1   113.6000487 739.145440
    208    211    214     1   107.6200464 648.017920
    205    208    211     1   112.6300483 500.992160
    202    205    208     1   112.6300483 500.992160
    201    202    205     1   107.6200464 648.017920
    200    199    201     1   123.2000528 847.343680
    199    201    202     1   115.8200499 748.350240
    198    199    200     1   122.6000525 652.369280
    198    199    201     1   112.4100480 657.557440
    196    198    199     1   120.3300516 514.129920
    194    196    198     1   120.0200517 532.790560
    191    198    196     1   120.0200517 532.790560
    191    198    199     1   120.3300516 514.129920
    190    189    194     1   120.0200517 532.790560
    190    191    198     1   120.0200517 532.790560
    189    190    191     1   120.0200517 532.790560
    189    194    196     1   120.0200517 532.790560
    188    187    189     1   122.6000525 652.369280
    187    189    190     1   120.3300516 514.129920
    187    189    194     1   120.3300516 514.129920
    186    187    188     1   123.2000528 847.343680
    186    187    189     1   112.4100480 657.557440
    183    186    187     1   115.8200499 748.350240
    236    239    242     1   107.6200464 648.017920
    233    236    239     1   112.6300483 500.992160
    230    233    236     1   112.6300483 500.992160
    229    230    233     1   107.6200464 648.017920
    228    227    229     1   123.2000528 847.343680
    227    229    230     1   115.8200499 748.350240
    226    227    228     1   122.6000525 652.369280
    226    227    229     1   112.4100480 657.557440
    224    226    227     1   120.3300516 514.129920
    222    224    226     1   120.0200517 532.790560
    219    226    224     1   120.0200517 532.790560
    219    226    227     1   120.3300516 514.129920
    218    217    222     1   120.0200517 532.790560
    218    219    226     1   120.0200517 532.790560
    217    218    219     1   120.0200517 532.790560
    217    222    224     1   120.0200517 532.790560
    216    215    217     1   122.6000525 652.369280
    215    217    218     1   120.3300516 514.129920
    215    217    222     1   120.3300516 514.129920
    214    215    216     1   123.2000528 847.343680
    214    215    217     1   112.4100480 657.557440
    211    214    215     1   115.8200499 748.350240
    264    267    270     1   107.6200464 648.017920
    261    264    267     1   112.6300483 500.992160
    258    261    264     1   112.6300483 500.992160
    257    258    261     1   107.6200464 648.017920
    256    255    257     1   123.2000528 847.343680
    255    257    258     1   115.8200499 748.350240
    254    255    256     1   122.6000525 652.369280
    254    255    257     1   112.4100480 657.557440
    252    254    255     1   120.3300516 514.129920
    250    252    254     1   120.0200517 532.790560
    247    254    252     1   120.0200517 532.790560
    247    254    255     1   120.3300516 514.129920
    246    245    250     1   120.0200517 532.790560
    246    247    254     1   120.0200517 532.790560
    245    246    247     1   120.0200517 532.790560
    245    250    252     1   120.0200517 532.790560
    244    243    245     1   122.6000525 652.369280
    243    245    246     1   120.3300516 514.129920
    243    245    250     1   120.3300516 514.129920
    242    243    244     1   123.2000528 847.343680
    242    243    245     1   112.4100480 657.557440
    239    242    243     1   115.8200499 748.350240
    292    295    298     1   107.6200464 648.017920
    289    292    295     1   112.6300483 500.992160
    286    289    292     1   112.6300483 500.992160
    285    286    289     1   107.6200464 648.017920
    284    283    285     1   123.2000528 847.343680
    283    285    286     1   115.8200499 748.350240
    282    283    284     1   122.6000525 652.369280
    282    283    285     1   112.4100480 657.557440
    280    282    283     1   120.3300516 514.129920
    278    280    282     1   120.0200517 532.790560
    275    282    280     1   120.0200517 532.790560
    275    282    283     1   120.3300516 514.129920
    274    273    278     1   120.0200517 532.790560
    274    275    282     1   120.0200517 532.790560
    273    274    275     1   120.0200517 532.790560
    273    278    280     1   120.0200517 532.790560
    272    271    273     1   122.6000525 652.369280
    271    273    274     1   120.3300516 514.129920
    271    273    278     1   120.3300516 514.129920
    270    271    272     1   123.2000528 847.343680
    270    271    273     1   112.4100480 657.557440
    267    270    271     1   115.8200499 748.350240
    320    323    326     1   107.6200464 648.017920
    317    320    323     1   112.6300483 500.992160
    314    317    320     1   112.6300483 500.992160
    313    314    317     1   107.6200464 648.017920
    312    311    313     1   123.2000528 847.343680
    311    313    314     1   115.8200499 748.350240
    310    311    312     1   122.6000525 652.369280
    310    311    313     1   112.4100480 657.557440
    308    310    311     1   120.3300516 514.129920
    306    308    310     1   120.0200517 532.790560
    303    310    308     1   120.0200517 532.790560
    303    310    311     1   120.3300516 514.129920
    302    301    306     1   120.0200517 532.790560
    302    303    310     1   120.0200517 532.790560
    301    302    303     1   120.0200517 532.790560
    301    306    308     1   120.0200517 532.790560
    300    299    301     1   122.6000525 652.369280
    299    301    302     1   120.3300516 514.129920
    299    301    306     1   120.3300516 514.129920
    298    299    300     1   123.2000528 847.343680
    298    299    301     1   112.4100480 657.557440
    295    298    299     1   115.8200499 748.350240
    348    351    354     1   107.6200464 648.017920
    345    348    351     1   112.6300483 500.992160
    342    345    348     1   112.6300483 500.992160
    341    342    345     1   107.6200464 648.017920
    340    339    341     1   123.2000528 847.343680
    339    341    342     1   115.8200499 748.350240
    338    339    340     1   122.6000525 652.369280
    338    339    341     1   112.4100480 657.557440
    336    338    339     1   120.3300516 514.129920
    334    336    338     1   120.0200517 532.790560
    331    338    336     1   120.0200517 532.790560
    331    338    339     1   120.3300516 514.129920
    330    329    334     1   120.0200517 532.790560
    330    331    338     1   120.0200517 532.790560
    329    330    331     1   120.0200517 532.790560
    329    334    336     1   120.0200517 532.790560
    328    327    329     1   122.6000525 652.369280
    327    329    330     1   120.3300516 514.129920
    327    329    334     1   120.3300516 514.129920
    326    327    328     1   123.2000528 847.343680
    326    327    329     1   112.4100480 657.557440
    323    326    327     1   115.8200499 748.350240
    376    379    382     1   107.6200464 648.017920
    373    376    379     1   112.6300483 500.992160
    370    373    376     1   112.6300483 500.992160
    369    370    373     1   107.6200464 648.017920
    368    367    369     1   123.2000528 847.343680
    367    369    370     1   115.8200499 748.350240
    366    367    368     1   122.6000525 652.369280
    366    367    369     1   112.4100480 657.557440
    364    366    367     1   120.3300516 514.129920
    362    364    366     1   120.0200517 532.790560
    359    366    364     1   120.0200517 532.790560
    359    366    367     1   120.3300516 514.129920
    358    357    362     1   120.0200517 532.790560
    358    359    366     1   120.0200517 532.790560
    357    358    359     1   120.0200517 532.790560
    357    362    364     1   120.0200517 532.790560
    356    355    357     1   122.6000525 652.369280
    355    357    358     1   120.3300516 514.129920
    355    357    362     1   120.3300516 514.129920
    354    355    356     1   123.2000528 847.343680
    354    355    357     1   112.4100480 657.557440
    351    354    355     1   115.8200499 748.350240
    404    407    410     1   107.6200464 648.017920
    401    404    407     1   112.6300483 500.992160
    398    401    404     1   112.6300483 500.992160
    397    398    401     1   107.6200464 648.017920
    396    395    397     1   123.2000528 847.343680
    395    397    398     1   115.8200499 748.350240
    394    395    396     1   122.6000525 652.369280
    394    395    397     1   112.4100480 657.557440
    392    394    395     1   120.3300516 514.129920
    390    392    394     1   120.0200517 532.790560
    387    394    392     1   120.0200517 532.790560
    387    394    395     1   120.3300516 514.129920
    386    385    390     1   120.0200517 532.790560
    386    387    394     1   120.0200517 532.790560
    385    386    387     1   120.0200517 532.790560
    385    390    392     1   120.0200517 532.790560
    384    383    385     1   122.6000525 652.369280
    383    385    386     1   120.3300516 514.129920
    383    385    390     1   120.3300516 514.129920
    382    383    384     1   123.2000528 847.343680
    382    383    385     1   112.4100480 657.557440
    379    382    383     1   115.8200499 748.350240
    432    435    438     1   107.6200464 648.017920
    429    432    435     1   112.6300483 500.992160
    426    429    432     1   112.6300483 500.992160
    425    426    429     1   107.6200464 648.017920
    424    423    425     1   123.2000528 847.343680
    423    425    426     1   115.8200499 748.350240
    422    423    424     1   122.6000525 652.369280
    422    423    425     1   112.4100480 657.557440
    420    422    423     1   120.3300516 514.129920
    418    420    422     1   120.0200517 532.790560
    415    422    420     1   120.0200517 532.790560
    415    422    423     1   120.3300516 514.129920
    414    413    418     1   120.0200517 532.790560
    414    415    422     1   120.0200517 532.790560
    413    414    415     1   120.0200517 532.790560
    413    418    420     1   120.0200517 532.790560
    412    411    413     1   122.6000525 652.369280
    411    413    414     1   120.3300516 514.129920
    411    413    418     1   120.3300516 514.129920
    410    411    412     1   123.2000528 847.343680
    410    411    413     1   112.4100480 657.557440
    407    410    411     1   115.8200499 748.350240
    460    463    466     1   107.6200464 648.017920
    457    460    463     1   112.6300483 500.992160
    454    457    460     1   112.6300483 500.992160
    453    454    457     1   107.6200464 648.017920
    452    451    453     1   123.2000528 847.343680
    451    453    454     1   115.8200499 748.350240
    450    451    452     1   122.6000525 652.369280
    450    451    453     1   112.4100480 657.557440
    448    450    451     1   120.3300516 514.129920
    446    448    450     1   120.0200517 532.790560
    443    450    448     1   120.0200517 532.790560
    443    450    451     1   120.3300516 514.129920
    442    441    446     1   120.0200517 532.790560
    442    443    450     1   120.0200517 532.790560
    441    442    443     1   120.0200517 532.790560
    441    446    448     1   120.0200517 532.790560
    440    439    441     1   122.6000525 652.369280
    439    441    442     1   120.3300516 514.129920
    439    441    446     1   120.3300516 514.129920
    438    439    440     1   123.2000528 847.343680
    438    439    441     1   112.4100480 657.557440
    435    438    439     1   115.8200499 748.350240
    488    491    494     1   107.6200464 648.017920
    485    488    491     1   112.6300483 500.992160
    482    485    488     1   112.6300483 500.992160
    481    482    485     1   107.6200464 648.017920
    480    479    481     1   123.2000528 847.343680
    479    481    482     1   115.8200499 748.350240
    478    479    480     1   122.6000525 652.369280
    478    479    481     1   112.4100480 657.557440
    476    478    479     1   120.3300516 514.129920
    474    476    478     1   120.0200517 532.790560
    471    478    476     1   120.0200517 532.790560
    471    478    479     1   120.3300516 514.129920
    470    469    474     1   120.0200517 532.790560
    470    471    478     1   120.0200517 532.790560
    469    470    471     1   120.0200517 532.790560
    469    474    476     1   120.0200517 532.790560
    468    467    469     1   122.6000525 652.369280
    467    469    470     1   120.3300516 514.129920
    467    469    474     1   120.3300516 514.129920
    466    467    468     1   123.2000528 847.343680
    466    467    469     1   112.4100480 657.557440
    463    466    467     1   115.8200499 748.350240
    516    519    522     1   107.6200464 648.017920
    513    516    519     1   112.6300483 500.992160
    510    513    516     1   112.6300483 500.992160
    509    510    513     1   107.6200464 648.017920
    508    507    509     1   123.2000528 847.343680
    507    509    510     1   115.8200499 748.350240
    506    507    508     1   122.6000525 652.369280
    506    507    509     1   112.4100480 657.557440
    504    506    507     1   120.3300516 514.129920
    502    504    506     1   120.0200517 532.790560
    499    506    504     1   120.0200517 532.790560
    499    506    507     1   120.3300516 514.129920
    498    497    502     1   120.0200517 532.790560
    498    499    506     1   120.0200517 532.790560
    497    498    499     1   120.0200517 532.790560
    497    502    504     1   120.0200517 532.790560
    496    495    497     1   122.6000525 652.369280
    495    497    498     1   120.3300516 514.129920
    495    497    502     1   120.3300516 514.129920
    494    495    496     1   123.2000528 847.343680
    494    495    497     1   112.4100480 657.557440
    491    494    495     1   115.8200499 748.350240
    544    547    550     1   107.6200464 648.017920
    541    544    547     1   112.6300483 500.992160
    538    541    544     1   112.6300483 500.992160
    537    538    541     1   107.6200464 648.017920
    536    535    537     1   123.2000528 847.343680
    535    537    538     1   115.8200499 748.350240
    534    535    536     1   122.6000525 652.369280
    534    535    537     1   112.4100480 657.557440
    532    534    535     1   120.3300516 514.129920
    530    532    534     1   120.0200517 532.790560
    527    534    532     1   120.0200517 532.790560
    527    534    535     1   120.3300516 514.129920
    526    525    530     1   120.0200517 532.790560
    526    527    534     1   120.0200517 532.790560
    525    526    527     1   120.0200517 532.790560
    525    530    532     1   120.0200517 532.790560
    524    523    525     1   122.6000525 652.369280
    523    525    526     1   120.3300516 514.129920
    523    525    530     1   120.3300516 514.129920
    522    523    524     1   123.2000528 847.343680
    522    523    525     1   112.4100480 657.557440
    519    522    523     1   115.8200499 748.350240
    572    575    578     1   107.6200464 648.017920
    569    572    575     1   112.6300483 500.992160
    566    569    572     1   112.6300483 500.992160
    565    566    569     1   107.6200464 648.017920
    564    563    565     1   123.2000528 847.343680
    563    565    566     1   115.8200499 748.350240
    562    563    564     1   122.6000525 652.369280
    562    563    565     1   112.4100480 657.557440
    560    562    563     1   120.3300516 514.129920
    558    560    562     1   120.0200517 532.790560
    555    562    560     1   120.0200517 532.790560
    555    562    563     1   120.3300516 514.129920
    554    553    558     1   120.0200517 532.790560
    554    555    562     1   120.0200517 532.790560
    553    554    555     1   120.0200517 532.790560
    553    558    560     1   120.0200517 532.790560
    552    551    553     1   122.6000525 652.369280
    551    553    554     1   120.3300516 514.129920
    551    553    558     1   120.3300516 514.129920
    550    551    552     1   123.2000528 847.343680
    550    551    553     1   112.4100480 657.557440
    547    550    551     1   115.8200499 748.350240
    600    603    606     1   107.6200464 648.017920
    597    600    603     1   112.6300483 500.992160
    594    597    600     1   112.6300483 500.992160
    593    594    597     1   107.6200464 648.017920
    592    591    593     1   123.2000528 847.343680
    591    593    594     1   115.8200499 748.350240
    590    591    592     1   122.6000525 652.369280
    590    591    593     1   112.4100480 657.557440
    588    590    591     1   120.3300516 514.129920
    586    588    590     1   120.0200517 532.790560
    583    590    588     1   120.0200517 532.790560
    583    590    591     1   120.3300516 514.129920
    582    581    586     1   120.0200517 532.790560
    582    583    590     1   120.0200517 532.790560
    581    582    583     1   120.0200517 532.790560
    581    586    588     1   120.0200517 532.790560
    580    579    581     1   122.6000525 652.369280
    579    581    582     1   120.3300516 514.129920
    579    581    586     1   120.3300516 514.129920
    578    579    580     1   123.2000528 847.343680
    578    579    581     1   112.4100480 657.557440
    575    578    579     1   115.8200499 748.350240
    628    631    634     1   107.6200464 648.017920
    625    628    631     1   112.6300483 500.992160
    622    625    628     1   112.6300483 500.992160
    621    622    625     1   107.6200464 648.017920
    620    619    621     1   123.2000528 847.343680
    619    621    622     1   115.8200499 748.350240
    618    619    620     1   122.6000525 652.369280
    618    619    621     1   112.4100480 657.557440
    616    618    619     1   120.3300516 514.129920
    614    616    618     1   120.0200517 532.790560
    611    618    616     1   120.0200517 532.790560
    611    618    619     1   120.3300516 514.129920
    610    609    614     1   120.0200517 532.790560
    610    611    618     1   120.0200517 532.790560
    609    610    611     1   120.0200517 532.790560
    609    614    616     1   120.0200517 532.790560
    608    607    609     1   122.6000525 652.369280
    607    609    610     1   120.3300516 514.129920
    607    609    614     1   120.3300516 514.129920
    606    607    608     1   123.2000528 847.343680
    606    607    609     1   112.4100480 657.557440
    603    606    607     1   115.8200499 748.350240
    656    659    662     1   107.6200464 648.017920
    653    656    659     1   112.6300483 500.992160
    650    653    656     1   112.6300483 500.992160
    649    650    653     1   107.6200464 648.017920
    648    647    649     1   123.2000528 847.343680
    647    649    650     1   115.8200499 748.350240
    646    647    648     1   122.6000525 652.369280
    646    647    649     1   112.4100480 657.557440
    644    646    647     1   120.3300516 514.129920
    642    644    646     1   120.0200517 532.790560
    639    646    644     1   120.0200517 532.790560
    639    646    647     1   120.3300516 514.129920
    638    637    642     1   120.0200517 532.790560
    638    639    646     1   120.0200517 532.790560
    637    638    639     1   120.0200517 532.790560
    637    642    644     1   120.0200517 532.790560
    636    635    637     1   122.6000525 652.369280
    635    637    638     1   120.3300516 514.129920
    635    637    642     1   120.3300516 514.129920
    634    635    636     1   123.2000528 847.343680
    634    635    637     1   112.4100480 657.557440
    631    634    635     1   115.8200499 748.350240
    684    687    690     1   107.6200464 648.017920
    681    684    687     1   112.6300483 500.992160
    678    681    684     1   112.6300483 500.992160
    677    678    681     1   107.6200464 648.017920
    676    675    677     1   123.2000528 847.343680
    675    677    678     1   115.8200499 748.350240
    674    675    676     1   122.6000525 652.369280
    674    675    677     1   112.4100480 657.557440
    672    674    675     1   120.3300516 514.129920
    670    672    674     1   120.0200517 532.790560
    667    674    672     1   120.0200517 532.790560
    667    674    675     1   120.3300516 514.129920
    666    665    670     1   120.0200517 532.790560
    666    667    674     1   120.0200517 532.790560
    665    666    667     1   120.0200517 532.790560
    665    670    672     1   120.0200517 532.790560
    664    663    665     1   122.6000525 652.369280
    663    665    666     1   120.3300516 514.129920
    663    665    670     1   120.3300516 514.129920
    662    663    664     1   123.2000528 847.343680
    662    663    665     1   112.4100480 657.557440
    659    662    663     1   115.8200499 748.350240
    719    722    725     1   107.6200464 648.017920
    718    719    722     1   107.6200464 648.017920
    715    718    719     1   113.6000487 739.145440
    712    715    718     1   107.6200464 648.017920
    711    712    715     1   107.6200464 648.017920
    708    711    712     1   113.6000487 739.145440
    705    708    711     1   107.6200464 648.017920
    704    705    708     1   107.6200464 648.017920
    701    704    705     1   113.6000487 739.145440
    698    701    704     1   107.6200464 648.017920
    697    698    701     1   107.6200464 648.017920
    694    697    698     1   113.6000487 739.145440
    691    694    697     1   107.6200464 648.017920
    690    691    694     1   107.6200464 648.017920
    687    690    691     1   113.6000487 739.145440
    747    750    753     1   107.6200464 648.017920
    744    747    750     1   112.6300483 500.992160
    741    744    747     1   112.6300483 500.992160
    740    741    744     1   107.6200464 648.017920
    739    738    740     1   123.2000528 847.343680
    738    740    741     1   115.8200499 748.350240
    737    738    739     1   122.6000525 652.369280
    737    738    740     1   112.4100480 657.557440
    735    737    738     1   120.3300516 514.129920
    733    735    737     1   120.0200517 532.790560
    730    737    735     1   120.0200517 532.790560
    730    737    738     1   120.3300516 514.129920
    729    728    733     1   120.0200517 532.790560
    729    730    737     1   120.0200517 532.790560
    728    729    730     1   120.0200517 532.790560
    728    733    735     1   120.0200517 532.790560
    727    726    728     1   122.6000525 652.369280
    726    728    729     1   120.3300516 514.129920
    726    728    733     1   120.3300516 514.129920
    725    726    727     1   123.2000528 847.343680
    725    726    728     1   112.4100480 657.557440
    722    725    726     1   115.8200499 748.350240
    775    778    781     1   107.6200464 648.017920
    772    775    778     1   112.6300483 500.992160
    769    772    775     1   112.6300483 500.992160
    768    769    772     1   107.6200464 648.017920
    767    766    768     1   123.2000528 847.343680
    766    768    769     1   115.8200499 748.350240
    765    766    767     1   122.6000525 652.369280
    765    766    768     1   112.4100480 657.557440
    763    765    766     1   120.3300516 514.129920
    761    763    765     1   120.0200517 532.790560
    758    765    763     1   120.0200517 532.790560
    758    765    766     1   120.3300516 514.129920
    757    756    761     1   120.0200517 532.790560
    757    758    765     1   120.0200517 532.790560
    756    757    758     1   120.0200517 532.790560
    756    761    763     1   120.0200517 532.790560
    755    754    756     1   122.6000525 652.369280
    754    756    757     1   120.3300516 514.129920
    754    756    761     1   120.3300516 514.129920
    753    754    755     1   123.2000528 847.343680
    753    754    756     1   112.4100480 657.557440
    750    753    754     1   115.8200499 748.350240
    810    813    816     1   107.6200464 648.017920
    809    810    813     1   107.6200464 648.017920
    806    809    810     1   113.6000487 739.145440
    803    806    809     1   107.6200464 648.017920
    802    803    806     1   107.6200464 648.017920
    799    802    803     1   113.6000487 739.145440
    796    799    802     1   107.6200464 648.017920
    795    796    799     1   107.6200464 648.017920
    792    795    796     1   113.6000487 739.145440
    789    792    795     1   107.6200464 648.017920
    788    789    792     1   107.6200464 648.017920
    785    788    789     1   113.6000487 739.145440
    782    785    788     1   107.6200464 648.017920
    781    782    785     1   107.6200464 648.017920
    778    781    782     1   113.6000487 739.145440
    845    848    851     1   107.6200464 648.017920
    844    845    848     1   107.6200464 648.017920
    841    844    845     1   113.6000487 739.145440
    838    841    844     1   107.6200464 648.017920
    837    838    841     1   107.6200464 648.017920
    834    837    838     1   113.6000487 739.145440
    831    834    837     1   107.6200464 648.017920
    830    831    834     1   107.6200464 648.017920
    827    830    831     1   113.6000487 739.145440
    824    827    830     1   107.6200464 648.017920
    823    824    827     1   107.6200464 648.017920
    820    823    824     1   113.6000487 739.145440
    817    820    823     1   107.6200464 648.017920
    816    817    820     1   107.6200464 648.017920
    813    816    817     1   113.6000487 739.145440
    867    870    873     1   112.6300483 500.992160
    866    867    870     1   107.6200464 648.017920
    865    864    866     1   123.2000528 847.343680
    864    866    867     1   115.8200499 748.350240
    863    864    865     1   122.6000525 652.369280
    863    864    866     1   112.4100480 657.557440
    861    863    864     1   120.3300516 514.129920
    859    861    863     1   120.0200517 532.790560
    856    863    861     1   120.0200517 532.790560
    856    863    864     1   120.3300516 514.129920
    855    854    859     1   120.0200517 532.790560
    855    856    863     1   120.0200517 532.790560
    854    855    856     1   120.0200517 532.790560
    854    859    861     1   120.0200517 532.790560
    853    852    854     1   122.6000525 652.369280
    852    854    855     1   120.3300516 514.129920
    852    854    859     1   120.3300516 514.129920
    851    852    853     1   123.2000528 847.343680
    851    852    854     1   112.4100480 657.557440
    848    851    852     1   115.8200499 748.350240
     28     26     29     1   109.6800468 362.083360
     27     26     28     1   107.7300462 299.574400
     27     26     29     1   109.6800468 362.083360
     26     29     30     1   109.5900471 362.167040
     26     29     31     1   109.5900471 362.167040
     25     23     26     1   109.6800468 362.083360
     24     23     25     1   107.7300462 299.574400
     24     23     26     1   109.6800468 362.083360
     23     26     27     1   109.6800468 362.083360
     23     26     28     1   109.6800468 362.083360
     22     20     23     1   109.5900471 362.167040
     21     20     22     1   108.5500468 298.235520
     21     20     23     1   109.5900471 362.167040
     20     23     24     1   109.6800468 362.083360
     20     23     25     1   109.6800468 362.083360
     19     20     21     1   110.3400472 470.281600
     19     20     22     1   110.3400472 470.281600
     15     14     16     1   119.8800511 375.723200
     13     12     14     1   119.8800511 375.723200
     12     14     15     1   119.8800511 375.723200
     10      9     16     1   119.8800511 375.723200
      9      8     11     1   119.8800511 375.723200
      8      9     10     1   119.8800511 375.723200
      7      8     11     1   119.8800511 375.723200
      7     12     13     1   119.8800511 375.723200
      3      1      4     1   110.3400472 470.281600
      2      1      3     1   108.5500468 298.235520
      2      1      4     1   110.3400472 470.281600
     63     61     64     1   109.5900471 362.167040
     62     61     63     1   108.5500468 298.235520
     62     61     64     1   109.5900471 362.167040
     61     64     65     1   109.5900471 362.167040
     61     64     66     1   109.5900471 362.167040
     60     61     62     1   110.3400472 470.281600
     60     61     63     1   110.3400472 470.281600
     59     57     60     1   110.3400472 470.281600
     58     57     59     1   108.5500468 298.235520
     58     57     60     1   110.3400472 470.281600
     56     54     57     1   109.5900471 362.167040
     55     54     56     1   108.5500468 298.235520
     55     54     57     1   109.5900471 362.167040
     54     57     58     1   109.5900471 362.167040
     54     57     59     1   109.5900471 362.167040
     53     54     55     1   110.3400472 470.281600
     53     54     56     1   110.3400472 470.281600
     52     50     53     1   110.3400472 470.281600
     51     50     52     1   108.5500468 298.235520
     51     50     53     1   110.3400472 470.281600
     49     47     50     1   109.5900471 362.167040
     48     47     49     1   108.5500468 298.235520
     48     47     50     1   109.5900471 362.167040
     47     50     51     1   109.5900471 362.167040
     47     50     52     1   109.5900471 362.167040
     46     47     48     1   110.3400472 470.281600
     46     47     49     1   110.3400472 470.281600
     45     43     46     1   110.3400472 470.281600
     44     43     45     1   108.5500468 298.235520
     44     43     46     1   110.3400472 470.281600
     42     40     43     1   109.5900471 362.167040
     41     40     42     1   108.5500468 298.235520
     41     40     43     1   109.5900471 362.167040
     40     43     44     1   109.5900471 362.167040
     40     43     45     1   109.5900471 362.167040
     39     40     41     1   110.3400472 470.281600
     39     40     42     1   110.3400472 470.281600
     38     36     39     1   110.3400472 470.281600
     37     36     38     1   108.5500468 298.235520
     37     36     39     1   110.3400472 470.281600
     35     33     36     1   109.5900471 362.167040
     34     33     35     1   108.5500468 298.235520
     34     33     36     1   109.5900471 362.167040
     33     36     37     1   109.5900471 362.167040
     33     36     38     1   109.5900471 362.167040
     32     33     34     1   110.3400472 470.281600
     32     33     35     1   110.3400472 470.281600
     31     29     32     1   110.3400472 470.281600
     30     29     31     1   108.5500468 298.235520
     30     29     32     1   110.3400472 470.281600
     91     89     92     1   109.6800468 362.083360
     90     89     91     1   107.7300462 299.574400
     90     89     92     1   109.6800468 362.083360
     89     92     93     1   109.5900471 362.167040
     89     92     94     1   109.5900471 362.167040
     88     86     89     1   109.6800468 362.083360
     87     86     88     1   107.7300462 299.574400
     87     86     89     1   109.6800468 362.083360
     86     89     90     1   109.6800468 362.083360
     86     89     91     1   109.6800468 362.083360
     85     83     86     1   109.5900471 362.167040
     84     83     85     1   108.5500468 298.235520
     84     83     86     1   109.5900471 362.167040
     83     86     87     1   109.6800468 362.083360
     83     86     88     1   109.6800468 362.083360
     82     83     84     1   110.3400472 470.281600
     82     83     85     1   110.3400472 470.281600
     78     77     79     1   119.8800511 375.723200
     76     75     77     1   119.8800511 375.723200
     75     77     78     1   119.8800511 375.723200
     73     72     79     1   119.8800511 375.723200
     72     71     74     1   119.8800511 375.723200
     71     72     73     1   119.8800511 375.723200
     70     71     74     1   119.8800511 375.723200
     70     75     76     1   119.8800511 375.723200
     66     64     67     1   110.3400472 470.281600
     65     64     66     1   108.5500468 298.235520
     65     64     67     1   110.3400472 470.281600
    119    117    120     1   109.6800468 362.083360
    118    117    119     1   107.7300462 299.574400
    118    117    120     1   109.6800468 362.083360
    117    120    121     1   109.5900471 362.167040
    117    120    122     1   109.5900471 362.167040
    116    114    117     1   109.6800468 362.083360
    115    114    116     1   107.7300462 299.574400
    115    114    117     1   109.6800468 362.083360
    114    117    118     1   109.6800468 362.083360
    114    117    119     1   109.6800468 362.083360
    113    111    114     1   109.5900471 362.167040
    112    111    113     1   108.5500468 298.235520
    112    111    114     1   109.5900471 362.167040
    111    114    115     1   109.6800468 362.083360
    111    114    116     1   109.6800468 362.083360
    110    111    112     1   110.3400472 470.281600
    110    111    113     1   110.3400472 470.281600
    106    105    107     1   119.8800511 375.723200
    104    103    105     1   119.8800511 375.723200
    103    105    106     1   119.8800511 375.723200
    101    100    107     1   119.8800511 375.723200
    100     99    102     1   119.8800511 375.723200
     99    100    101     1   119.8800511 375.723200
     98     99    102     1   119.8800511 375.723200
     98    103    104     1   119.8800511 375.723200
     94     92     95     1   110.3400472 470.281600
     93     92     94     1   108.5500468 298.235520
     93     92     95     1   110.3400472 470.281600
    147    145    148     1   109.6800468 362.083360
    146    145    147     1   107.7300462 299.574400
    146    145    148     1   109.6800468 362.083360
    145    148    149     1   109.5900471 362.167040
    145    148    150     1   109.5900471 362.167040
    144    142    145     1   109.6800468 362.083360
    143    142    144     1   107.7300462 299.574400
    143    142    145     1   109.6800468 362.083360
    142    145    146     1   109.6800468 362.083360
    142    145    147     1   109.6800468 362.083360
    141    139    142     1   109.5900471 362.167040
    140    139    141     1   108.5500468 298.235520
    140    139    142     1   109.5900471 362.167040
    139    142    143     1   109.6800468 362.083360
    139    142    144     1   109.6800468 362.083360
    138    139    140     1   110.3400472 470.281600
    138    139    141     1   110.3400472 470.281600
    134    133    135     1   119.8800511 375.723200
    132    131    133     1   119.8800511 375.723200
    131    133    134     1   119.8800511 375.723200
    129    128    135     1   119.8800511 375.723200
    128    127    130     1   119.8800511 375.723200
    127    128    129     1   119.8800511 375.723200
    126    127    130     1   119.8800511 375.723200
    126    131    132     1   119.8800511 375.723200
    122    120    123     1   110.3400472 470.281600
    121    120    122     1   108.5500468 298.235520
    121    120    123     1   110.3400472 470.281600
    182    180    183     1   109.5900471 362.167040
    181    180    182     1   108.5500468 298.235520
    181    180    183     1   109.5900471 362.167040
    180    183    184     1   109.5900471 362.167040
    180    183    185     1   109.5900471 362.167040
    179    180    181     1   110.3400472 470.281600
    179    180    182     1   110.3400472 470.281600
    178    176    179     1   110.3400472 470.281600
    177    176    178     1   108.5500468 298.235520
    177    176    179     1   110.3400472 470.281600
    175    173    176     1   109.5900471 362.167040
    174    173    175     1   108.5500468 298.235520
    174    173    176     1   109.5900471 362.167040
    173    176    177     1   109.5900471 362.167040
    173    176    178     1   109.5900471 362.167040
    172    173    174     1   110.3400472 470.281600
    172    173    175     1   110.3400472 470.281600
    171    169    172     1   110.3400472 470.281600
    170    169    171     1   108.5500468 298.235520
    170    169    172     1   110.3400472 470.281600
    168    166    169     1   109.5900471 362.167040
    167    166    168     1   108.5500468 298.235520
    167    166    169     1   109.5900471 362.167040
    166    169    170     1   109.5900471 362.167040
    166    169    171     1   109.5900471 362.167040
    165    166    167     1   110.3400472 470.281600
    165    166    168     1   110.3400472 470.281600
    164    162    165     1   110.3400472 470.281600
    163    162    164     1   108.5500468 298.235520
    163    162    165     1   110.3400472 470.281600
    161    159    162     1   109.5900471 362.167040
    160    159    161     1   108.5500468 298.235520
    160    159    162     1   109.5900471 362.167040
    159    162    163     1   109.5900471 362.167040
    159    162    164     1   109.5900471 362.167040
    158    159    160     1   110.3400472 470.281600
    158    159    161     1   110.3400472 470.281600
    157    155    158     1   110.3400472 470.281600
    156    155    157     1   108.5500468 298.235520
    156    155    158     1   110.3400472 470.281600
    154    152    155     1   109.5900471 362.167040
    153    152    154     1   108.5500468 298.235520
    153    152    155     1   109.5900471 362.167040
    152    155    156     1   109.5900471 362.167040
    152    155    157     1   109.5900471 362.167040
    151    152    153     1   110.3400472 470.281600
    151    152    154     1   110.3400472 470.281600
    150    148    151     1   110.3400472 470.281600
    149    148    150     1   108.5500468 298.235520
    149    148    151     1   110.3400472 470.281600
    210    208    211     1   109.6800468 362.083360
    209    208    210     1   107.7300462 299.574400
    209    208    211     1   109.6800468 362.083360
    208    211    212     1   109.5900471 362.167040
    208    211    213     1   109.5900471 362.167040
    207    205    208     1   109.6800468 362.083360
    206    205    207     1   107.7300462 299.574400
    206    205    208     1   109.6800468 362.083360
    205    208    209     1   109.6800468 362.083360
    205    208    210     1   109.6800468 362.083360
    204    202    205     1   109.5900471 362.167040
    203    202    204     1   108.5500468 298.235520
    203    202    205     1   109.5900471 362.167040
    202    205    206     1   109.6800468 362.083360
    202    205    207     1   109.6800468 362.083360
    201    202    203     1   110.3400472 470.281600
    201    202    204     1   110.3400472 470.281600
    197    196    198     1   119.8800511 375.723200
    195    194    196     1   119.8800511 375.723200
    194    196    197     1   119.8800511 375.723200
    192    191    198     1   119.8800511 375.723200
    191    190    193     1   119.8800511 375.723200
    190    191    192     1   119.8800511 375.723200
    189    190    193     1   119.8800511 375.723200
    189    194    195     1   119.8800511 375.723200
    185    183    186     1   110.3400472 470.281600
    184    183    185     1   108.5500468 298.235520
    184    183    186     1   110.3400472 470.281600
    238    236    239     1   109.6800468 362.083360
    237    236    238     1   107.7300462 299.574400
    237    236    239     1   109.6800468 362.083360
    236    239    240     1   109.5900471 362.167040
    236    239    241     1   109.5900471 362.167040
    235    233    236     1   109.6800468 362.083360
    234    233    235     1   107.7300462 299.574400
    234    233    236     1   109.6800468 362.083360
    233    236    237     1   109.6800468 362.083360
    233    236    238     1   109.6800468 362.083360
    232    230    233     1   109.5900471 362.167040
    231    230    232     1   108.5500468 298.235520
    231    230    233     1   109.5900471 362.167040
    230    233    234     1   109.6800468 362.083360
    230    233    235     1   109.6800468 362.083360
    229    230    231     1   110.3400472 470.281600
    229    230    232     1   110.3400472 470.281600
    225    224    226     1   119.8800511 375.723200
    223    222    224     1   119.8800511 375.723200
    222    224    225     1   119.8800511 375.723200
    220    219    226     1   119.8800511 375.723200
    219    218    221     1   119.8800511 375.723200
    218    219    220     1   119.8800511 375.723200
    217    218    221     1   119.8800511 375.723200
    217    222    223     1   119.8800511 375.723200
    213    211    214     1   110.3400472 470.281600
    212    211    213     1   108.5500468 298.235520
    212    211    214     1   110.3400472 470.281600
    266    264    267     1   109.6800468 362.083360
    265    264    266     1   107.7300462 299.574400
    265    264    267     1   109.6800468 362.083360
    264    267    268     1   109.5900471 362.167040
    264    267    269     1   109.5900471 362.167040
    263    261    264     1   109.6800468 362.083360
    262    261    263     1   107.7300462 299.574400
    262    261    264     1   109.6800468 362.083360
    261    264    265     1   109.6800468 362.083360
    261    264    266     1   109.6800468 362.083360
    260    258    261     1   109.5900471 362.167040
    259    258    260     1   108.5500468 298.235520
    259    258    261     1   109.5900471 362.167040
    258    261    262     1   109.6800468 362.083360
    258    261    263     1   109.6800468 362.083360
    257    258    259     1   110.3400472 470.281600
    257    258    260     1   110.3400472 470.281600
    253    252    254     1   119.8800511 375.723200
    251    250    252     1   119.8800511 375.723200
    250    252    253     1   119.8800511 375.723200
    248    247    254     1   119.8800511 375.723200
    247    246    249     1   119.8800511 375.723200
    246    247    248     1   119.8800511 375.723200
    245    246    249     1   119.8800511 375.723200
    245    250    251     1   119.8800511 375.723200
    241    239    242     1   110.3400472 470.281600
    240    239    241     1   108.5500468 298.235520
    240    239    242     1   110.3400472 470.281600
    294    292    295     1   109.6800468 362.083360
    293    292    294     1   107.7300462 299.574400
    293    292    295     1   109.6800468 362.083360
    292    295    296     1   109.5900471 362.167040
    292    295    297     1   109.5900471 362.167040
    291    289    292     1   109.6800468 362.083360
    290    289    291     1   107.7300462 299.574400
    290    289    292     1   109.6800468 362.083360
    289    292    293     1   109.6800468 362.083360
    289    292    294     1   109.6800468 362.083360
    288    286    289     1   109.5900471 362.167040
    287    286    288     1   108.5500468 298.235520
    287    286    289     1   109.5900471 362.167040
    286    289    290     1   109.6800468 362.083360
    286    289    291     1   109.6800468 362.083360
    285    286    287     1   110.3400472 470.281600
    285    286    288     1   110.3400472 470.281600
    281    280    282     1   119.8800511 375.723200
    279    278    280     1   119.8800511 375.723200
    278    280    281     1   119.8800511 375.723200
    276    275    282     1   119.8800511 375.723200
    275    274    277     1   119.8800511 375.723200
    274    275    276     1   119.8800511 375.723200
    273    274    277     1   119.8800511 375.723200
    273    278    279     1   119.8800511 375.723200
    269    267    270     1   110.3400472 470.281600
    268    267    269     1   108.5500468 298.235520
    268    267    270     1   110.3400472 470.281600
    322    320    323     1   109.6800468 362.083360
    321    320    322     1   107.7300462 299.574400
    321    320    323     1   109.6800468 362.083360
    320    323    324     1   109.5900471 362.167040
    320    323    325     1   109.5900471 362.167040
    319    317    320     1   109.6800468 362.083360
    318    317    319     1   107.7300462 299.574400
    318    317    320     1   109.6800468 362.083360
    317    320    321     1   109.6800468 362.083360
    317    320    322     1   109.6800468 362.083360
    316    314    317     1   109.5900471 362.167040
    315    314    316     1   108.5500468 298.235520
    315    314    317     1   109.5900471 362.167040
    314    317    318     1   109.6800468 362.083360
    314    317    319     1   109.6800468 362.083360
    313    314    315     1   110.3400472 470.281600
    313    314    316     1   110.3400472 470.281600
    309    308    310     1   119.8800511 375.723200
    307    306    308     1   119.8800511 375.723200
    306    308    309     1   119.8800511 375.723200
    304    303    310     1   119.8800511 375.723200
    303    302    305     1   119.8800511 375.723200
    302    303    304     1   119.8800511 375.723200
    301    302    305     1   119.8800511 375.723200
    301    306    307     1   119.8800511 375.723200
    297    295    298     1   110.3400472 470.281600
    296    295    297     1   108.5500468 298.235520
    296    295    298     1   110.3400472 470.281600
    350    348    351     1   109.6800468 362.083360
    349    348    350     1   107.7300462 299.574400
    349    348    351     1   109.6800468 362.083360
    348    351    352     1   109.5900471 362.167040
    348    351    353     1   109.5900471 362.167040
    347    345    348     1   109.6800468 362.083360
    346    345    347     1   107.7300462 299.574400
    346    345    348     1   109.6800468 362.083360
    345    348    349     1   109.6800468 362.083360
    345    348    350     1   109.6800468 362.083360
    344    342    345     1   109.5900471 362.167040
    343    342    344     1   108.5500468 298.235520
    343    342    345     1   109.5900471 362.167040
    342    345    346     1   109.6800468 362.083360
    342    345    347     1   109.6800468 362.083360
    341    342    343     1   110.3400472 470.281600
    341    342    344     1   110.3400472 470.281600
    337    336    338     1   119.8800511 375.723200
    335    334    336     1   119.8800511 375.723200
    334    336    337     1   119.8800511 375.723200
    332    331    338     1   119.8800511 375.723200
    331    330    333     1   119.8800511 375.723200
    330    331    332     1   119.8800511 375.723200
    329    330    333     1   119.8800511 375.723200
    329    334    335     1   119.8800511 375.723200
    325    323    326     1   110.3400472 470.281600
    324    323    325     1   108.5500468 298.235520
    324    323    326     1   110.3400472 470.281600
    378    376    379     1   109.6800468 362.083360
    377    376    378     1   107.7300462 299.574400
    377    376    379     1   109.6800468 362.083360
    376    379    380     1   109.5900471 362.167040
    376    379    381     1   109.5900471 362.167040
    375    373    376     1   109.6800468 362.083360
    374    373    375     1   107.7300462 299.574400
    374    373    376     1   109.6800468 362.083360
    373    376    377     1   109.6800468 362.083360
    373    376    378     1   109.6800468 362.083360
    372    370    373     1   109.5900471 362.167040
    371    370    372     1   108.5500468 298.235520
    371    370    373     1   109.5900471 362.167040
    370    373    374     1   109.6800468 362.083360
    370    373    375     1   109.6800468 362.083360
    369    370    371     1   110.3400472 470.281600
    369    370    372     1   110.3400472 470.281600
    365    364    366     1   119.8800511 375.723200
    363    362    364     1   119.8800511 375.723200
    362    364    365     1   119.8800511 375.723200
    360    359    366     1   119.8800511 375.723200
    359    358    361     1   119.8800511 375.723200
    358    359    360     1   119.8800511 375.723200
    357    358    361     1   119.8800511 375.723200
    357    362    363     1   119.8800511 375.723200
    353    351    354     1   110.3400472 470.281600
    352    351    353     1   108.5500468 298.235520
    352    351    354     1   110.3400472 470.281600
    406    404    407     1   109.6800468 362.083360
    405    404    406     1   107.7300462 299.574400
    405    404    407     1   109.6800468 362.083360
    404    407    408     1   109.5900471 362.167040
    404    407    409     1   109.5900471 362.167040
    403    401    404     1   109.6800468 362.083360
    402    401    403     1   107.7300462 299.574400
    402    401    404     1   109.6800468 362.083360
    401    404    405     1   109.6800468 362.083360
    401    404    406     1   109.6800468 362.083360
    400    398    401     1   109.5900471 362.167040
    399    398    400     1   108.5500468 298.235520
    399    398    401     1   109.5900471 362.167040
    398    401    402     1   109.6800468 362.083360
    398    401    403     1   109.6800468 362.083360
    397    398    399     1   110.3400472 470.281600
    397    398    400     1   110.3400472 470.281600
    393    392    394     1   119.8800511 375.723200
    391    390    392     1   119.8800511 375.723200
    390    392    393     1   119.8800511 375.723200
    388    387    394     1   119.8800511 375.723200
    387    386    389     1   119.8800511 375.723200
    386    387    388     1   119.8800511 375.723200
    385    386    389     1   119.8800511 375.723200
    385    390    391     1   119.8800511 375.723200
    381    379    382     1   110.3400472 470.281600
    380    379    381     1   108.5500468 298.235520
    380    379    382     1   110.3400472 470.281600
    434    432    435     1   109.6800468 362.083360
    433    432    434     1   107.7300462 299.574400
    433    432    435     1   109.6800468 362.083360
    432    435    436     1   109.5900471 362.167040
    432    435    437     1   109.5900471 362.167040
    431    429    432     1   109.6800468 362.083360
    430    429    431     1   107.7300462 299.574400
    430    429    432     1   109.6800468 362.083360
    429    432    433     1   109.6800468 362.083360
    429    432    434     1   109.6800468 362.083360
    428    426    429     1   109.5900471 362.167040
    427    426    428     1   108.5500468 298.235520
    427    426    429     1   109.5900471 362.167040
    426    429    430     1   109.6800468 362.083360
    426    429    431     1   109.6800468 362.083360
    425    426    427     1   110.3400472 470.281600
    425    426    428     1   110.3400472 470.281600
    421    420    422     1   119.8800511 375.723200
    419    418    420     1   119.8800511 375.723200
    418    420    421     1   119.8800511 375.723200
    416    415    422     1   119.8800511 375.723200
    415    414    417     1   119.8800511 375.723200
    414    415    416     1   119.8800511 375.723200
    413    414    417     1   119.8800511 375.723200
    413    418    419     1   119.8800511 375.723200
    409    407    410     1   110.3400472 470.281600
    408    407    409     1   108.5500468 298.235520
    408    407    410     1   110.3400472 470.281600
    462    460    463     1   109.6800468 362.083360
    461    460    462     1   107.7300462 299.574400
    461    460    463     1   109.6800468 362.083360
    460    463    464     1   109.5900471 362.167040
    460    463    465     1   109.5900471 362.167040
    459    457    460     1   109.6800468 362.083360
    458    457    459     1   107.7300462 299.574400
    458    457    460     1   109.6800468 362.083360
    457    460    461     1   109.6800468 362.083360
    457    460    462     1   109.6800468 362.083360
    456    454    457     1   109.5900471 362.167040
    455    454    456     1   108.5500468 298.235520
    455    454    457     1   109.5900471 362.167040
    454    457    458     1   109.6800468 362.083360
    454    457    459     1   109.6800468 362.083360
    453    454    455     1   110.3400472 470.281600
    453    454    456     1   110.3400472 470.281600
    449    448    450     1   119.8800511 375.723200
    447    446    448     1   119.8800511 375.723200
    446    448    449     1   119.8800511 375.723200
    444    443    450     1   119.8800511 375.723200
    443    442    445     1   119.8800511 375.723200
    442    443    444     1   119.8800511 375.723200
    441    442    445     1   119.8800511 375.723200
    441    446    447     1   119.8800511 375.723200
    437    435    438     1   110.3400472 470.281600
    436    435    437     1   108.5500468 298.235520
    436    435    438     1   110.3400472 470.281600
    490    488    491     1   109.6800468 362.083360
    489    488    490     1   107.7300462 299.574400
    489    488    491     1   109.6800468 362.083360
    488    491    492     1   109.5900471 362.167040
    488    491    493     1   109.5900471 362.167040
    487    485    488     1   109.6800468 362.083360
    486    485    487     1   107.7300462 299.574400
    486    485    488     1   109.6800468 362.083360
    485    488    489     1   109.6800468 362.083360
    485    488    490     1   109.6800468 362.083360
    484    482    485     1   109.5900471 362.167040
    483    482    484     1   108.5500468 298.235520
    483    482    485     1   109.5900471 362.167040
    482    485    486     1   109.6800468 362.083360
    482    485    487     1   109.6800468 362.083360
    481    482    483     1   110.3400472 470.281600
    481    482    484     1   110.3400472 470.281600
    477    476    478     1   119.8800511 375.723200
    475    474    476     1   119.8800511 375.723200
    474    476    477     1   119.8800511 375.723200
    472    471    478     1   119.8800511 375.723200
    471    470    473     1   119.8800511 375.723200
    470    471    472     1   119.8800511 375.723200
    469    470    473     1   119.8800511 375.723200
    469    474    475     1   119.8800511 375.723200
    465    463    466     1   110.3400472 470.281600
    464    463    465     1   108.5500468 298.235520
    464    463    466     1   110.3400472 470.281600
    518    516    519     1   109.6800468 362.083360
    517    516    518     1   107.7300462 299.574400
    517    516    519     1   109.6800468 362.083360
    516    519    520     1   109.5900471 362.167040
    516    519    521     1   109.5900471 362.167040
    515    513    516     1   109.6800468 362.083360
    514    513    515     1   107.7300462 299.574400
    514    513    516     1   109.6800468 362.083360
    513    516    517     1   109.6800468 362.083360
    513    516    518     1   109.6800468 362.083360
    512    510    513     1   109.5900471 362.167040
    511    510    512     1   108.5500468 298.235520
    511    510    513     1   109.5900471 362.167040
    510    513    514     1   109.6800468 362.083360
    510    513    515     1   109.6800468 362.083360
    509    510    511     1   110.3400472 470.281600
    509    510    512     1   110.3400472 470.281600
    505    504    506     1   119.8800511 375.723200
    503    502    504     1   119.8800511 375.723200
    502    504    505     1   119.8800511 375.723200
    500    499    506     1   119.8800511 375.723200
    499    498    501     1   119.8800511 375.723200
    498    499    500     1   119.8800511 375.723200
    497    498    501     1   119.8800511 375.723200
    497    502    503     1   119.8800511 375.723200
    493    491    494     1   110.3400472 470.281600
    492    491    493     1   108.5500468 298.235520
    492    491    494     1   110.3400472 470.281600
    546    544    547     1   109.6800468 362.083360
    545    544    546     1   107.7300462 299.574400
    545    544    547     1   109.6800468 362.083360
    544    547    548     1   109.5900471 362.167040
    544    547    549     1   109.5900471 362.167040
    543    541    544     1   109.6800468 362.083360
    542    541    543     1   107.7300462 299.574400
    542    541    544     1   109.6800468 362.083360
    541    544    545     1   109.6800468 362.083360
    541    544    546     1   109.6800468 362.083360
    540    538    541     1   109.5900471 362.167040
    539    538    540     1   108.5500468 298.235520
    539    538    541     1   109.5900471 362.167040
    538    541    542     1   109.6800468 362.083360
    538    541    543     1   109.6800468 362.083360
    537    538    539     1   110.3400472 470.281600
    537    538    540     1   110.3400472 470.281600
    533    532    534     1   119.8800511 375.723200
    531    530    532     1   119.8800511 375.723200
    530    532    533     1   119.8800511 375.723200
    528    527    534     1   119.8800511 375.723200
    527    526    529     1   119.8800511 375.723200
    526    527    528     1   119.8800511 375.723200
    525    526    529     1   119.8800511 375.723200
    525    530    531     1   119.8800511 375.723200
    521    519    522     1   110.3400472 470.281600
    520    519    521     1   108.5500468 298.235520
    520    519    522     1   110.3400472 470.281600
    574    572    575     1   109.6800468 362.083360
    573    572    574     1   107.7300462 299.574400
    573    572    575     1   109.6800468 362.083360
    572    575    576     1   109.5900471 362.167040
    572    575    577     1   109.5900471 362.167040
    571    569    572     1   109.6800468 362.083360
    570    569    571     1   107.7300462 299.574400
    570    569    572     1   109.6800468 362.083360
    569    572    573     1   109.6800468 362.083360
    569    572    574     1   109.6800468 362.083360
    568    566    569     1   109.5900471 362.167040
    567    566    568     1   108.5500468 298.235520
    567    566    569     1   109.5900471 362.167040
    566    569    570     1   109.6800468 362.083360
    566    569    571     1   109.6800468 362.083360
    565    566    567     1   110.3400472 470.281600
    565    566    568     1   110.3400472 470.281600
    561    560    562     1   119.8800511 375.723200
    559    558    560     1   119.8800511 375.723200
    558    560    561     1   119.8800511 375.723200
    556    555    562     1   119.8800511 375.723200
    555    554    557     1   119.8800511 375.723200
    554    555    556     1   119.8800511 375.723200
    553    554    557     1   119.8800511 375.723200
    553    558    559     1   119.8800511 375.723200
    549    547    550     1   110.3400472 470.281600
    548    547    549     1   108.5500468 298.235520
    548    547    550     1   110.3400472 470.281600
    602    600    603     1   109.6800468 362.083360
    601    600    602     1   107.7300462 299.574400
    601    600    603     1   109.6800468 362.083360
    600    603    604     1   109.5900471 362.167040
    600    603    605     1   109.5900471 362.167040
    599    597    600     1   109.6800468 362.083360
    598    597    599     1   107.7300462 299.574400
    598    597    600     1   109.6800468 362.083360
    597    600    601     1   109.6800468 362.083360
    597    600    602     1   109.6800468 362.083360
    596    594    597     1   109.5900471 362.167040
    595    594    596     1   108.5500468 298.235520
    595    594    597     1   109.5900471 362.167040
    594    597    598     1   109.6800468 362.083360
    594    597    599     1   109.6800468 362.083360
    593    594    595     1   110.3400472 470.281600
    593    594    596     1   110.3400472 470.281600
    589    588    590     1   119.8800511 375.723200
    587    586    588     1   119.8800511 375.723200
    586    588    589     1   119.8800511 375.723200
    584    583    590     1   119.8800511 375.723200
    583    582    585     1   119.8800511 375.723200
    582    583    584     1   119.8800511 375.723200
    581    582    585     1   119.8800511 375.723200
    581    586    587     1   119.8800511 375.723200
    577    575    578     1   110.3400472 470.281600
    576    575    577     1   108.5500468 298.235520
    576    575    578     1   110.3400472 470.281600
    630    628    631     1   109.6800468 362.083360
    629    628    630     1   107.7300462 299.574400
    629    628    631     1   109.6800468 362.083360
    628    631    632     1   109.5900471 362.167040
    628    631    633     1   109.5900471 362.167040
    627    625    628     1   109.6800468 362.083360
    626    625    627     1   107.7300462 299.574400
    626    625    628     1   109.6800468 362.083360
    625    628    629     1   109.6800468 362.083360
    625    628    630     1   109.6800468 362.083360
    624    622    625     1   109.5900471 362.167040
    623    622    624     1   108.5500468 298.235520
    623    622    625     1   109.5900471 362.167040
    622    625    626     1   109.6800468 362.083360
    622    625    627     1   109.6800468 362.083360
    621    622    623     1   110.3400472 470.281600
    621    622    624     1   110.3400472 470.281600
    617    616    618     1   119.8800511 375.723200
    615    614    616     1   119.8800511 375.723200
    614    616    617     1   119.8800511 375.723200
    612    611    618     1   119.8800511 375.723200
    611    610    613     1   119.8800511 375.723200
    610    611    612     1   119.8800511 375.723200
    609    610    613     1   119.8800511 375.723200
    609    614    615     1   119.8800511 375.723200
    605    603    606     1   110.3400472 470.281600
    604    603    605     1   108.5500468 298.235520
    604    603    606     1   110.3400472 470.281600
    658    656    659     1   109.6800468 362.083360
    657    656    658     1   107.7300462 299.574400
    657    656    659     1   109.6800468 362.083360
    656    659    660     1   109.5900471 362.167040
    656    659    661     1   109.5900471 362.167040
    655    653    656     1   109.6800468 362.083360
    654    653    655     1   107.7300462 299.574400
    654    653    656     1   109.6800468 362.083360
    653    656    657     1   109.6800468 362.083360
    653    656    658     1   109.6800468 362.083360
    652    650    653     1   109.5900471 362.167040
    651    650    652     1   108.5500468 298.235520
    651    650    653     1   109.5900471 362.167040
    650    653    654     1   109.6800468 362.083360
    650    653    655     1   109.6800468 362.083360
    649    650    651     1   110.3400472 470.281600
    649    650    652     1   110.3400472 470.281600
    645    644    646     1   119.8800511 375.723200
    643    642    644     1   119.8800511 375.723200
    642    644    645     1   119.8800511 375.723200
    640    639    646     1   119.8800511 375.723200
    639    638    641     1   119.8800511 375.723200
    638    639    640     1   119.8800511 375.723200
    637    638    641     1   119.8800511 375.723200
    637    642    643     1   119.8800511 375.723200
    633    631    634     1   110.3400472 470.281600
    632    631    633     1   108.5500468 298.235520
    632    631    634     1   110.3400472 470.281600
    686    684    687     1   109.6800468 362.083360
    685    684    686     1   107.7300462 299.574400
    685    684    687     1   109.6800468 362.083360
    684    687    688     1   109.5900471 362.167040
    684    687    689     1   109.5900471 362.167040
    683    681    684     1   109.6800468 362.083360
    682    681    683     1   107.7300462 299.574400
    682    681    684     1   109.6800468 362.083360
    681    684    685     1   109.6800468 362.083360
    681    684    686     1   109.6800468 362.083360
    680    678    681     1   109.5900471 362.167040
    679    678    680     1   108.5500468 298.235520
    679    678    681     1   109.5900471 362.167040
    678    681    682     1   109.6800468 362.083360
    678    681    683     1   109.6800468 362.083360
    677    678    679     1   110.3400472 470.281600
    677    678    680     1   110.3400472 470.281600
    673    672    674     1   119.8800511 375.723200
    671    670    672     1   119.8800511 375.723200
    670    672    673     1   119.8800511 375.723200
    668    667    674     1   119.8800511 375.723200
    667    666    669     1   119.8800511 375.723200
    666    667    668     1   119.8800511 375.723200
    665    666    669     1   119.8800511 375.723200
    665    670    671     1   119.8800511 375.723200
    661    659    662     1   110.3400472 470.281600
    660    659    661     1   108.5500468 298.235520
    660    659    662     1   110.3400472 470.281600
    721    719    722     1   109.5900471 362.167040
    720    719    721     1   108.5500468 298.235520
    720    719    722     1   109.5900471 362.167040
    719    722    723     1   109.5900471 362.167040
    719    722    724     1   109.5900471 362.167040
    718    719    720     1   110.3400472 470.281600
    718    719    721     1   110.3400472 470.281600
    717    715    718     1   110.3400472 470.281600
    716    715    717     1   108.5500468 298.235520
    716    715    718     1   110.3400472 470.281600
    714    712    715     1   109.5900471 362.167040
    713    712    714     1   108.5500468 298.235520
    713    712    715     1   109.5900471 362.167040
    712    715    716     1   109.5900471 362.167040
    712    715    717     1   109.5900471 362.167040
    711    712    713     1   110.3400472 470.281600
    711    712    714     1   110.3400472 470.281600
    710    708    711     1   110.3400472 470.281600
    709    708    710     1   108.5500468 298.235520
    709    708    711     1   110.3400472 470.281600
    707    705    708     1   109.5900471 362.167040
    706    705    707     1   108.5500468 298.235520
    706    705    708     1   109.5900471 362.167040
    705    708    709     1   109.5900471 362.167040
    705    708    710     1   109.5900471 362.167040
    704    705    706     1   110.3400472 470.281600
    704    705    707     1   110.3400472 470.281600
    703    701    704     1   110.3400472 470.281600
    702    701    703     1   108.5500468 298.235520
    702    701    704     1   110.3400472 470.281600
    700    698    701     1   109.5900471 362.167040
    699    698    700     1   108.5500468 298.235520
    699    698    701     1   109.5900471 362.167040
    698    701    702     1   109.5900471 362.167040
    698    701    703     1   109.5900471 362.167040
    697    698    699     1   110.3400472 470.281600
    697    698    700     1   110.3400472 470.281600
    696    694    697     1   110.3400472 470.281600
    695    694    696     1   108.5500468 298.235520
    695    694    697     1   110.3400472 470.281600
    693    691    694     1   109.5900471 362.167040
    692    691    693     1   108.5500468 298.235520
    692    691    694     1   109.5900471 362.167040
    691    694    695     1   109.5900471 362.167040
    691    694    696     1   109.5900471 362.167040
    690    691    692     1   110.3400472 470.281600
    690    691    693     1   110.3400472 470.281600
    689    687    690     1   110.3400472 470.281600
    688    687    689     1   108.5500468 298.235520
    688    687    690     1   110.3400472 470.281600
    749    747    750     1   109.6800468 362.083360
    748    747    749     1   107.7300462 299.574400
    748    747    750     1   109.6800468 362.083360
    747    750    751     1   109.5900471 362.167040
    747    750    752     1   109.5900471 362.167040
    746    744    747     1   109.6800468 362.083360
    745    744    746     1   107.7300462 299.574400
    745    744    747     1   109.6800468 362.083360
    744    747    748     1   109.6800468 362.083360
    744    747    749     1   109.6800468 362.083360
    743    741    744     1   109.5900471 362.167040
    742    741    743     1   108.5500468 298.235520
    742    741    744     1   109.5900471 362.167040
    741    744    745     1   109.6800468 362.083360
    741    744    746     1   109.6800468 362.083360
    740    741    742     1   110.3400472 470.281600
    740    741    743     1   110.3400472 470.281600
    736    735    737     1   119.8800511 375.723200
    734    733    735     1   119.8800511 375.723200
    733    735    736     1   119.8800511 375.723200
    731    730    737     1   119.8800511 375.723200
    730    729    732     1   119.8800511 375.723200
    729    730    731     1   119.8800511 375.723200
    728    729    732     1   119.8800511 375.723200
    728    733    734     1   119.8800511 375.723200
    724    722    725     1   110.3400472 470.281600
    723    722    724     1   108.5500468 298.235520
    723    722    725     1   110.3400472 470.281600
    777    775    778     1   109.6800468 362.083360
    776    775    777     1   107.7300462 299.574400
    776    775    778     1   109.6800468 362.083360
    775    778    779     1   109.5900471 362.167040
    775    778    780     1   109.5900471 362.167040
    774    772    775     1   109.6800468 362.083360
    773    772    774     1   107.7300462 299.574400
    773    772    775     1   109.6800468 362.083360
    772    775    776     1   109.6800468 362.083360
    772    775    777     1   109.6800468 362.083360
    771    769    772     1   109.5900471 362.167040
    770    769    771     1   108.5500468 298.235520
    770    769    772     1   109.5900471 362.167040
    769    772    773     1   109.6800468 362.083360
    769    772    774     1   109.6800468 362.083360
    768    769    770     1   110.3400472 470.281600
    768    769    771     1   110.3400472 470.281600
    764    763    765     1   119.8800511 375.723200
    762    761    763     1   119.8800511 375.723200
    761    763    764     1   119.8800511 375.723200
    759    758    765     1   119.8800511 375.723200
    758    757    760     1   119.8800511 375.723200
    757    758    759     1   119.8800511 375.723200
    756    757    760     1   119.8800511 375.723200
    756    761    762     1   119.8800511 375.723200
    752    750    753     1   110.3400472 470.281600
    751    750    752     1   108.5500468 298.235520
    751    750    753     1   110.3400472 470.281600
    812    810    813     1   109.5900471 362.167040
    811    810    812     1   108.5500468 298.235520
    811    810    813     1   109.5900471 362.167040
    810    813    814     1   109.5900471 362.167040
    810    813    815     1   109.5900471 362.167040
    809    810    811     1   110.3400472 470.281600
    809    810    812     1   110.3400472 470.281600
    808    806    809     1   110.3400472 470.281600
    807    806    808     1   108.5500468 298.235520
    807    806    809     1   110.3400472 470.281600
    805    803    806     1   109.5900471 362.167040
    804    803    805     1   108.5500468 298.235520
    804    803    806     1   109.5900471 362.167040
    803    806    807     1   109.5900471 362.167040
    803    806    808     1   109.5900471 362.167040
    802    803    804     1   110.3400472 470.281600
    802    803    805     1   110.3400472 470.281600
    801    799    802     1   110.3400472 470.281600
    800    799    801     1   108.5500468 298.235520
    800    799    802     1   110.3400472 470.281600
    798    796    799     1   109.5900471 362.167040
    797    796    798     1   108.5500468 298.235520
    797    796    799     1   109.5900471 362.167040
    796    799    800     1   109.5900471 362.167040
    796    799    801     1   109.5900471 362.167040
    795    796    797     1   110.3400472 470.281600
    795    796    798     1   110.3400472 470.281600
    794    792    795     1   110.3400472 470.281600
    793    792    794     1   108.5500468 298.235520
    793    792    795     1   110.3400472 470.281600
    791    789    792     1   109.5900471 362.167040
    790    789    791     1   108.5500468 298.235520
    790    789    792     1   109.5900471 362.167040
    789    792    793     1   109.5900471 362.167040
    789    792    794     1   109.5900471 362.167040
    788    789    790     1   110.3400472 470.281600
    788    789    791     1   110.3400472 470.281600
    787    785    788     1   110.3400472 470.281600
    786    785    787     1   108.5500468 298.235520
    786    785    788     1   110.3400472 470.281600
    784    782    785     1   109.5900471 362.167040
    783    782    784     1   108.5500468 298.235520
    783    782    785     1   109.5900471 362.167040
    782    785    786     1   109.5900471 362.167040
    782    785    787     1   109.5900471 362.167040
    781    782    783     1   110.3400472 470.281600
    781    782    784     1   110.3400472 470.281600
    780    778    781     1   110.3400472 470.281600
    779    778    780     1   108.5500468 298.235520
    779    778    781     1   110.3400472 470.281600
    847    845    848     1   109.5900471 362.167040
    846    845    847     1   108.5500468 298.235520
    846    845    848     1   109.5900471 362.167040
    845    848    849     1   109.5900471 362.167040
    845    848    850     1   109.5900471 362.167040
    844    845    846     1   110.3400472 470.281600
    844    845    847     1   110.3400472 470.281600
    843    841    844     1   110.3400472 470.281600
    842    841    843     1   108.5500468 298.235520
    842    841    844     1   110.3400472 470.281600
    840    838    841     1   109.5900471 362.167040
    839    838    840     1   108.5500468 298.235520
    839    838    841     1   109.5900471 362.167040
    838    841    842     1   109.5900471 362.167040
    838    841    843     1   109.5900471 362.167040
    837    838    839     1   110.3400472 470.281600
    837    838    840     1   110.3400472 470.281600
    836    834    837     1   110.3400472 470.281600
    835    834    836     1   108.5500468 298.235520
    835    834    837     1   110.3400472 470.281600
    833    831    834     1   109.5900471 362.167040
    832    831    833     1   108.5500468 298.235520
    832    831    834     1   109.5900471 362.167040
    831    834    835     1   109.5900471 362.167040
    831    834    836     1   109.5900471 362.167040
    830    831    832     1   110.3400472 470.281600
    830    831    833     1   110.3400472 470.281600
    829    827    830     1   110.3400472 470.281600
    828    827    829     1   108.5500468 298.235520
    828    827    830     1   110.3400472 470.281600
    826    824    827     1   109.5900471 362.167040
    825    824    826     1   108.5500468 298.235520
    825    824    827     1   109.5900471 362.167040
    824    827    828     1   109.5900471 362.167040
    824    827    829     1   109.5900471 362.167040
    823    824    825     1   110.3400472 470.281600
    823    824    826     1   110.3400472 470.281600
    822    820    823     1   110.3400472 470.281600
    821    820    822     1   108.5500468 298.235520
    821    820    823     1   110.3400472 470.281600
    819    817    820     1   109.5900471 362.167040
    818    817    819     1   108.5500468 298.235520
    818    817    820     1   109.5900471 362.167040
    817    820    821     1   109.5900471 362.167040
    817    820    822     1   109.5900471 362.167040
    816    817    818     1   110.3400472 470.281600
    816    817    819     1   110.3400472 470.281600
    815    813    816     1   110.3400472 470.281600
    814    813    815     1   108.5500468 298.235520
    814    813    816     1   110.3400472 470.281600
    874    873    875     1   107.7300462 299.574400
    872    870    873     1   109.6800468 362.083360
    871    870    872     1   107.7300462 299.574400
    871    870    873     1   109.6800468 362.083360
    870    873    874     1   109.6800468 362.083360
    870    873    875     1   109.6800468 362.083360
    869    867    870     1   109.5900471 362.167040
    868    867    869     1   108.5500468 298.235520
    868    867    870     1   109.5900471 362.167040
    867    870    871     1   109.6800468 362.083360
    867    870    872     1   109.6800468 362.083360
    866    867    868     1   110.3400472 470.281600
    866    867    869     1   110.3400472 470.281600
    862    861    863     1   119.8800511 375.723200
    860    859    861     1   119.8800511 375.723200
    859    861    862     1   119.8800511 375.723200
    857    856    863     1   119.8800511 375.723200
    856    855    858     1   119.8800511 375.723200
    855    856    857     1   119.8800511 375.723200
    854    855    858     1   119.8800511 375.723200
    854    859    860     1   119.8800511 375.723200
    850    848    851     1   110.3400472 470.281600
    849    848    850     1   108.5500468 298.235520
    849    848    851     1   110.3400472 470.281600

[ dihedrals ]
;    ai     aj     ak     al funct         c0         c1         c2         c3         c4         c5
     26     29     32     33     1  180.0000771  3.6819200  1
     26     29     32     33     1  0.0000000  0.3347200  2
     26     29     32     33     1  0.0000000  3.1380000  3
     23     26     29     32     1  0.0000000  0.6508444  3
     20     23     26     29     1  0.0000000  2.1756800  3
     19     20     23     26     1  0.0000000  0.6508444  3
     18     17     19     20     1  180.0000771  5.8576000  1
     18     17     19     20     1  180.0000771  11.2968000  2
     17     19     20     23     1  180.0000771  3.3472000  1
     17     19     20     23     1  0.0000000  1.6024720  3
     16     17     19     20     1  180.0000771  6.6944000  1
     16     17     19     20     1  180.0000771  15.3552800  2
     16     17     19     20     1  0.0000000  1.2970400  3
     14     16     17     18     1  180.0000771  2.4267200  2
     14     16     17     19     1  180.0000771  4.1840000  2
     12     14     16     17     1  180.0000771  15.1670000  2
      9      8      7     12     1  180.0000771  15.1670000  2
      9     16     14     12     1  180.0000771  15.1670000  2
      9     16     17     18     1  180.0000771  2.4267200  2
      9     16     17     19     1  180.0000771  4.1840000  2
      8      7     12     14     1  180.0000771  15.1670000  2
      8      9     16     14     1  180.0000771  15.1670000  2
      8      9     16     17     1  180.0000771  15.1670000  2
      7      8      9     16     1  180.0000771  15.1670000  2
      7     12     14     16     1  180.0000771  15.1670000  2
      6      5      7      8     1  180.0000771  2.4267200  2
      6      5      7     12     1  180.0000771  2.4267200  2
      5      7      8      9     1  180.0000771  15.1670000  2
      5      7     12     14     1  180.0000771  15.1670000  2
      4      5      7      8     1  180.0000771  4.1840000  2
      4      5      7     12     1  180.0000771  4.1840000  2
      1      4      5      6     1  180.0000771  5.8576000  1
      1      4      5      6     1  180.0000771  11.2968000  2
      1      4      5      7     1  180.0000771  6.6944000  1
      1      4      5      7     1  180.0000771  15.3552800  2
      1      4      5      7     1  0.0000000  1.2970400  3
     61     64     67     68     1  180.0000771  3.3472000  1
     61     64     67     68     1  0.0000000  1.6024720  3
     60     61     64     67     1  0.0000000  0.7531200  1
     60     61     64     67     1  0.0000000  3.7656000  2
     60     61     64     67     1  0.0000000  2.0920000  3
     57     60     61     64     1  180.0000771  3.6819200  1
     57     60     61     64     1  0.0000000  0.3347200  2
     57     60     61     64     1  0.0000000  3.1380000  3
     54     57     60     61     1  180.0000771  3.6819200  1
     54     57     60     61     1  0.0000000  0.3347200  2
     54     57     60     61     1  0.0000000  3.1380000  3
     53     54     57     60     1  0.0000000  0.7531200  1
     53     54     57     60     1  0.0000000  3.7656000  2
     53     54     57     60     1  0.0000000  2.0920000  3
     50     53     54     57     1  180.0000771  3.6819200  1
     50     53     54     57     1  0.0000000  0.3347200  2
     50     53     54     57     1  0.0000000  3.1380000  3
     47     50     53     54     1  180.0000771  3.6819200  1
     47     50     53     54     1  0.0000000  0.3347200  2
     47     50     53     54     1  0.0000000  3.1380000  3
     46     47     50     53     1  0.0000000  0.7531200  1
     46     47     50     53     1  0.0000000  3.7656000  2
     46     47     50     53     1  0.0000000  2.0920000  3
     43     46     47     50     1  180.0000771  3.6819200  1
     43     46     47     50     1  0.0000000  0.3347200  2
     43     46     47     50     1  0.0000000  3.1380000  3
     40     43     46     47     1  180.0000771  3.6819200  1
     40     43     46     47     1  0.0000000  0.3347200  2
     40     43     46     47     1  0.0000000  3.1380000  3
     39     40     43     46     1  0.0000000  0.7531200  1
     39     40     43     46     1  0.0000000  3.7656000  2
     39     40     43     46     1  0.0000000  2.0920000  3
     36     39     40     43     1  180.0000771  3.6819200  1
     36     39     40     43     1  0.0000000  0.3347200  2
     36     39     40     43     1  0.0000000  3.1380000  3
     33     36     39     40     1  180.0000771  3.6819200  1
     33     36     39     40     1  0.0000000  0.3347200  2
     33     36     39     40     1  0.0000000  3.1380000  3
     32     33     36     39     1  0.0000000  0.7531200  1
     32     33     36     39     1  0.0000000  3.7656000  2
     32     33     36     39     1  0.0000000  2.0920000  3
     29     32     33     36     1  180.0000771  3.6819200  1
     29     32     33     36     1  0.0000000  0.3347200  2
     29     32     33     36     1  0.0000000  3.1380000  3
     89     92     95     96     1  180.0000771  3.3472000  1
     89     92     95     96     1  0.0000000  1.6024720  3
     86     89     92     95     1  0.0000000  0.6508444  3
     83     86     89     92     1  0.0000000  2.1756800  3
     82     83     86     89     1  0.0000000  0.6508444  3
     81     80     82     83     1  180.0000771  5.8576000  1
     81     80     82     83     1  180.0000771  11.2968000  2
     80     82     83     86     1  180.0000771  3.3472000  1
     80     82     83     86     1  0.0000000  1.6024720  3
     79     80     82     83     1  180.0000771  6.6944000  1
     79     80     82     83     1  180.0000771  15.3552800  2
     79     80     82     83     1  0.0000000  1.2970400  3
     77     79     80     81     1  180.0000771  2.4267200  2
     77     79     80     82     1  180.0000771  4.1840000  2
     75     77     79     80     1  180.0000771  15.1670000  2
     72     71     70     75     1  180.0000771  15.1670000  2
     72     79     77     75     1  180.0000771  15.1670000  2
     72     79     80     81     1  180.0000771  2.4267200  2
     72     79     80     82     1  180.0000771  4.1840000  2
     71     70     75     77     1  180.0000771  15.1670000  2
     71     72     79     77     1  180.0000771  15.1670000  2
     71     72     79     80     1  180.0000771  15.1670000  2
     70     71     72     79     1  180.0000771  15.1670000  2
     70     75     77     79     1  180.0000771  15.1670000  2
     69     68     70     71     1  180.0000771  2.4267200  2
     69     68     70     75     1  180.0000771  2.4267200  2
     68     70     71     72     1  180.0000771  15.1670000  2
     68     70     75     77     1  180.0000771  15.1670000  2
     67     68     70     71     1  180.0000771  4.1840000  2
     67     68     70     75     1  180.0000771  4.1840000  2
     64     67     68     69     1  180.0000771  5.8576000  1
     64     67     68     69     1  180.0000771  11.2968000  2
     64     67     68     70     1  180.0000771  6.6944000  1
     64     67     68     70     1  180.0000771  15.3552800  2
     64     67     68     70     1  0.0000000  1.2970400  3
    117    120    123    124     1  180.0000771  3.3472000  1
    117    120    123    124     1  0.0000000  1.6024720  3
    114    117    120    123     1  0.0000000  0.6508444  3
    111    114    117    120     1  0.0000000  2.1756800  3
    110    111    114    117     1  0.0000000  0.6508444  3
    109    108    110    111     1  180.0000771  5.8576000  1
    109    108    110    111     1  180.0000771  11.2968000  2
    108    110    111    114     1  180.0000771  3.3472000  1
    108    110    111    114     1  0.0000000  1.6024720  3
    107    108    110    111     1  180.0000771  6.6944000  1
    107    108    110    111     1  180.0000771  15.3552800  2
    107    108    110    111     1  0.0000000  1.2970400  3
    105    107    108    109     1  180.0000771  2.4267200  2
    105    107    108    110     1  180.0000771  4.1840000  2
    103    105    107    108     1  180.0000771  15.1670000  2
    100     99     98    103     1  180.0000771  15.1670000  2
    100    107    105    103     1  180.0000771  15.1670000  2
    100    107    108    109     1  180.0000771  2.4267200  2
    100    107    108    110     1  180.0000771  4.1840000  2
     99     98    103    105     1  180.0000771  15.1670000  2
     99    100    107    105     1  180.0000771  15.1670000  2
     99    100    107    108     1  180.0000771  15.1670000  2
     98     99    100    107     1  180.0000771  15.1670000  2
     98    103    105    107     1  180.0000771  15.1670000  2
     97     96     98     99     1  180.0000771  2.4267200  2
     97     96     98    103     1  180.0000771  2.4267200  2
     96     98     99    100     1  180.0000771  15.1670000  2
     96     98    103    105     1  180.0000771  15.1670000  2
     95     96     98     99     1  180.0000771  4.1840000  2
     95     96     98    103     1  180.0000771  4.1840000  2
     92     95     96     97     1  180.0000771  5.8576000  1
     92     95     96     97     1  180.0000771  11.2968000  2
     92     95     96     98     1  180.0000771  6.6944000  1
     92     95     96     98     1  180.0000771  15.3552800  2
     92     95     96     98     1  0.0000000  1.2970400  3
    145    148    151    152     1  180.0000771  3.6819200  1
    145    148    151    152     1  0.0000000  0.3347200  2
    145    148    151    152     1  0.0000000  3.1380000  3
    142    145    148    151     1  0.0000000  0.6508444  3
    139    142    145    148     1  0.0000000  2.1756800  3
    138    139    142    145     1  0.0000000  0.6508444  3
    137    136    138    139     1  180.0000771  5.8576000  1
    137    136    138    139     1  180.0000771  11.2968000  2
    136    138    139    142     1  180.0000771  3.3472000  1
    136    138    139    142     1  0.0000000  1.6024720  3
    135    136    138    139     1  180.0000771  6.6944000  1
    135    136    138    139     1  180.0000771  15.3552800  2
    135    136    138    139     1  0.0000000  1.2970400  3
    133    135    136    137     1  180.0000771  2.4267200  2
    133    135    136    138     1  180.0000771  4.1840000  2
    131    133    135    136     1  180.0000771  15.1670000  2
    128    127    126    131     1  180.0000771  15.1670000  2
    128    135    133    131     1  180.0000771  15.1670000  2
    128    135    136    137     1  180.0000771  2.4267200  2
    128    135    136    138     1  180.0000771  4.1840000  2
    127    126    131    133     1  180.0000771  15.1670000  2
    127    128    135    133     1  180.0000771  15.1670000  2
    127    128    135    136     1  180.0000771  15.1670000  2
    126    127    128    135     1  180.0000771  15.1670000  2
    126    131    133    135     1  180.0000771  15.1670000  2
    125    124    126    127     1  180.0000771  2.4267200  2
    125    124    126    131     1  180.0000771  2.4267200  2
    124    126    127    128     1  180.0000771  15.1670000  2
    124    126    131    133     1  180.0000771  15.1670000  2
    123    124    126    127     1  180.0000771  4.1840000  2
    123    124    126    131     1  180.0000771  4.1840000  2
    120    123    124    125     1  180.0000771  5.8576000  1
    120    123    124    125     1  180.0000771  11.2968000  2
    120    123    124    126     1  180.0000771  6.6944000  1
    120    123    124    126     1  180.0000771  15.3552800  2
    120    123    124    126     1  0.0000000  1.2970400  3
    180    183    186    187     1  180.0000771  3.3472000  1
    180    183    186    187     1  0.0000000  1.6024720  3
    179    180    183    186     1  0.0000000  0.7531200  1
    179    180    183    186     1  0.0000000  3.7656000  2
    179    180    183    186     1  0.0000000  2.0920000  3
    176    179    180    183     1  180.0000771  3.6819200  1
    176    179    180    183     1  0.0000000  0.3347200  2
    176    179    180    183     1  0.0000000  3.1380000  3
    173    176    179    180     1  180.0000771  3.6819200  1
    173    176    179    180     1  0.0000000  0.3347200  2
    173    176    179    180     1  0.0000000  3.1380000  3
    172    173    176    179     1  0.0000000  0.7531200  1
    172    173    176    179     1  0.0000000  3.7656000  2
    172    173    176    179     1  0.0000000  2.0920000  3
    169    172    173    176     1  180.0000771  3.6819200  1
    169    172    173    176     1  0.0000000  0.3347200  2
    169    172    173    176     1  0.0000000  3.1380000  3
    166    169    172    173     1  180.0000771  3.6819200  1
    166    169    172    173     1  0.0000000  0.3347200  2
    166    169    172    173     1  0.0000000  3.1380000  3
    165    166    169    172     1  0.0000000  0.7531200  1
    165    166    169    172     1  0.0000000  3.7656000  2
    165    166    169    172     1  0.0000000  2.0920000  3
    162    165    166    169     1  180.0000771  3.6819200  1
    162    165    166    169     1  0.0000000  0.3347200  2
    162    165    166    169     1  0.0000000  3.1380000  3
    159    162    165    166     1  180.0000771  3.6819200  1
    159    162    165    166     1  0.0000000  0.3347200  2
    159    162    165    166     1  0.0000000  3.1380000  3
    158    159    162    165     1  0.0000000  0.7531200  1
    158    159    162    165     1  0.0000000  3.7656000  2
    158    159    162    165     1  0.0000000  2.0920000  3
    155    158    159    162     1  180.0000771  3.6819200  1
    155    158    159    162     1  0.0000000  0.3347200  2
    155    158    159    162     1  0.0000000  3.1380000  3
    152    155    158    159     1  180.0000771  3.6819200  1
    152    155    158    159     1  0.0000000  0.3347200  2
    152    155    158    159     1  0.0000000  3.1380000  3
    151    152    155    158     1  0.0000000  0.7531200  1
    151    152    155    158     1  0.0000000  3.7656000  2
    151    152    155    158     1  0.0000000  2.0920000  3
    148    151    152    155     1  180.0000771  3.6819200  1
    148    151    152    155     1  0.0000000  0.3347200  2
    148    151    152    155     1  0.0000000  3.1380000  3
    208    211    214    215     1  180.0000771  3.3472000  1
    208    211    214    215     1  0.0000000  1.6024720  3
    205    208    211    214     1  0.0000000  0.6508444  3
    202    205    208    211     1  0.0000000  2.1756800  3
    201    202    205    208     1  0.0000000  0.6508444  3
    200    199    201    202     1  180.0000771  5.8576000  1
    200    199    201    202     1  180.0000771  11.2968000  2
    199    201    202    205     1  180.0000771  3.3472000  1
    199    201    202    205     1  0.0000000  1.6024720  3
    198    199    201    202     1  180.0000771  6.6944000  1
    198    199    201    202     1  180.0000771  15.3552800  2
    198    199    201    202     1  0.0000000  1.2970400  3
    196    198    199    200     1  180.0000771  2.4267200  2
    196    198    199    201     1  180.0000771  4.1840000  2
    194    196    198    199     1  180.0000771  15.1670000  2
    191    190    189    194     1  180.0000771  15.1670000  2
    191    198    196    194     1  180.0000771  15.1670000  2
    191    198    199    200     1  180.0000771  2.4267200  2
    191    198    199    201     1  180.0000771  4.1840000  2
    190    189    194    196     1  180.0000771  15.1670000  2
    190    191    198    196     1  180.0000771  15.1670000  2
    190    191    198    199     1  180.0000771  15.1670000  2
    189    190    191    198     1  180.0000771  15.1670000  2
    189    194    196    198     1  180.0000771  15.1670000  2
    188    187    189    190     1  180.0000771  2.4267200  2
    188    187    189    194     1  180.0000771  2.4267200  2
    187    189    190    191     1  180.0000771  15.1670000  2
    187    189    194    196     1  180.0000771  15.1670000  2
    186    187    189    190     1  180.0000771  4.1840000  2
    186    187    189    194     1  180.0000771  4.1840000  2
    183    186    187    188     1  180.0000771  5.8576000  1
    183    186    187    188     1  180.0000771  11.2968000  2
    183    186    187    189     1  180.0000771  6.6944000  1
    183    186    187    189     1  180.0000771  15.3552800  2
    183    186    187    189     1  0.0000000  1.2970400  3
    236    239    242    243     1  180.0000771  3.3472000  1
    236    239    242    243     1  0.0000000  1.6024720  3
    233    236    239    242     1  0.0000000  0.6508444  3
    230    233    236    239     1  0.0000000  2.1756800  3
    229    230    233    236     1  0.0000000  0.6508444  3
    228    227    229    230     1  180.0000771  5.8576000  1
    228    227    229    230     1  180.0000771  11.2968000  2
    227    229    230    233     1  180.0000771  3.3472000  1
    227    229    230    233     1  0.0000000  1.6024720  3
    226    227    229    230     1  180.0000771  6.6944000  1
    226    227    229    230     1  180.0000771  15.3552800  2
    226    227    229    230     1  0.0000000  1.2970400  3
    224    226    227    228     1  180.0000771  2.4267200  2
    224    226    227    229     1  180.0000771  4.1840000  2
    222    224    226    227     1  180.0000771  15.1670000  2
    219    218    217    222     1  180.0000771  15.1670000  2
    219    226    224    222     1  180.0000771  15.1670000  2
    219    226    227    228     1  180.0000771  2.4267200  2
    219    226    227    229     1  180.0000771  4.1840000  2
    218    217    222    224     1  180.0000771  15.1670000  2
    218    219    226    224     1  180.0000771  15.1670000  2
    218    219    226    227     1  180.0000771  15.1670000  2
    217    218    219    226     1  180.0000771  15.1670000  2
    217    222    224    226     1  180.0000771  15.1670000  2
    216    215    217    218     1  180.0000771  2.4267200  2
    216    215    217    222     1  180.0000771  2.4267200  2
    215    217    218    219     1  180.0000771  15.1670000  2
    215    217    222    224     1  180.0000771  15.1670000  2
    214    215    217    218     1  180.0000771  4.1840000  2
    214    215    217    222     1  180.0000771  4.1840000  2
    211    214    215    216     1  180.0000771  5.8576000  1
    211    214    215    216     1  180.0000771  11.2968000  2
    211    214    215    217     1  180.0000771  6.6944000  1
    211    214    215    217     1  180.0000771  15.3552800  2
    211    214    215    217     1  0.0000000  1.2970400  3
    264    267    270    271     1  180.0000771  3.3472000  1
    264    267    270    271     1  0.0000000  1.6024720  3
    261    264    267    270     1  0.0000000  0.6508444  3
    258    261    264    267     1  0.0000000  2.1756800  3
    257    258    261    264     1  0.0000000  0.6508444  3
    256    255    257    258     1  180.0000771  5.8576000  1
    256    255    257    258     1  180.0000771  11.2968000  2
    255    257    258    261     1  180.0000771  3.3472000  1
    255    257    258    261     1  0.0000000  1.6024720  3
    254    255    257    258     1  180.0000771  6.6944000  1
    254    255    257    258     1  180.0000771  15.3552800  2
    254    255    257    258     1  0.0000000  1.2970400  3
    252    254    255    256     1  180.0000771  2.4267200  2
    252    254    255    257     1  180.0000771  4.1840000  2
    250    252    254    255     1  180.0000771  15.1670000  2
    247    246    245    250     1  180.0000771  15.1670000  2
    247    254    252    250     1  180.0000771  15.1670000  2
    247    254    255    256     1  180.0000771  2.4267200  2
    247    254    255    257     1  180.0000771  4.1840000  2
    246    245    250    252     1  180.0000771  15.1670000  2
    246    247    254    252     1  180.0000771  15.1670000  2
    246    247    254    255     1  180.0000771  15.1670000  2
    245    246    247    254     1  180.0000771  15.1670000  2
    245    250    252    254     1  180.0000771  15.1670000  2
    244    243    245    246     1  180.0000771  2.4267200  2
    244    243    245    250     1  180.0000771  2.4267200  2
    243    245    246    247     1  180.0000771  15.1670000  2
    243    245    250    252     1  180.0000771  15.1670000  2
    242    243    245    246     1  180.0000771  4.1840000  2
    242    243    245    250     1  180.0000771  4.1840000  2
    239    242    243    244     1  180.0000771  5.8576000  1
    239    242    243    244     1  180.0000771  11.2968000  2
    239    242    243    245     1  180.0000771  6.6944000  1
    239    242    243    245     1  180.0000771  15.3552800  2
    239    242    243    245     1  0.0000000  1.2970400  3
    292    295    298    299     1  180.0000771  3.3472000  1
    292    295    298    299     1  0.0000000  1.6024720  3
    289    292    295    298     1  0.0000000  0.6508444  3
    286    289    292    295     1  0.0000000  2.1756800  3
    285    286    289    292     1  0.0000000  0.6508444  3
    284    283    285    286     1  180.0000771  5.8576000  1
    284    283    285    286     1  180.0000771  11.2968000  2
    283    285    286    289     1  180.0000771  3.3472000  1
    283    285    286    289     1  0.0000000  1.6024720  3
    282    283    285    286     1  180.0000771  6.6944000  1
    282    283    285    286     1  180.0000771  15.3552800  2
    282    283    285    286     1  0.0000000  1.2970400  3
    280    282    283    284     1  180.0000771  2.4267200  2
    280    282    283    285     1  180.0000771  4.1840000  2
    278    280    282    283     1  180.0000771  15.1670000  2
    275    274    273    278     1  180.0000771  15.1670000  2
    275    282    280    278     1  180.0000771  15.1670000  2
    275    282    283    284     1  180.0000771  2.4267200  2
    275    282    283    285     1  180.0000771  4.1840000  2
    274    273    278    280     1  180.0000771  15.1670000  2
    274    275    282    280     1  180.0000771  15.1670000  2
    274    275    282    283     1  180.0000771  15.1670000  2
    273    274    275    282     1  180.0000771  15.1670000  2
    273    278    280    282     1  180.0000771  15.1670000  2
    272    271    273    274     1  180.0000771  2.4267200  2
    272    271    273    278     1  180.0000771  2.4267200  2
    271    273    274    275     1  180.0000771  15.1670000  2
    271    273    278    280     1  180.0000771  15.1670000  2
    270    271    273    274     1  180.0000771  4.1840000  2
    270    271    273    278     1  180.0000771  4.1840000  2
    267    270    271    272     1  180.0000771  5.8576000  1
    267    270    271    272     1  180.0000771  11.2968000  2
    267    270    271    273     1  180.0000771  6.6944000  1
    267    270    271    273     1  180.0000771  15.3552800  2
    267    270    271    273     1  0.0000000  1.2970400  3
    320    323    326    327     1  180.0000771  3.3472000  1
    320    323    326    327     1  0.0000000  1.6024720  3
    317    320    323    326     1  0.0000000  0.6508444  3
    314    317    320    323     1  0.0000000  2.1756800  3
    313    314    317    320     1  0.0000000  0.6508444  3
    312    311    313    314     1  180.0000771  5.8576000  1
    312    311    313    314     1  180.0000771  11.2968000  2
    311    313    314    317     1  180.0000771  3.3472000  1
    311    313    314    317     1  0.0000000  1.6024720  3
    310    311    313    314     1  180.0000771  6.6944000  1
    310    311    313    314     1  180.0000771  15.3552800  2
    310    311    313    314     1  0.0000000  1.2970400  3
    308    310    311    312     1  180.0000771  2.4267200  2
    308    310    311    313     1  180.0000771  4.1840000  2
    306    308    310    311     1  180.0000771  15.1670000  2
    303    302    301    306     1  180.0000771  15.1670000  2
    303    310    308    306     1  180.0000771  15.1670000  2
    303    310    311    312     1  180.0000771  2.4267200  2
    303    310    311    313     1  180.0000771  4.1840000  2
    302    301    306    308     1  180.0000771  15.1670000  2
    302    303    310    308     1  180.0000771  15.1670000  2
    302    303    310    311     1  180.0000771  15.1670000  2
    301    302    303    310     1  180.0000771  15.1670000  2
    301    306    308    310     1  180.0000771  15.1670000  2
    300    299    301    302     1  180.0000771  2.4267200  2
    300    299    301    306     1  180.0000771  2.4267200  2
    299    301    302    303     1  180.0000771  15.1670000  2
    299    301    306    308     1  180.0000771  15.1670000  2
    298    299    301    302     1  180.0000771  4.1840000  2
    298    299    301    306     1  180.0000771  4.1840000  2
    295    298    299    300     1  180.0000771  5.8576000  1
    295    298    299    300     1  180.0000771  11.2968000  2
    295    298    299    301     1  180.0000771  6.6944000  1
    295    298    299    301     1  180.0000771  15.3552800  2
    295    298    299    301     1  0.0000000  1.2970400  3
    348    351    354    355     1  180.0000771  3.3472000  1
    348    351    354    355     1  0.0000000  1.6024720  3
    345    348    351    354     1  0.0000000  0.6508444  3
    342    345    348    351     1  0.0000000  2.1756800  3
    341    342    345    348     1  0.0000000  0.6508444  3
    340    339    341    342     1  180.0000771  5.8576000  1
    340    339    341    342     1  180.0000771  11.2968000  2
    339    341    342    345     1  180.0000771  3.3472000  1
    339    341    342    345     1  0.0000000  1.6024720  3
    338    339    341    342     1  180.0000771  6.6944000  1
    338    339    341    342     1  180.0000771  15.3552800  2
    338    339    341    342     1  0.0000000  1.2970400  3
    336    338    339    340     1  180.0000771  2.4267200  2
    336    338    339    341     1  180.0000771  4.1840000  2
    334    336    338    339     1  180.0000771  15.1670000  2
    331    330    329    334     1  180.0000771  15.1670000  2
    331    338    336    334     1  180.0000771  15.1670000  2
    331    338    339    340     1  180.0000771  2.4267200  2
    331    338    339    341     1  180.0000771  4.1840000  2
    330    329    334    336     1  180.0000771  15.1670000  2
    330    331    338    336     1  180.0000771  15.1670000  2
    330    331    338    339     1  180.0000771  15.1670000  2
    329    330    331    338     1  180.0000771  15.1670000  2
    329    334    336    338     1  180.0000771  15.1670000  2
    328    327    329    330     1  180.0000771  2.4267200  2
    328    327    329    334     1  180.0000771  2.4267200  2
    327    329    330    331     1  180.0000771  15.1670000  2
    327    329    334    336     1  180.0000771  15.1670000  2
    326    327    329    330     1  180.0000771  4.1840000  2
    326    327    329    334     1  180.0000771  4.1840000  2
    323    326    327    328     1  180.0000771  5.8576000  1
    323    326    327    328     1  180.0000771  11.2968000  2
    323    326    327    329     1  180.0000771  6.6944000  1
    323    326    327    329     1  180.0000771  15.3552800  2
    323    326    327    329     1  0.0000000  1.2970400  3
    376    379    382    383     1  180.0000771  3.3472000  1
    376    379    382    383     1  0.0000000  1.6024720  3
    373    376    379    382     1  0.0000000  0.6508444  3
    370    373    376    379     1  0.0000000  2.1756800  3
    369    370    373    376     1  0.0000000  0.6508444  3
    368    367    369    370     1  180.0000771  5.8576000  1
    368    367    369    370     1  180.0000771  11.2968000  2
    367    369    370    373     1  180.0000771  3.3472000  1
    367    369    370    373     1  0.0000000  1.6024720  3
    366    367    369    370     1  180.0000771  6.6944000  1
    366    367    369    370     1  180.0000771  15.3552800  2
    366    367    369    370     1  0.0000000  1.2970400  3
    364    366    367    368     1  180.0000771  2.4267200  2
    364    366    367    369     1  180.0000771  4.1840000  2
    362    364    366    367     1  180.0000771  15.1670000  2
    359    358    357    362     1  180.0000771  15.1670000  2
    359    366    364    362     1  180.0000771  15.1670000  2
    359    366    367    368     1  180.0000771  2.4267200  2
    359    366    367    369     1  180.0000771  4.1840000  2
    358    357    362    364     1  180.0000771  15.1670000  2
    358    359    366    364     1  180.0000771  15.1670000  2
    358    359    366    367     1  180.0000771  15.1670000  2
    357    358    359    366     1  180.0000771  15.1670000  2
    357    362    364    366     1  180.0000771  15.1670000  2
    356    355    357    358     1  180.0000771  2.4267200  2
    356    355    357    362     1  180.0000771  2.4267200  2
    355    357    358    359     1  180.0000771  15.1670000  2
    355    357    362    364     1  180.0000771  15.1670000  2
    354    355    357    358     1  180.0000771  4.1840000  2
    354    355    357    362     1  180.0000771  4.1840000  2
    351    354    355    356     1  180.0000771  5.8576000  1
    351    354    355    356     1  180.0000771  11.2968000  2
    351    354    355    357     1  180.0000771  6.6944000  1
    351    354    355    357     1  180.0000771  15.3552800  2
    351    354    355    357     1  0.0000000  1.2970400  3
    404    407    410    411     1  180.0000771  3.3472000  1
    404    407    410    411     1  0.0000000  1.6024720  3
    401    404    407    410     1  0.0000000  0.6508444  3
    398    401    404    407     1  0.0000000  2.1756800  3
    397    398    401    404     1  0.0000000  0.6508444  3
    396    395    397    398     1  180.0000771  5.8576000  1
    396    395    397    398     1  180.0000771  11.2968000  2
    395    397    398    401     1  180.0000771  3.3472000  1
    395    397    398    401     1  0.0000000  1.6024720  3
    394    395    397    398     1  180.0000771  6.6944000  1
    394    395    397    398     1  180.0000771  15.3552800  2
    394    395    397    398     1  0.0000000  1.2970400  3
    392    394    395    396     1  180.0000771  2.4267200  2
    392    394    395    397     1  180.0000771  4.1840000  2
    390    392    394    395     1  180.0000771  15.1670000  2
    387    386    385    390     1  180.0000771  15.1670000  2
    387    394    392    390     1  180.0000771  15.1670000  2
    387    394    395    396     1  180.0000771  2.4267200  2
    387    394    395    397     1  180.0000771  4.1840000  2
    386    385    390    392     1  180.0000771  15.1670000  2
    386    387    394    392     1  180.0000771  15.1670000  2
    386    387    394    395     1  180.0000771  15.1670000  2
    385    386    387    394     1  180.0000771  15.1670000  2
    385    390    392    394     1  180.0000771  15.1670000  2
    384    383    385    386     1  180.0000771  2.4267200  2
    384    383    385    390     1  180.0000771  2.4267200  2
    383    385    386    387     1  180.0000771  15.1670000  2
    383    385    390    392     1  180.0000771  15.1670000  2
    382    383    385    386     1  180.0000771  4.1840000  2
    382    383    385    390     1  180.0000771  4.1840000  2
    379    382    383    384     1  180.0000771  5.8576000  1
    379    382    383    384     1  180.0000771  11.2968000  2
    379    382    383    385     1  180.0000771  6.6944000  1
    379    382    383    385     1  180.0000771  15.3552800  2
    379    382    383    385     1  0.0000000  1.2970400  3
    432    435    438    439     1  180.0000771  3.3472000  1
    432    435    438    439     1  0.0000000  1.6024720  3
    429    432    435    438     1  0.0000000  0.6508444  3
    426    429    432    435     1  0.0000000  2.1756800  3
    425    426    429    432     1  0.0000000  0.6508444  3
    424    423    425    426     1  180.0000771  5.8576000  1
    424    423    425    426     1  180.0000771  11.2968000  2
    423    425    426    429     1  180.0000771  3.3472000  1
    423    425    426    429     1  0.0000000  1.6024720  3
    422    423    425    426     1  180.0000771  6.6944000  1
    422    423    425    426     1  180.0000771  15.3552800  2
    422    423    425    426     1  0.0000000  1.2970400  3
    420    422    423    424     1  180.0000771  2.4267200  2
    420    422    423    425     1  180.0000771  4.1840000  2
    418    420    422    423     1  180.0000771  15.1670000  2
    415    414    413    418     1  180.0000771  15.1670000  2
    415    422    420    418     1  180.0000771  15.1670000  2
    415    422    423    424     1  180.0000771  2.4267200  2
    415    422    423    425     1  180.0000771  4.1840000  2
    414    413    418    420     1  180.0000771  15.1670000  2
    414    415    422    420     1  180.0000771  15.1670000  2
    414    415    422    423     1  180.0000771  15.1670000  2
    413    414    415    422     1  180.0000771  15.1670000  2
    413    418    420    422     1  180.0000771  15.1670000  2
    412    411    413    414     1  180.0000771  2.4267200  2
    412    411    413    418     1  180.0000771  2.4267200  2
    411    413    414    415     1  180.0000771  15.1670000  2
    411    413    418    420     1  180.0000771  15.1670000  2
    410    411    413    414     1  180.0000771  4.1840000  2
    410    411    413    418     1  180.0000771  4.1840000  2
    407    410    411    412     1  180.0000771  5.8576000  1
    407    410    411    412     1  180.0000771  11.2968000  2
    407    410    411    413     1  180.0000771  6.6944000  1
    407    410    411    413     1  180.0000771  15.3552800  2
    407    410    411    413     1  0.0000000  1.2970400  3
    460    463    466    467     1  180.0000771  3.3472000  1
    460    463    466    467     1  0.0000000  1.6024720  3
    457    460    463    466     1  0.0000000  0.6508444  3
    454    457    460    463     1  0.0000000  2.1756800  3
    453    454    457    460     1  0.0000000  0.6508444  3
    452    451    453    454     1  180.0000771  5.8576000  1
    452    451    453    454     1  180.0000771  11.2968000  2
    451    453    454    457     1  180.0000771  3.3472000  1
    451    453    454    457     1  0.0000000  1.6024720  3
    450    451    453    454     1  180.0000771  6.6944000  1
    450    451    453    454     1  180.0000771  15.3552800  2
    450    451    453    454     1  0.0000000  1.2970400  3
    448    450    451    452     1  180.0000771  2.4267200  2
    448    450    451    453     1  180.0000771  4.1840000  2
    446    448    450    451     1  180.0000771  15.1670000  2
    443    442    441    446     1  180.0000771  15.1670000  2
    443    450    448    446     1  180.0000771  15.1670000  2
    443    450    451    452     1  180.0000771  2.4267200  2
    443    450    451    453     1  180.0000771  4.1840000  2
    442    441    446    448     1  180.0000771  15.1670000  2
    442    443    450    448     1  180.0000771  15.1670000  2
    442    443    450    451     1  180.0000771  15.1670000  2
    441    442    443    450     1  180.0000771  15.1670000  2
    441    446    448    450     1  180.0000771  15.1670000  2
    440    439    441    442     1  180.0000771  2.4267200  2
    440    439    441    446     1  180.0000771  2.4267200  2
    439    441    442    443     1  180.0000771  15.1670000  2
    439    441    446    448     1  180.0000771  15.1670000  2
    438    439    441    442     1  180.0000771  4.1840000  2
    438    439    441    446     1  180.0000771  4.1840000  2
    435    438    439    440     1  180.0000771  5.8576000  1
    435    438    439    440     1  180.0000771  11.2968000  2
    435    438    439    441     1  180.0000771  6.6944000  1
    435    438    439    441     1  180.0000771  15.3552800  2
    435    438    439    441     1  0.0000000  1.2970400  3
    488    491    494    495     1  180.0000771  3.3472000  1
    488    491    494    495     1  0.0000000  1.6024720  3
    485    488    491    494     1  0.0000000  0.6508444  3
    482    485    488    491     1  0.0000000  2.1756800  3
    481    482    485    488     1  0.0000000  0.6508444  3
    480    479    481    482     1  180.0000771  5.8576000  1
    480    479    481    482     1  180.0000771  11.2968000  2
    479    481    482    485     1  180.0000771  3.3472000  1
    479    481    482    485     1  0.0000000  1.6024720  3
    478    479    481    482     1  180.0000771  6.6944000  1
    478    479    481    482     1  180.0000771  15.3552800  2
    478    479    481    482     1  0.0000000  1.2970400  3
    476    478    479    480     1  180.0000771  2.4267200  2
    476    478    479    481     1  180.0000771  4.1840000  2
    474    476    478    479     1  180.0000771  15.1670000  2
    471    470    469    474     1  180.0000771  15.1670000  2
    471    478    476    474     1  180.0000771  15.1670000  2
    471    478    479    480     1  180.0000771  2.4267200  2
    471    478    479    481     1  180.0000771  4.1840000  2
    470    469    474    476     1  180.0000771  15.1670000  2
    470    471    478    476     1  180.0000771  15.1670000  2
    470    471    478    479     1  180.0000771  15.1670000  2
    469    470    471    478     1  180.0000771  15.1670000  2
    469    474    476    478     1  180.0000771  15.1670000  2
    468    467    469    470     1  180.0000771  2.4267200  2
    468    467    469    474     1  180.0000771  2.4267200  2
    467    469    470    471     1  180.0000771  15.1670000  2
    467    469    474    476     1  180.0000771  15.1670000  2
    466    467    469    470     1  180.0000771  4.1840000  2
    466    467    469    474     1  180.0000771  4.1840000  2
    463    466    467    468     1  180.0000771  5.8576000  1
    463    466    467    468     1  180.0000771  11.2968000  2
    463    466    467    469     1  180.0000771  6.6944000  1
    463    466    467    469     1  180.0000771  15.3552800  2
    463    466    467    469     1  0.0000000  1.2970400  3
    516    519    522    523     1  180.0000771  3.3472000  1
    516    519    522    523     1  0.0000000  1.6024720  3
    513    516    519    522     1  0.0000000  0.6508444  3
    510    513    516    519     1  0.0000000  2.1756800  3
    509    510    513    516     1  0.0000000  0.6508444  3
    508    507    509    510     1  180.0000771  5.8576000  1
    508    507    509    510     1  180.0000771  11.2968000  2
    507    509    510    513     1  180.0000771  3.3472000  1
    507    509    510    513     1  0.0000000  1.6024720  3
    506    507    509    510     1  180.0000771  6.6944000  1
    506    507    509    510     1  180.0000771  15.3552800  2
    506    507    509    510     1  0.0000000  1.2970400  3
    504    506    507    508     1  180.0000771  2.4267200  2
    504    506    507    509     1  180.0000771  4.1840000  2
    502    504    506    507     1  180.0000771  15.1670000  2
    499    498    497    502     1  180.0000771  15.1670000  2
    499    506    504    502     1  180.0000771  15.1670000  2
    499    506    507    508     1  180.0000771  2.4267200  2
    499    506    507    509     1  180.0000771  4.1840000  2
    498    497    502    504     1  180.0000771  15.1670000  2
    498    499    506    504     1  180.0000771  15.1670000  2
    498    499    506    507     1  180.0000771  15.1670000  2
    497    498    499    506     1  180.0000771  15.1670000  2
    497    502    504    506     1  180.0000771  15.1670000  2
    496    495    497    498     1  180.0000771  2.4267200  2
    496    495    497    502     1  180.0000771  2.4267200  2
    495    497    498    499     1  180.0000771  15.1670000  2
    495    497    502    504     1  180.0000771  15.1670000  2
    494    495    497    498     1  180.0000771  4.1840000  2
    494    495    497    502     1  180.0000771  4.1840000  2
    491    494    495    496     1  180.0000771  5.8576000  1
    491    494    495    496     1  180.0000771  11.2968000  2
    491    494    495    497     1  180.0000771  6.6944000  1
    491    494    495    497     1  180.0000771  15.3552800  2
    491    494    495    497     1  0.0000000  1.2970400  3
    544    547    550    551     1  180.0000771  3.3472000  1
    544    547    550    551     1  0.0000000  1.6024720  3
    541    544    547    550     1  0.0000000  0.6508444  3
    538    541    544    547     1  0.0000000  2.1756800  3
    537    538    541    544     1  0.0000000  0.6508444  3
    536    535    537    538     1  180.0000771  5.8576000  1
    536    535    537    538     1  180.0000771  11.2968000  2
    535    537    538    541     1  180.0000771  3.3472000  1
    535    537    538    541     1  0.0000000  1.6024720  3
    534    535    537    538     1  180.0000771  6.6944000  1
    534    535    537    538     1  180.0000771  15.3552800  2
    534    535    537    538     1  0.0000000  1.2970400  3
    532    534    535    536     1  180.0000771  2.4267200  2
    532    534    535    537     1  180.0000771  4.1840000  2
    530    532    534    535     1  180.0000771  15.1670000  2
    527    526    525    530     1  180.0000771  15.1670000  2
    527    534    532    530     1  180.0000771  15.1670000  2
    527    534    535    536     1  180.0000771  2.4267200  2
    527    534    535    537     1  180.0000771  4.1840000  2
    526    525    530    532     1  180.0000771  15.1670000  2
    526    527    534    532     1  180.0000771  15.1670000  2
    526    527    534    535     1  180.0000771  15.1670000  2
    525    526    527    534     1  180.0000771  15.1670000  2
    525    530    532    534     1  180.0000771  15.1670000  2
    524    523    525    526     1  180.0000771  2.4267200  2
    524    523    525    530     1  180.0000771  2.4267200  2
    523    525    526    527     1  180.0000771  15.1670000  2
    523    525    530    532     1  180.0000771  15.1670000  2
    522    523    525    526     1  180.0000771  4.1840000  2
    522    523    525    530     1  180.0000771  4.1840000  2
    519    522    523    524     1  180.0000771  5.8576000  1
    519    522    523    524     1  180.0000771  11.2968000  2
    519    522    523    525     1  180.0000771  6.6944000  1
    519    522    523    525     1  180.0000771  15.3552800  2
    519    522    523    525     1  0.0000000  1.2970400  3
    572    575    578    579     1  180.0000771  3.3472000  1
    572    575    578    579     1  0.0000000  1.6024720  3
    569    572    575    578     1  0.0000000  0.6508444  3
    566    569    572    575     1  0.0000000  2.1756800  3
    565    566    569    572     1  0.0000000  0.6508444  3
    564    563    565    566     1  180.0000771  5.8576000  1
    564    563    565    566     1  180.0000771  11.2968000  2
    563    565    566    569     1  180.0000771  3.3472000  1
    563    565    566    569     1  0.0000000  1.6024720  3
    562    563    565    566     1  180.0000771  6.6944000  1
    562    563    565    566     1  180.0000771  15.3552800  2
    562    563    565    566     1  0.0000000  1.2970400  3
    560    562    563    564     1  180.0000771  2.4267200  2
    560    562    563    565     1  180.0000771  4.1840000  2
    558    560    562    563     1  180.0000771  15.1670000  2
    555    554    553    558     1  180.0000771  15.1670000  2
    555    562    560    558     1  180.0000771  15.1670000  2
    555    562    563    564     1  180.0000771  2.4267200  2
    555    562    563    565     1  180.0000771  4.1840000  2
    554    553    558    560     1  180.0000771  15.1670000  2
    554    555    562    560     1  180.0000771  15.1670000  2
    554    555    562    563     1  180.0000771  15.1670000  2
    553    554    555    562     1  180.0000771  15.1670000  2
    553    558    560    562     1  180.0000771  15.1670000  2
    552    551    553    554     1  180.0000771  2.4267200  2
    552    551    553    558     1  180.0000771  2.4267200  2
    551    553    554    555     1  180.0000771  15.1670000  2
    551    553    558    560     1  180.0000771  15.1670000  2
    550    551    553    554     1  180.0000771  4.1840000  2
    550    551    553    558     1  180.0000771  4.1840000  2
    547    550    551    552     1  180.0000771  5.8576000  1
    547    550    551    552     1  180.0000771  11.2968000  2
    547    550    551    553     1  180.0000771  6.6944000  1
    547    550    551    553     1  180.0000771  15.3552800  2
    547    550    551    553     1  0.0000000  1.2970400  3
    600    603    606    607     1  180.0000771  3.3472000  1
    600    603    606    607     1  0.0000000  1.6024720  3
    597    600    603    606     1  0.0000000  0.6508444  3
    594    597    600    603     1  0.0000000  2.1756800  3
    593    594    597    600     1  0.0000000  0.6508444  3
    592    591    593    594     1  180.0000771  5.8576000  1
    592    591    593    594     1  180.0000771  11.2968000  2
    591    593    594    597     1  180.0000771  3.3472000  1
    591    593    594    597     1  0.0000000  1.6024720  3
    590    591    593    594     1  180.0000771  6.6944000  1
    590    591    593    594     1  180.0000771  15.3552800  2
    590    591    593    594     1  0.0000000  1.2970400  3
    588    590    591    592     1  180.0000771  2.4267200  2
    588    590    591    593     1  180.0000771  4.1840000  2
    586    588    590    591     1  180.0000771  15.1670000  2
    583    582    581    586     1  180.0000771  15.1670000  2
    583    590    588    586     1  180.0000771  15.1670000  2
    583    590    591    592     1  180.0000771  2.4267200  2
    583    590    591    593     1  180.0000771  4.1840000  2
    582    581    586    588     1  180.0000771  15.1670000  2
    582    583    590    588     1  180.0000771  15.1670000  2
    582    583    590    591     1  180.0000771  15.1670000  2
    581    582    583    590     1  180.0000771  15.1670000  2
    581    586    588    590     1  180.0000771  15.1670000  2
    580    579    581    582     1  180.0000771  2.4267200  2
    580    579    581    586     1  180.0000771  2.4267200  2
    579    581    582    583     1  180.0000771  15.1670000  2
    579    581    586    588     1  180.0000771  15.1670000  2
    578    579    581    582     1  180.0000771  4.1840000  2
    578    579    581    586     1  180.0000771  4.1840000  2
    575    578    579    580     1  180.0000771  5.8576000  1
    575    578    579    580     1  180.0000771  11.2968000  2
    575    578    579    581     1  180.0000771  6.6944000  1
    575    578    579    581     1  180.0000771  15.3552800  2
    575    578    579    581     1  0.0000000  1.2970400  3
    628    631    634    635     1  180.0000771  3.3472000  1
    628    631    634    635     1  0.0000000  1.6024720  3
    625    628    631    634     1  0.0000000  0.6508444  3
    622    625    628    631     1  0.0000000  2.1756800  3
    621    622    625    628     1  0.0000000  0.6508444  3
    620    619    621    622     1  180.0000771  5.8576000  1
    620    619    621    622     1  180.0000771  11.2968000  2
    619    621    622    625     1  180.0000771  3.3472000  1
    619    621    622    625     1  0.0000000  1.6024720  3
    618    619    621    622     1  180.0000771  6.6944000  1
    618    619    621    622     1  180.0000771  15.3552800  2
    618    619    621    622     1  0.0000000  1.2970400  3
    616    618    619    620     1  180.0000771  2.4267200  2
    616    618    619    621     1  180.0000771  4.1840000  2
    614    616    618    619     1  180.0000771  15.1670000  2
    611    610    609    614     1  180.0000771  15.1670000  2
    611    618    616    614     1  180.0000771  15.1670000  2
    611    618    619    620     1  180.0000771  2.4267200  2
    611    618    619    621     1  180.0000771  4.1840000  2
    610    609    614    616     1  180.0000771  15.1670000  2
    610    611    618    616     1  180.0000771  15.1670000  2
    610    611    618    619     1  180.0000771  15.1670000  2
    609    610    611    618     1  180.0000771  15.1670000  2
    609    614    616    618     1  180.0000771  15.1670000  2
    608    607    609    610     1  180.0000771  2.4267200  2
    608    607    609    614     1  180.0000771  2.4267200  2
    607    609    610    611     1  180.0000771  15.1670000  2
    607    609    614    616     1  180.0000771  15.1670000  2
    606    607    609    610     1  180.0000771  4.1840000  2
    606    607    609    614     1  180.0000771  4.1840000  2
    603    606    607    608     1  180.0000771  5.8576000  1
    603    606    607    608     1  180.0000771  11.2968000  2
    603    606    607    609     1  180.0000771  6.6944000  1
    603    606    607    609     1  180.0000771  15.3552800  2
    603    606    607    609     1  0.0000000  1.2970400  3
    656    659    662    663     1  180.0000771  3.3472000  1
    656    659    662    663     1  0.0000000  1.6024720  3
    653    656    659    662     1  0.0000000  0.6508444  3
    650    653    656    659     1  0.0000000  2.1756800  3
    649    650    653    656     1  0.0000000  0.6508444  3
    648    647    649    650     1  180.0000771  5.8576000  1
    648    647    649    650     1  180.0000771  11.2968000  2
    647    649    650    653     1  180.0000771  3.3472000  1
    647    649    650    653     1  0.0000000  1.6024720  3
    646    647    649    650     1  180.0000771  6.6944000  1
    646    647    649    650     1  180.0000771  15.3552800  2
    646    647    649    650     1  0.0000000  1.2970400  3
    644    646    647    648     1  180.0000771  2.4267200  2
    644    646    647    649     1  180.0000771  4.1840000  2
    642    644    646    647     1  180.0000771  15.1670000  2
    639    638    637    642     1  180.0000771  15.1670000  2
    639    646    644    642     1  180.0000771  15.1670000  2
    639    646    647    648     1  180.0000771  2.4267200  2
    639    646    647    649     1  180.0000771  4.1840000  2
    638    637    642    644     1  180.0000771  15.1670000  2
    638    639    646    644     1  180.0000771  15.1670000  2
    638    639    646    647     1  180.0000771  15.1670000  2
    637    638    639    646     1  180.0000771  15.1670000  2
    637    642    644    646     1  180.0000771  15.1670000  2
    636    635    637    638     1  180.0000771  2.4267200  2
    636    635    637    642     1  180.0000771  2.4267200  2
    635    637    638    639     1  180.0000771  15.1670000  2
    635    637    642    644     1  180.0000771  15.1670000  2
    634    635    637    638     1  180.0000771  4.1840000  2
    634    635    637    642     1  180.0000771  4.1840000  2
    631    634    635    636     1  180.0000771  5.8576000  1
    631    634    635    636     1  180.0000771  11.2968000  2
    631    634    635    637     1  180.0000771  6.6944000  1
    631    634    635    637     1  180.0000771  15.3552800  2
    631    634    635    637     1  0.0000000  1.2970400  3
    684    687    690    691     1  180.0000771  3.6819200  1
    684    687    690    691     1  0.0000000  0.3347200  2
    684    687    690    691     1  0.0000000  3.1380000  3
    681    684    687    690     1  0.0000000  0.6508444  3
    678    681    684    687     1  0.0000000  2.1756800  3
    677    678    681    684     1  0.0000000  0.6508444  3
    676    675    677    678     1  180.0000771  5.8576000  1
    676    675    677    678     1  180.0000771  11.2968000  2
    675    677    678    681     1  180.0000771  3.3472000  1
    675    677    678    681     1  0.0000000  1.6024720  3
    674    675    677    678     1  180.0000771  6.6944000  1
    674    675    677    678     1  180.0000771  15.3552800  2
    674    675    677    678     1  0.0000000  1.2970400  3
    672    674    675    676     1  180.0000771  2.4267200  2
    672    674    675    677     1  180.0000771  4.1840000  2
    670    672    674    675     1  180.0000771  15.1670000  2
    667    666    665    670     1  180.0000771  15.1670000  2
    667    674    672    670     1  180.0000771  15.1670000  2
    667    674    675    676     1  180.0000771  2.4267200  2
    667    674    675    677     1  180.0000771  4.1840000  2
    666    665    670    672     1  180.0000771  15.1670000  2
    666    667    674    672     1  180.0000771  15.1670000  2
    666    667    674    675     1  180.0000771  15.1670000  2
    665    666    667    674     1  180.0000771  15.1670000  2
    665    670    672    674     1  180.0000771  15.1670000  2
    664    663    665    666     1  180.0000771  2.4267200  2
    664    663    665    670     1  180.0000771  2.4267200  2
    663    665    666    667     1  180.0000771  15.1670000  2
    663    665    670    672     1  180.0000771  15.1670000  2
    662    663    665    666     1  180.0000771  4.1840000  2
    662    663    665    670     1  180.0000771  4.1840000  2
    659    662    663    664     1  180.0000771  5.8576000  1
    659    662    663    664     1  180.0000771  11.2968000  2
    659    662    663    665     1  180.0000771  6.6944000  1
    659    662    663    665     1  180.0000771  15.3552800  2
    659    662    663    665     1  0.0000000  1.2970400  3
    719    722    725    726     1  180.0000771  3.3472000  1
    719    722    725    726     1  0.0000000  1.6024720  3
    718    719    722    725     1  0.0000000  0.7531200  1
    718    719    722    725     1  0.0000000  3.7656000  2
    718    719    722    725     1  0.0000000  2.0920000  3
    715    718    719    722     1  180.0000771  3.6819200  1
    715    718    719    722     1  0.0000000  0.3347200  2
    715    718    719    722     1  0.0000000  3.1380000  3
    712    715    718    719     1  180.0000771  3.6819200  1
    712    715    718    719     1  0.0000000  0.3347200  2
    712    715    718    719     1  0.0000000  3.1380000  3
    711    712    715    718     1  0.0000000  0.7531200  1
    711    712    715    718     1  0.0000000  3.7656000  2
    711    712    715    718     1  0.0000000  2.0920000  3
    708    711    712    715     1  180.0000771  3.6819200  1
    708    711    712    715     1  0.0000000  0.3347200  2
    708    711    712    715     1  0.0000000  3.1380000  3
    705    708    711    712     1  180.0000771  3.6819200  1
    705    708    711    712     1  0.0000000  0.3347200  2
    705    708    711    712     1  0.0000000  3.1380000  3
    704    705    708    711     1  0.0000000  0.7531200  1
    704    705    708    711     1  0.0000000  3.7656000  2
    704    705    708    711     1  0.0000000  2.0920000  3
    701    704    705    708     1  180.0000771  3.6819200  1
    701    704    705    708     1  0.0000000  0.3347200  2
    701    704    705    708     1  0.0000000  3.1380000  3
    698    701    704    705     1  180.0000771  3.6819200  1
    698    701    704    705     1  0.0000000  0.3347200  2
    698    701    704    705     1  0.0000000  3.1380000  3
    697    698    701    704     1  0.0000000  0.7531200  1
    697    698    701    704     1  0.0000000  3.7656000  2
    697    698    701    704     1  0.0000000  2.0920000  3
    694    697    698    701     1  180.0000771  3.6819200  1
    694    697    698    701     1  0.0000000  0.3347200  2
    694    697    698    701     1  0.0000000  3.1380000  3
    691    694    697    698     1  180.0000771  3.6819200  1
    691    694    697    698     1  0.0000000  0.3347200  2
    691    694    697    698     1  0.0000000  3.1380000  3
    690    691    694    697     1  0.0000000  0.7531200  1
    690    691    694    697     1  0.0000000  3.7656000  2
    690    691    694    697     1  0.0000000  2.0920000  3
    687    690    691    694     1  180.0000771  3.6819200  1
    687    690    691    694     1  0.0000000  0.3347200  2
    687    690    691    694     1  0.0000000  3.1380000  3
    747    750    753    754     1  180.0000771  3.3472000  1
    747    750    753    754     1  0.0000000  1.6024720  3
    744    747    750    753     1  0.0000000  0.6508444  3
    741    744    747    750     1  0.0000000  2.1756800  3
    740    741    744    747     1  0.0000000  0.6508444  3
    739    738    740    741     1  180.0000771  5.8576000  1
    739    738    740    741     1  180.0000771  11.2968000  2
    738    740    741    744     1  180.0000771  3.3472000  1
    738    740    741    744     1  0.0000000  1.6024720  3
    737    738    740    741     1  180.0000771  6.6944000  1
    737    738    740    741     1  180.0000771  15.3552800  2
    737    738    740    741     1  0.0000000  1.2970400  3
    735    737    738    739     1  180.0000771  2.4267200  2
    735    737    738    740     1  180.0000771  4.1840000  2
    733    735    737    738     1  180.0000771  15.1670000  2
    730    729    728    733     1  180.0000771  15.1670000  2
    730    737    735    733     1  180.0000771  15.1670000  2
    730    737    738    739     1  180.0000771  2.4267200  2
    730    737    738    740     1  180.0000771  4.1840000  2
    729    728    733    735     1  180.0000771  15.1670000  2
    729    730    737    735     1  180.0000771  15.1670000  2
    729    730    737    738     1  180.0000771  15.1670000  2
    728    729    730    737     1  180.0000771  15.1670000  2
    728    733    735    737     1  180.0000771  15.1670000  2
    727    726    728    729     1  180.0000771  2.4267200  2
    727    726    728    733     1  180.0000771  2.4267200  2
    726    728    729    730     1  180.0000771  15.1670000  2
    726    728    733    735     1  180.0000771  15.1670000  2
    725    726    728    729     1  180.0000771  4.1840000  2
    725    726    728    733     1  180.0000771  4.1840000  2
    722    725    726    727     1  180.0000771  5.8576000  1
    722    725    726    727     1  180.0000771  11.2968000  2
    722    725    726    728     1  180.0000771  6.6944000  1
    722    725    726    728     1  180.0000771  15.3552800  2
    722    725    726    728     1  0.0000000  1.2970400  3
    775    778    781    782     1  180.0000771  3.6819200  1
    775    778    781    782     1  0.0000000  0.3347200  2
    775    778    781    782     1  0.0000000  3.1380000  3
    772    775    778    781     1  0.0000000  0.6508444  3
    769    772    775    778     1  0.0000000  2.1756800  3
    768    769    772    775     1  0.0000000  0.6508444  3
    767    766    768    769     1  180.0000771  5.8576000  1
    767    766    768    769     1  180.0000771  11.2968000  2
    766    768    769    772     1  180.0000771  3.3472000  1
    766    768    769    772     1  0.0000000  1.6024720  3
    765    766    768    769     1  180.0000771  6.6944000  1
    765    766    768    769     1  180.0000771  15.3552800  2
    765    766    768    769     1  0.0000000  1.2970400  3
    763    765    766    767     1  180.0000771  2.4267200  2
    763    765    766    768     1  180.0000771  4.1840000  2
    761    763    765    766     1  180.0000771  15.1670000  2
    758    757    756    761     1  180.0000771  15.1670000  2
    758    765    763    761     1  180.0000771  15.1670000  2
    758    765    766    767     1  180.0000771  2.4267200  2
    758    765    766    768     1  180.0000771  4.1840000  2
    757    756    761    763     1  180.0000771  15.1670000  2
    757    758    765    763     1  180.0000771  15.1670000  2
    757    758    765    766     1  180.0000771  15.1670000  2
    756    757    758    765     1  180.0000771  15.1670000  2
    756    761    763    765     1  180.0000771  15.1670000  2
    755    754    756    757     1  180.0000771  2.4267200  2
    755    754    756    761     1  180.0000771  2.4267200  2
    754    756    757    758     1  180.0000771  15.1670000  2
    754    756    761    763     1  180.0000771  15.1670000  2
    753    754    756    757     1  180.0000771  4.1840000  2
    753    754    756    761     1  180.0000771  4.1840000  2
    750    753    754    755     1  180.0000771  5.8576000  1
    750    753    754    755     1  180.0000771  11.2968000  2
    750    753    754    756     1  180.0000771  6.6944000  1
    750    753    754    756     1  180.0000771  15.3552800  2
    750    753    754    756     1  0.0000000  1.2970400  3
    810    813    816    817     1  180.0000771  3.6819200  1
    810    813    816    817     1  0.0000000  0.3347200  2
    810    813    816    817     1  0.0000000  3.1380000  3
    809    810    813    816     1  0.0000000  0.7531200  1
    809    810    813    816     1  0.0000000  3.7656000  2
    809    810    813    816     1  0.0000000  2.0920000  3
    806    809    810    813     1  180.0000771  3.6819200  1
    806    809    810    813     1  0.0000000  0.3347200  2
    806    809    810    813     1  0.0000000  3.1380000  3
    803    806    809    810     1  180.0000771  3.6819200  1
    803    806    809    810     1  0.0000000  0.3347200  2
    803    806    809    810     1  0.0000000  3.1380000  3
    802    803    806    809     1  0.0000000  0.7531200  1
    802    803    806    809     1  0.0000000  3.7656000  2
    802    803    806    809     1  0.0000000  2.0920000  3
    799    802    803    806     1  180.0000771  3.6819200  1
    799    802    803    806     1  0.0000000  0.3347200  2
    799    802    803    806     1  0.0000000  3.1380000  3
    796    799    802    803     1  180.0000771  3.6819200  1
    796    799    802    803     1  0.0000000  0.3347200  2
    796    799    802    803     1  0.0000000  3.1380000  3
    795    796    799    802     1  0.0000000  0.7531200  1
    795    796    799    802     1  0.0000000  3.7656000  2
    795    796    799    802     1  0.0000000  2.0920000  3
    792    795    796    799     1  180.0000771  3.6819200  1
    792    795    796    799     1  0.0000000  0.3347200  2
    792    795    796    799     1  0.0000000  3.1380000  3
    789    792    795    796     1  180.0000771  3.6819200  1
    789    792    795    796     1  0.0000000  0.3347200  2
    789    792    795    796     1  0.0000000  3.1380000  3
    788    789    792    795     1  0.0000000  0.7531200  1
    788    789    792    795     1  0.0000000  3.7656000  2
    788    789    792    795     1  0.0000000  2.0920000  3
    785    788    789    792     1  180.0000771  3.6819200  1
    785    788    789    792     1  0.0000000  0.3347200  2
    785    788    789    792     1  0.0000000  3.1380000  3
    782    785    788    789     1  180.0000771  3.6819200  1
    782    785    788    789     1  0.0000000  0.3347200  2
    782    785    788    789     1  0.0000000  3.1380000  3
    781    782    785    788     1  0.0000000  0.7531200  1
    781    782    785    788     1  0.0000000  3.7656000  2
    781    782    785    788     1  0.0000000  2.0920000  3
    778    781    782    785     1  180.0000771  3.6819200  1
    778    781    782    785     1  0.0000000  0.3347200  2
    778    781    782    785     1  0.0000000  3.1380000  3
    845    848    851    852     1  180.0000771  3.3472000  1
    845    848    851    852     1  0.0000000  1.6024720  3
    844    845    848    851     1  0.0000000  0.7531200  1
    844    845    848    851     1  0.0000000  3.7656000  2
    844    845    848    851     1  0.0000000  2.0920000  3
    841    844    845    848     1  180.0000771  3.6819200  1
    841    844    845    848     1  0.0000000  0.3347200  2
    841    844    845    848     1  0.0000000  3.1380000  3
    838    841    844    845     1  180.0000771  3.6819200  1
    838    841    844    845     1  0.0000000  0.3347200  2
    838    841    844    845     1  0.0000000  3.1380000  3
    837    838    841    844     1  0.0000000  0.7531200  1
    837    838    841    844     1  0.0000000  3.7656000  2
    837    838    841    844     1  0.0000000  2.0920000  3
    834    837    838    841     1  180.0000771  3.6819200  1
    834    837    838    841     1  0.0000000  0.3347200  2
    834    837    838    841     1  0.0000000  3.1380000  3
    831    834    837    838     1  180.0000771  3.6819200  1
    831    834    837    838     1  0.0000000  0.3347200  2
    831    834    837    838     1  0.0000000  3.1380000  3
    830    831    834    837     1  0.0000000  0.7531200  1
    830    831    834    837     1  0.0000000  3.7656000  2
    830    831    834    837     1  0.0000000  2.0920000  3
    827    830    831    834     1  180.0000771  3.6819200  1
    827    830    831    834     1  0.0000000  0.3347200  2
    827    830    831    834     1  0.0000000  3.1380000  3
    824    827    830    831     1  180.0000771  3.6819200  1
    824    827    830    831     1  0.0000000  0.3347200  2
    824    827    830    831     1  0.0000000  3.1380000  3
    823    824    827    830     1  0.0000000  0.7531200  1
    823    824    827    830     1  0.0000000  3.7656000  2
    823    824    827    830     1  0.0000000  2.0920000  3
    820    823    824    827     1  180.0000771  3.6819200  1
    820    823    824    827     1  0.0000000  0.3347200  2
    820    823    824    827     1  0.0000000  3.1380000  3
    817    820    823    824     1  180.0000771  3.6819200  1
    817    820    823    824     1  0.0000000  0.3347200  2
    817    820    823    824     1  0.0000000  3.1380000  3
    816    817    820    823     1  0.0000000  0.7531200  1
    816    817    820    823     1  0.0000000  3.7656000  2
    816    817    820    823     1  0.0000000  2.0920000  3
    813    816    817    820     1  180.0000771  3.6819200  1
    813    816    817    820     1  0.0000000  0.3347200  2
    813    816    817    820     1  0.0000000  3.1380000  3
    866    867    870    873     1  0.0000000  0.6508444  3
    865    864    866    867     1  180.0000771  5.8576000  1
    865    864    866    867     1  180.0000771  11.2968000  2
    864    866    867    870     1  180.0000771  3.3472000  1
    864    866    867    870     1  0.0000000  1.6024720  3
    863    864    866    867     1  180.0000771  6.6944000  1
    863    864    866    867     1  180.0000771  15.3552800  2
    863    864    866    867     1  0.0000000  1.2970400  3
    861    863    864    865     1  180.0000771  2.4267200  2
    861    863    864    866     1  180.0000771  4.1840000  2
    859    861    863    864     1  180.0000771  15.1670000  2
    856    855    854    859     1  180.0000771  15.1670000  2
    856    863    861    859     1  180.0000771  15.1670000  2
    856    863    864    865     1  180.0000771  2.4267200  2
    856    863    864    866     1  180.0000771  4.1840000  2
    855    854    859    861     1  180.0000771  15.1670000  2
    855    856    863    861     1  180.0000771  15.1670000  2
    855    856    863    864     1  180.0000771  15.1670000  2
    854    855    856    863     1  180.0000771  15.1670000  2
    854    859    861    863     1  180.0000771  15.1670000  2
    853    852    854    855     1  180.0000771  2.4267200  2
    853    852    854    859     1  180.0000771  2.4267200  2
    852    854    855    856     1  180.0000771  15.1670000  2
    852    854    859    861     1  180.0000771  15.1670000  2
    851    852    854    855     1  180.0000771  4.1840000  2
    851    852    854    859     1  180.0000771  4.1840000  2
    848    851    852    853     1  180.0000771  5.8576000  1
    848    851    852    853     1  180.0000771  11.2968000  2
    848    851    852    854     1  180.0000771  6.6944000  1
    848    851    852    854     1  180.0000771  15.3552800  2
    848    851    852    854     1  0.0000000  1.2970400  3
     16     19     17     18     4  180.0000771  43.9320000  2
      4      7      5      6     4  180.0000771  43.9320000  2
     79     82     80     81     4  180.0000771  43.9320000  2
     67     70     68     69     4  180.0000771  43.9320000  2
    107    110    108    109     4  180.0000771  43.9320000  2
     95     98     96     97     4  180.0000771  43.9320000  2
    135    138    136    137     4  180.0000771  43.9320000  2
    123    126    124    125     4  180.0000771  43.9320000  2
    198    201    199    200     4  180.0000771  43.9320000  2
    186    189    187    188     4  180.0000771  43.9320000  2
    226    229    227    228     4  180.0000771  43.9320000  2
    214    217    215    216     4  180.0000771  43.9320000  2
    254    257    255    256     4  180.0000771  43.9320000  2
    242    245    243    244     4  180.0000771  43.9320000  2
    282    285    283    284     4  180.0000771  43.9320000  2
    270    273    271    272     4  180.0000771  43.9320000  2
    310    313    311    312     4  180.0000771  43.9320000  2
    298    301    299    300     4  180.0000771  43.9320000  2
    338    341    339    340     4  180.0000771  43.9320000  2
    326    329    327    328     4  180.0000771  43.9320000  2
    366    369    367    368     4  180.0000771  43.9320000  2
    354    357    355    356     4  180.0000771  43.9320000  2
    394    397    395    396     4  180.0000771  43.9320000  2
    382    385    383    384     4  180.0000771  43.9320000  2
    422    425    423    424     4  180.0000771  43.9320000  2
    410    413    411    412     4  180.0000771  43.9320000  2
    450    453    451    452     4  180.0000771  43.9320000  2
    438    441    439    440     4  180.0000771  43.9320000  2
    478    481    479    480     4  180.0000771  43.9320000  2
    466    469    467    468     4  180.0000771  43.9320000  2
    506    509    507    508     4  180.0000771  43.9320000  2
    494    497    495    496     4  180.0000771  43.9320000  2
    534    537    535    536     4  180.0000771  43.9320000  2
    522    525    523    524     4  180.0000771  43.9320000  2
    562    565    563    564     4  180.0000771  43.9320000  2
    550    553    551    552     4  180.0000771  43.9320000  2
    590    593    591    592     4  180.0000771  43.9320000  2
    578    581    579    580     4  180.0000771  43.9320000  2
    618    621    619    620     4  180.0000771  43.9320000  2
    606    609    607    608     4  180.0000771  43.9320000  2
    646    649    647    648     4  180.0000771  43.9320000  2
    634    637    635    636     4  180.0000771  43.9320000  2
    674    677    675    676     4  180.0000771  43.9320000  2
    662    665    663    664     4  180.0000771  43.9320000  2
    737    740    738    739     4  180.0000771  43.9320000  2
    725    728    726    727     4  180.0000771  43.9320000  2
    765    768    766    767     4  180.0000771  43.9320000  2
    753    756    754    755     4  180.0000771  43.9320000  2
    863    866    864    865     4  180.0000771  43.9320000  2
    851    854    852    853     4  180.0000771  43.9320000  2
     28     26     29     30     1  0.0000000  0.6508444  3
     28     26     29     31     1  0.0000000  0.6508444  3
     28     26     29     32     1  0.0000000  1.0460000  1
     28     26     29     32     1  0.0000000  0.0000000  3
     27     26     29     30     1  0.0000000  0.6508444  3
     27     26     29     31     1  0.0000000  0.6508444  3
     27     26     29     32     1  0.0000000  1.0460000  1
     27     26     29     32     1  0.0000000  0.0000000  3
     25     23     26     27     1  0.0000000  0.5020800  3
     25     23     26     28     1  0.0000000  0.5020800  3
     25     23     26     29     1  0.0000000  0.5439200  3
     24     23     26     27     1  0.0000000  0.5020800  3
     24     23     26     28     1  0.0000000  0.5020800  3
     24     23     26     29     1  0.0000000  0.5439200  3
     23     26     29     30     1  0.0000000  0.6508444  3
     23     26     29     31     1  0.0000000  0.6508444  3
     22     20     23     24     1  0.0000000  0.6508444  3
     22     20     23     25     1  0.0000000  0.6508444  3
     22     20     23     26     1  0.0000000  0.6508444  3
     21     20     23     24     1  0.0000000  0.6508444  3
     21     20     23     25     1  0.0000000  0.6508444  3
     21     20     23     26     1  0.0000000  0.6508444  3
     20     23     26     27     1  0.0000000  0.5439200  3
     20     23     26     28     1  0.0000000  0.5439200  3
     19     20     23     24     1  0.0000000  1.0460000  1
     19     20     23     24     1  0.0000000  0.0000000  3
     19     20     23     25     1  0.0000000  1.0460000  1
     19     20     23     25     1  0.0000000  0.0000000  3
     17     19     20     21     1  0.0000000  1.6038667  3
     17     19     20     22     1  0.0000000  1.6038667  3
     15     14     16     17     1  180.0000771  15.1670000  2
     13     12     14     15     1  180.0000771  15.1670000  2
     13     12     14     16     1  180.0000771  15.1670000  2
     11      8      7     12     1  180.0000771  15.1670000  2
     11      8      9     16     1  180.0000771  15.1670000  2
     10      9      8     11     1  180.0000771  15.1670000  2
     10      9     16     14     1  180.0000771  15.1670000  2
     10      9     16     17     1  180.0000771  15.1670000  2
      9     16     14     15     1  180.0000771  15.1670000  2
      8      7     12     13     1  180.0000771  15.1670000  2
      7      8      9     10     1  180.0000771  15.1670000  2
      7     12     14     15     1  180.0000771  15.1670000  2
      5      7      8     11     1  180.0000771  15.1670000  2
      5      7     12     13     1  180.0000771  15.1670000  2
      3      1      4      5     1  0.0000000  1.6038667  3
      2      1      4      5     1  0.0000000  1.6038667  3
     63     61     64     65     1  0.0000000  0.6508444  3
     63     61     64     66     1  0.0000000  0.6508444  3
     63     61     64     67     1  0.0000000  1.0460000  1
     63     61     64     67     1  0.0000000  0.0000000  3
     62     61     64     65     1  0.0000000  0.6508444  3
     62     61     64     66     1  0.0000000  0.6508444  3
     62     61     64     67     1  0.0000000  1.0460000  1
     62     61     64     67     1  0.0000000  0.0000000  3
     60     61     64     65     1  0.0000000  1.0460000  1
     60     61     64     65     1  0.0000000  0.0000000  3
     60     61     64     66     1  0.0000000  1.0460000  1
     60     61     64     66     1  0.0000000  0.0000000  3
     59     57     60     61     1  0.0000000  1.4100080  3
     58     57     60     61     1  0.0000000  1.4100080  3
     57     60     61     62     1  0.0000000  1.4100080  3
     57     60     61     63     1  0.0000000  1.4100080  3
     56     54     57     58     1  0.0000000  0.6508444  3
     56     54     57     59     1  0.0000000  0.6508444  3
     56     54     57     60     1  0.0000000  1.0460000  1
     56     54     57     60     1  0.0000000  0.0000000  3
     55     54     57     58     1  0.0000000  0.6508444  3
     55     54     57     59     1  0.0000000  0.6508444  3
     55     54     57     60     1  0.0000000  1.0460000  1
     55     54     57     60     1  0.0000000  0.0000000  3
     53     54     57     58     1  0.0000000  1.0460000  1
     53     54     57     58     1  0.0000000  0.0000000  3
     53     54     57     59     1  0.0000000  1.0460000  1
     53     54     57     59     1  0.0000000  0.0000000  3
     52     50     53     54     1  0.0000000  1.4100080  3
     51     50     53     54     1  0.0000000  1.4100080  3
     50     53     54     55     1  0.0000000  1.4100080  3
     50     53     54     56     1  0.0000000  1.4100080  3
     49     47     50     51     1  0.0000000  0.6508444  3
     49     47     50     52     1  0.0000000  0.6508444  3
     49     47     50     53     1  0.0000000  1.0460000  1
     49     47     50     53     1  0.0000000  0.0000000  3
     48     47     50     51     1  0.0000000  0.6508444  3
     48     47     50     52     1  0.0000000  0.6508444  3
     48     47     50     53     1  0.0000000  1.0460000  1
     48     47     50     53     1  0.0000000  0.0000000  3
     46     47     50     51     1  0.0000000  1.0460000  1
     46     47     50     51     1  0.0000000  0.0000000  3
     46     47     50     52     1  0.0000000  1.0460000  1
     46     47     50     52     1  0.0000000  0.0000000  3
     45     43     46     47     1  0.0000000  1.4100080  3
     44     43     46     47     1  0.0000000  1.4100080  3
     43     46     47     48     1  0.0000000  1.4100080  3
     43     46     47     49     1  0.0000000  1.4100080  3
     42     40     43     44     1  0.0000000  0.6508444  3
     42     40     43     45     1  0.0000000  0.6508444  3
     42     40     43     46     1  0.0000000  1.0460000  1
     42     40     43     46     1  0.0000000  0.0000000  3
     41     40     43     44     1  0.0000000  0.6508444  3
     41     40     43     45     1  0.0000000  0.6508444  3
     41     40     43     46     1  0.0000000  1.0460000  1
     41     40     43     46     1  0.0000000  0.0000000  3
     39     40     43     44     1  0.0000000  1.0460000  1
     39     40     43     44     1  0.0000000  0.0000000  3
     39     40     43     45     1  0.0000000  1.0460000  1
     39     40     43     45     1  0.0000000  0.0000000  3
     38     36     39     40     1  0.0000000  1.4100080  3
     37     36     39     40     1  0.0000000  1.4100080  3
     36     39     40     41     1  0.0000000  1.4100080  3
     36     39     40     42     1  0.0000000  1.4100080  3
     35     33     36     37     1  0.0000000  0.6508444  3
     35     33     36     38     1  0.0000000  0.6508444  3
     35     33     36     39     1  0.0000000  1.0460000  1
     35     33     36     39     1  0.0000000  0.0000000  3
     34     33     36     37     1  0.0000000  0.6508444  3
     34     33     36     38     1  0.0000000  0.6508444  3
     34     33     36     39     1  0.0000000  1.0460000  1
     34     33     36     39     1  0.0000000  0.0000000  3
     32     33     36     37     1  0.0000000  1.0460000  1
     32     33     36     37     1  0.0000000  0.0000000  3
     32     33     36     38     1  0.0000000  1.0460000  1
     32     33     36     38     1  0.0000000  0.0000000  3
     31     29     32     33     1  0.0000000  1.4100080  3
     30     29     32     33     1  0.0000000  1.4100080  3
     29     32     33     34     1  0.0000000  1.4100080  3
     29     32     33     35     1  0.0000000  1.4100080  3
     91     89     92     93     1  0.0000000  0.6508444  3
     91     89     92     94     1  0.0000000  0.6508444  3
     91     89     92     95     1  0.0000000  1.0460000  1
     91     89     92     95     1  0.0000000  0.0000000  3
     90     89     92     93     1  0.0000000  0.6508444  3
     90     89     92     94     1  0.0000000  0.6508444  3
     90     89     92     95     1  0.0000000  1.0460000  1
     90     89     92     95     1  0.0000000  0.0000000  3
     88     86     89     90     1  0.0000000  0.5020800  3
     88     86     89     91     1  0.0000000  0.5020800  3
     88     86     89     92     1  0.0000000  0.5439200  3
     87     86     89     90     1  0.0000000  0.5020800  3
     87     86     89     91     1  0.0000000  0.5020800  3
     87     86     89     92     1  0.0000000  0.5439200  3
     86     89     92     93     1  0.0000000  0.6508444  3
     86     89     92     94     1  0.0000000  0.6508444  3
     85     83     86     87     1  0.0000000  0.6508444  3
     85     83     86     88     1  0.0000000  0.6508444  3
     85     83     86     89     1  0.0000000  0.6508444  3
     84     83     86     87     1  0.0000000  0.6508444  3
     84     83     86     88     1  0.0000000  0.6508444  3
     84     83     86     89     1  0.0000000  0.6508444  3
     83     86     89     90     1  0.0000000  0.5439200  3
     83     86     89     91     1  0.0000000  0.5439200  3
     82     83     86     87     1  0.0000000  1.0460000  1
     82     83     86     87     1  0.0000000  0.0000000  3
     82     83     86     88     1  0.0000000  1.0460000  1
     82     83     86     88     1  0.0000000  0.0000000  3
     80     82     83     84     1  0.0000000  1.6038667  3
     80     82     83     85     1  0.0000000  1.6038667  3
     78     77     79     80     1  180.0000771  15.1670000  2
     76     75     77     78     1  180.0000771  15.1670000  2
     76     75     77     79     1  180.0000771  15.1670000  2
     74     71     70     75     1  180.0000771  15.1670000  2
     74     71     72     79     1  180.0000771  15.1670000  2
     73     72     71     74     1  180.0000771  15.1670000  2
     73     72     79     77     1  180.0000771  15.1670000  2
     73     72     79     80     1  180.0000771  15.1670000  2
     72     79     77     78     1  180.0000771  15.1670000  2
     71     70     75     76     1  180.0000771  15.1670000  2
     70     71     72     73     1  180.0000771  15.1670000  2
     70     75     77     78     1  180.0000771  15.1670000  2
     68     70     71     74     1  180.0000771  15.1670000  2
     68     70     75     76     1  180.0000771  15.1670000  2
     66     64     67     68     1  0.0000000  1.6038667  3
     65     64     67     68     1  0.0000000  1.6038667  3
    119    117    120    121     1  0.0000000  0.6508444  3
    119    117    120    122     1  0.0000000  0.6508444  3
    119    117    120    123     1  0.0000000  1.0460000  1
    119    117    120    123     1  0.0000000  0.0000000  3
    118    117    120    121     1  0.0000000  0.6508444  3
    118    117    120    122     1  0.0000000  0.6508444  3
    118    117    120    123     1  0.0000000  1.0460000  1
    118    117    120    123     1  0.0000000  0.0000000  3
    116    114    117    118     1  0.0000000  0.5020800  3
    116    114    117    119     1  0.0000000  0.5020800  3
    116    114    117    120     1  0.0000000  0.5439200  3
    115    114    117    118     1  0.0000000  0.5020800  3
    115    114    117    119     1  0.0000000  0.5020800  3
    115    114    117    120     1  0.0000000  0.5439200  3
    114    117    120    121     1  0.0000000  0.6508444  3
    114    117    120    122     1  0.0000000  0.6508444  3
    113    111    114    115     1  0.0000000  0.6508444  3
    113    111    114    116     1  0.0000000  0.6508444  3
    113    111    114    117     1  0.0000000  0.6508444  3
    112    111    114    115     1  0.0000000  0.6508444  3
    112    111    114    116     1  0.0000000  0.6508444  3
    112    111    114    117     1  0.0000000  0.6508444  3
    111    114    117    118     1  0.0000000  0.5439200  3
    111    114    117    119     1  0.0000000  0.5439200  3
    110    111    114    115     1  0.0000000  1.0460000  1
    110    111    114    115     1  0.0000000  0.0000000  3
    110    111    114    116     1  0.0000000  1.0460000  1
    110    111    114    116     1  0.0000000  0.0000000  3
    108    110    111    112     1  0.0000000  1.6038667  3
    108    110    111    113     1  0.0000000  1.6038667  3
    106    105    107    108     1  180.0000771  15.1670000  2
    104    103    105    106     1  180.0000771  15.1670000  2
    104    103    105    107     1  180.0000771  15.1670000  2
    102     99     98    103     1  180.0000771  15.1670000  2
    102     99    100    107     1  180.0000771  15.1670000  2
    101    100     99    102     1  180.0000771  15.1670000  2
    101    100    107    105     1  180.0000771  15.1670000  2
    101    100    107    108     1  180.0000771  15.1670000  2
    100    107    105    106     1  180.0000771  15.1670000  2
     99     98    103    104     1  180.0000771  15.1670000  2
     98     99    100    101     1  180.0000771  15.1670000  2
     98    103    105    106     1  180.0000771  15.1670000  2
     96     98     99    102     1  180.0000771  15.1670000  2
     96     98    103    104     1  180.0000771  15.1670000  2
     94     92     95     96     1  0.0000000  1.6038667  3
     93     92     95     96     1  0.0000000  1.6038667  3
    147    145    148    149     1  0.0000000  0.6508444  3
    147    145    148    150     1  0.0000000  0.6508444  3
    147    145    148    151     1  0.0000000  1.0460000  1
    147    145    148    151     1  0.0000000  0.0000000  3
    146    145    148    149     1  0.0000000  0.6508444  3
    146    145    148    150     1  0.0000000  0.6508444  3
    146    145    148    151     1  0.0000000  1.0460000  1
    146    145    148    151     1  0.0000000  0.0000000  3
    144    142    145    146     1  0.0000000  0.5020800  3
    144    142    145    147     1  0.0000000  0.5020800  3
    144    142    145    148     1  0.0000000  0.5439200  3
    143    142    145    146     1  0.0000000  0.5020800  3
    143    142    145    147     1  0.0000000  0.5020800  3
    143    142    145    148     1  0.0000000  0.5439200  3
    142    145    148    149     1  0.0000000  0.6508444  3
    142    145    148    150     1  0.0000000  0.6508444  3
    141    139    142    143     1  0.0000000  0.6508444  3
    141    139    142    144     1  0.0000000  0.6508444  3
    141    139    142    145     1  0.0000000  0.6508444  3
    140    139    142    143     1  0.0000000  0.6508444  3
    140    139    142    144     1  0.0000000  0.6508444  3
    140    139    142    145     1  0.0000000  0.6508444  3
    139    142    145    146     1  0.0000000  0.5439200  3
    139    142    145    147     1  0.0000000  0.5439200  3
    138    139    142    143     1  0.0000000  1.0460000  1
    138    139    142    143     1  0.0000000  0.0000000  3
    138    139    142    144     1  0.0000000  1.0460000  1
    138    139    142    144     1  0.0000000  0.0000000  3
    136    138    139    140     1  0.0000000  1.6038667  3
    136    138    139    141     1  0.0000000  1.6038667  3
    134    133    135    136     1  180.0000771  15.1670000  2
    132    131    133    134     1  180.0000771  15.1670000  2
    132    131    133    135     1  180.0000771  15.1670000  2
    130    127    126    131     1  180.0000771  15.1670000  2
    130    127    128    135     1  180.0000771  15.1670000  2
    129    128    127    130     1  180.0000771  15.1670000  2
    129    128    135    133     1  180.0000771  15.1670000  2
    129    128    135    136     1  180.0000771  15.1670000  2
    128    135    133    134     1  180.0000771  15.1670000  2
    127    126    131    132     1  180.0000771  15.1670000  2
    126    127    128    129     1  180.0000771  15.1670000  2
    126    131    133    134     1  180.0000771  15.1670000  2
    124    126    127    130     1  180.0000771  15.1670000  2
    124    126    131    132     1  180.0000771  15.1670000  2
    122    120    123    124     1  0.0000000  1.6038667  3
    121    120    123    124     1  0.0000000  1.6038667  3
    182    180    183    184     1  0.0000000  0.6508444  3
    182    180    183    185     1  0.0000000  0.6508444  3
    182    180    183    186     1  0.0000000  1.0460000  1
    182    180    183    186     1  0.0000000  0.0000000  3
    181    180    183    184     1  0.0000000  0.6508444  3
    181    180    183    185     1  0.0000000  0.6508444  3
    181    180    183    186     1  0.0000000  1.0460000  1
    181    180    183    186     1  0.0000000  0.0000000  3
    179    180    183    184     1  0.0000000  1.0460000  1
    179    180    183    184     1  0.0000000  0.0000000  3
    179    180    183    185     1  0.0000000  1.0460000  1
    179    180    183    185     1  0.0000000  0.0000000  3
    178    176    179    180     1  0.0000000  1.4100080  3
    177    176    179    180     1  0.0000000  1.4100080  3
    176    179    180    181     1  0.0000000  1.4100080  3
    176    179    180    182     1  0.0000000  1.4100080  3
    175    173    176    177     1  0.0000000  0.6508444  3
    175    173    176    178     1  0.0000000  0.6508444  3
    175    173    176    179     1  0.0000000  1.0460000  1
    175    173    176    179     1  0.0000000  0.0000000  3
    174    173    176    177     1  0.0000000  0.6508444  3
    174    173    176    178     1  0.0000000  0.6508444  3
    174    173    176    179     1  0.0000000  1.0460000  1
    174    173    176    179     1  0.0000000  0.0000000  3
    172    173    176    177     1  0.0000000  1.0460000  1
    172    173    176    177     1  0.0000000  0.0000000  3
    172    173    176    178     1  0.0000000  1.0460000  1
    172    173    176    178     1  0.0000000  0.0000000  3
    171    169    172    173     1  0.0000000  1.4100080  3
    170    169    172    173     1  0.0000000  1.4100080  3
    169    172    173    174     1  0.0000000  1.4100080  3
    169    172    173    175     1  0.0000000  1.4100080  3
    168    166    169    170     1  0.0000000  0.6508444  3
    168    166    169    171     1  0.0000000  0.6508444  3
    168    166    169    172     1  0.0000000  1.0460000  1
    168    166    169    172     1  0.0000000  0.0000000  3
    167    166    169    170     1  0.0000000  0.6508444  3
    167    166    169    171     1  0.0000000  0.6508444  3
    167    166    169    172     1  0.0000000  1.0460000  1
    167    166    169    172     1  0.0000000  0.0000000  3
    165    166    169    170     1  0.0000000  1.0460000  1
    165    166    169    170     1  0.0000000  0.0000000  3
    165    166    169    171     1  0.0000000  1.0460000  1
    165    166    169    171     1  0.0000000  0.0000000  3
    164    162    165    166     1  0.0000000  1.4100080  3
    163    162    165    166     1  0.0000000  1.4100080  3
    162    165    166    167     1  0.0000000  1.4100080  3
    162    165    166    168     1  0.0000000  1.4100080  3
    161    159    162    163     1  0.0000000  0.6508444  3
    161    159    162    164     1  0.0000000  0.6508444  3
    161    159    162    165     1  0.0000000  1.0460000  1
    161    159    162    165     1  0.0000000  0.0000000  3
    160    159    162    163     1  0.0000000  0.6508444  3
    160    159    162    164     1  0.0000000  0.6508444  3
    160    159    162    165     1  0.0000000  1.0460000  1
    160    159    162    165     1  0.0000000  0.0000000  3
    158    159    162    163     1  0.0000000  1.0460000  1
    158    159    162    163     1  0.0000000  0.0000000  3
    158    159    162    164     1  0.0000000  1.0460000  1
    158    159    162    164     1  0.0000000  0.0000000  3
    157    155    158    159     1  0.0000000  1.4100080  3
    156    155    158    159     1  0.0000000  1.4100080  3
    155    158    159    160     1  0.0000000  1.4100080  3
    155    158    159    161     1  0.0000000  1.4100080  3
    154    152    155    156     1  0.0000000  0.6508444  3
    154    152    155    157     1  0.0000000  0.6508444  3
    154    152    155    158     1  0.0000000  1.0460000  1
    154    152    155    158     1  0.0000000  0.0000000  3
    153    152    155    156     1  0.0000000  0.6508444  3
    153    152    155    157     1  0.0000000  0.6508444  3
    153    152    155    158     1  0.0000000  1.0460000  1
    153    152    155    158     1  0.0000000  0.0000000  3
    151    152    155    156     1  0.0000000  1.0460000  1
    151    152    155    156     1  0.0000000  0.0000000  3
    151    152    155    157     1  0.0000000  1.0460000  1
    151    152    155    157     1  0.0000000  0.0000000  3
    150    148    151    152     1  0.0000000  1.4100080  3
    149    148    151    152     1  0.0000000  1.4100080  3
    148    151    152    153     1  0.0000000  1.4100080  3
    148    151    152    154     1  0.0000000  1.4100080  3
    210    208    211    212     1  0.0000000  0.6508444  3
    210    208    211    213     1  0.0000000  0.6508444  3
    210    208    211    214     1  0.0000000  1.0460000  1
    210    208    211    214     1  0.0000000  0.0000000  3
    209    208    211    212     1  0.0000000  0.6508444  3
    209    208    211    213     1  0.0000000  0.6508444  3
    209    208    211    214     1  0.0000000  1.0460000  1
    209    208    211    214     1  0.0000000  0.0000000  3
    207    205    208    209     1  0.0000000  0.5020800  3
    207    205    208    210     1  0.0000000  0.5020800  3
    207    205    208    211     1  0.0000000  0.5439200  3
    206    205    208    209     1  0.0000000  0.5020800  3
    206    205    208    210     1  0.0000000  0.5020800  3
    206    205    208    211     1  0.0000000  0.5439200  3
    205    208    211    212     1  0.0000000  0.6508444  3
    205    208    211    213     1  0.0000000  0.6508444  3
    204    202    205    206     1  0.0000000  0.6508444  3
    204    202    205    207     1  0.0000000  0.6508444  3
    204    202    205    208     1  0.0000000  0.6508444  3
    203    202    205    206     1  0.0000000  0.6508444  3
    203    202    205    207     1  0.0000000  0.6508444  3
    203    202    205    208     1  0.0000000  0.6508444  3
    202    205    208    209     1  0.0000000  0.5439200  3
    202    205    208    210     1  0.0000000  0.5439200  3
    201    202    205    206     1  0.0000000  1.0460000  1
    201    202    205    206     1  0.0000000  0.0000000  3
    201    202    205    207     1  0.0000000  1.0460000  1
    201    202    205    207     1  0.0000000  0.0000000  3
    199    201    202    203     1  0.0000000  1.6038667  3
    199    201    202    204     1  0.0000000  1.6038667  3
    197    196    198    199     1  180.0000771  15.1670000  2
    195    194    196    197     1  180.0000771  15.1670000  2
    195    194    196    198     1  180.0000771  15.1670000  2
    193    190    189    194     1  180.0000771  15.1670000  2
    193    190    191    198     1  180.0000771  15.1670000  2
    192    191    190    193     1  180.0000771  15.1670000  2
    192    191    198    196     1  180.0000771  15.1670000  2
    192    191    198    199     1  180.0000771  15.1670000  2
    191    198    196    197     1  180.0000771  15.1670000  2
    190    189    194    195     1  180.0000771  15.1670000  2
    189    190    191    192     1  180.0000771  15.1670000  2
    189    194    196    197     1  180.0000771  15.1670000  2
    187    189    190    193     1  180.0000771  15.1670000  2
    187    189    194    195     1  180.0000771  15.1670000  2
    185    183    186    187     1  0.0000000  1.6038667  3
    184    183    186    187     1  0.0000000  1.6038667  3
    238    236    239    240     1  0.0000000  0.6508444  3
    238    236    239    241     1  0.0000000  0.6508444  3
    238    236    239    242     1  0.0000000  1.0460000  1
    238    236    239    242     1  0.0000000  0.0000000  3
    237    236    239    240     1  0.0000000  0.6508444  3
    237    236    239    241     1  0.0000000  0.6508444  3
    237    236    239    242     1  0.0000000  1.0460000  1
    237    236    239    242     1  0.0000000  0.0000000  3
    235    233    236    237     1  0.0000000  0.5020800  3
    235    233    236    238     1  0.0000000  0.5020800  3
    235    233    236    239     1  0.0000000  0.5439200  3
    234    233    236    237     1  0.0000000  0.5020800  3
    234    233    236    238     1  0.0000000  0.5020800  3
    234    233    236    239     1  0.0000000  0.5439200  3
    233    236    239    240     1  0.0000000  0.6508444  3
    233    236    239    241     1  0.0000000  0.6508444  3
    232    230    233    234     1  0.0000000  0.6508444  3
    232    230    233    235     1  0.0000000  0.6508444  3
    232    230    233    236     1  0.0000000  0.6508444  3
    231    230    233    234     1  0.0000000  0.6508444  3
    231    230    233    235     1  0.0000000  0.6508444  3
    231    230    233    236     1  0.0000000  0.6508444  3
    230    233    236    237     1  0.0000000  0.5439200  3
    230    233    236    238     1  0.0000000  0.5439200  3
    229    230    233    234     1  0.0000000  1.0460000  1
    229    230    233    234     1  0.0000000  0.0000000  3
    229    230    233    235     1  0.0000000  1.0460000  1
    229    230    233    235     1  0.0000000  0.0000000  3
    227    229    230    231     1  0.0000000  1.6038667  3
    227    229    230    232     1  0.0000000  1.6038667  3
    225    224    226    227     1  180.0000771  15.1670000  2
    223    222    224    225     1  180.0000771  15.1670000  2
    223    222    224    226     1  180.0000771  15.1670000  2
    221    218    217    222     1  180.0000771  15.1670000  2
    221    218    219    226     1  180.0000771  15.1670000  2
    220    219    218    221     1  180.0000771  15.1670000  2
    220    219    226    224     1  180.0000771  15.1670000  2
    220    219    226    227     1  180.0000771  15.1670000  2
    219    226    224    225     1  180.0000771  15.1670000  2
    218    217    222    223     1  180.0000771  15.1670000  2
    217    218    219    220     1  180.0000771  15.1670000  2
    217    222    224    225     1  180.0000771  15.1670000  2
    215    217    218    221     1  180.0000771  15.1670000  2
    215    217    222    223     1  180.0000771  15.1670000  2
    213    211    214    215     1  0.0000000  1.6038667  3
    212    211    214    215     1  0.0000000  1.6038667  3
    266    264    267    268     1  0.0000000  0.6508444  3
    266    264    267    269     1  0.0000000  0.6508444  3
    266    264    267    270     1  0.0000000  1.0460000  1
    266    264    267    270     1  0.0000000  0.0000000  3
    265    264    267    268     1  0.0000000  0.6508444  3
    265    264    267    269     1  0.0000000  0.6508444  3
    265    264    267    270     1  0.0000000  1.0460000  1
    265    264    267    270     1  0.0000000  0.0000000  3
    263    261    264    265     1  0.0000000  0.5020800  3
    263    261    264    266     1  0.0000000  0.5020800  3
    263    261    264    267     1  0.0000000  0.5439200  3
    262    261    264    265     1  0.0000000  0.5020800  3
    262    261    264    266     1  0.0000000  0.5020800  3
    262    261    264    267     1  0.0000000  0.5439200  3
    261    264    267    268     1  0.0000000  0.6508444  3
    261    264    267    269     1  0.0000000  0.6508444  3
    260    258    261    262     1  0.0000000  0.6508444  3
    260    258    261    263     1  0.0000000  0.6508444  3
    260    258    261    264     1  0.0000000  0.6508444  3
    259    258    261    262     1  0.0000000  0.6508444  3
    259    258    261    263     1  0.0000000  0.6508444  3
    259    258    261    264     1  0.0000000  0.6508444  3
    258    261    264    265     1  0.0000000  0.5439200  3
    258    261    264    266     1  0.0000000  0.5439200  3
    257    258    261    262     1  0.0000000  1.0460000  1
    257    258    261    262     1  0.0000000  0.0000000  3
    257    258    261    263     1  0.0000000  1.0460000  1
    257    258    261    263     1  0.0000000  0.0000000  3
    255    257    258    259     1  0.0000000  1.6038667  3
    255    257    258    260     1  0.0000000  1.6038667  3
    253    252    254    255     1  180.0000771  15.1670000  2
    251    250    252    253     1  180.0000771  15.1670000  2
    251    250    252    254     1  180.0000771  15.1670000  2
    249    246    245    250     1  180.0000771  15.1670000  2
    249    246    247    254     1  180.0000771  15.1670000  2
    248    247    246    249     1  180.0000771  15.1670000  2
    248    247    254    252     1  180.0000771  15.1670000  2
    248    247    254    255     1  180.0000771  15.1670000  2
    247    254    252    253     1  180.0000771  15.1670000  2
    246    245    250    251     1  180.0000771  15.1670000  2
    245    246    247    248     1  180.0000771  15.1670000  2
    245    250    252    253     1  180.0000771  15.1670000  2
    243    245    246    249     1  180.0000771  15.1670000  2
    243    245    250    251     1  180.0000771  15.1670000  2
    241    239    242    243     1  0.0000000  1.6038667  3
    240    239    242    243     1  0.0000000  1.6038667  3
    294    292    295    296     1  0.0000000  0.6508444  3
    294    292    295    297     1  0.0000000  0.6508444  3
    294    292    295    298     1  0.0000000  1.0460000  1
    294    292    295    298     1  0.0000000  0.0000000  3
    293    292    295    296     1  0.0000000  0.6508444  3
    293    292    295    297     1  0.0000000  0.6508444  3
    293    292    295    298     1  0.0000000  1.0460000  1
    293    292    295    298     1  0.0000000  0.0000000  3
    291    289    292    293     1  0.0000000  0.5020800  3
    291    289    292    294     1  0.0000000  0.5020800  3
    291    289    292    295     1  0.0000000  0.5439200  3
    290    289    292    293     1  0.0000000  0.5020800  3
    290    289    292    294     1  0.0000000  0.5020800  3
    290    289    292    295     1  0.0000000  0.5439200  3
    289    292    295    296     1  0.0000000  0.6508444  3
    289    292    295    297     1  0.0000000  0.6508444  3
    288    286    289    290     1  0.0000000  0.6508444  3
    288    286    289    291     1  0.0000000  0.6508444  3
    288    286    289    292     1  0.0000000  0.6508444  3
    287    286    289    290     1  0.0000000  0.6508444  3
    287    286    289    291     1  0.0000000  0.6508444  3
    287    286    289    292     1  0.0000000  0.6508444  3
    286    289    292    293     1  0.0000000  0.5439200  3
    286    289    292    294     1  0.0000000  0.5439200  3
    285    286    289    290     1  0.0000000  1.0460000  1
    285    286    289    290     1  0.0000000  0.0000000  3
    285    286    289    291     1  0.0000000  1.0460000  1
    285    286    289    291     1  0.0000000  0.0000000  3
    283    285    286    287     1  0.0000000  1.6038667  3
    283    285    286    288     1  0.0000000  1.6038667  3
    281    280    282    283     1  180.0000771  15.1670000  2
    279    278    280    281     1  180.0000771  15.1670000  2
    279    278    280    282     1  180.0000771  15.1670000  2
    277    274    273    278     1  180.0000771  15.1670000  2
    277    274    275    282     1  180.0000771  15.1670000  2
    276    275    274    277     1  180.0000771  15.1670000  2
    276    275    282    280     1  180.0000771  15.1670000  2
    276    275    282    283     1  180.0000771  15.1670000  2
    275    282    280    281     1  180.0000771  15.1670000  2
    274    273    278    279     1  180.0000771  15.1670000  2
    273    274    275    276     1  180.0000771  15.1670000  2
    273    278    280    281     1  180.0000771  15.1670000  2
    271    273    274    277     1  180.0000771  15.1670000  2
    271    273    278    279     1  180.0000771  15.1670000  2
    269    267    270    271     1  0.0000000  1.6038667  3
    268    267    270    271     1  0.0000000  1.6038667  3
    322    320    323    324     1  0.0000000  0.6508444  3
    322    320    323    325     1  0.0000000  0.6508444  3
    322    320    323    326     1  0.0000000  1.0460000  1
    322    320    323    326     1  0.0000000  0.0000000  3
    321    320    323    324     1  0.0000000  0.6508444  3
    321    320    323    325     1  0.0000000  0.6508444  3
    321    320    323    326     1  0.0000000  1.0460000  1
    321    320    323    326     1  0.0000000  0.0000000  3
    319    317    320    321     1  0.0000000  0.5020800  3
    319    317    320    322     1  0.0000000  0.5020800  3
    319    317    320    323     1  0.0000000  0.5439200  3
    318    317    320    321     1  0.0000000  0.5020800  3
    318    317    320    322     1  0.0000000  0.5020800  3
    318    317    320    323     1  0.0000000  0.5439200  3
    317    320    323    324     1  0.0000000  0.6508444  3
    317    320    323    325     1  0.0000000  0.6508444  3
    316    314    317    318     1  0.0000000  0.6508444  3
    316    314    317    319     1  0.0000000  0.6508444  3
    316    314    317    320     1  0.0000000  0.6508444  3
    315    314    317    318     1  0.0000000  0.6508444  3
    315    314    317    319     1  0.0000000  0.6508444  3
    315    314    317    320     1  0.0000000  0.6508444  3
    314    317    320    321     1  0.0000000  0.5439200  3
    314    317    320    322     1  0.0000000  0.5439200  3
    313    314    317    318     1  0.0000000  1.0460000  1
    313    314    317    318     1  0.0000000  0.0000000  3
    313    314    317    319     1  0.0000000  1.0460000  1
    313    314    317    319     1  0.0000000  0.0000000  3
    311    313    314    315     1  0.0000000  1.6038667  3
    311    313    314    316     1  0.0000000  1.6038667  3
    309    308    310    311     1  180.0000771  15.1670000  2
    307    306    308    309     1  180.0000771  15.1670000  2
    307    306    308    310     1  180.0000771  15.1670000  2
    305    302    301    306     1  180.0000771  15.1670000  2
    305    302    303    310     1  180.0000771  15.1670000  2
    304    303    302    305     1  180.0000771  15.1670000  2
    304    303    310    308     1  180.0000771  15.1670000  2
    304    303    310    311     1  180.0000771  15.1670000  2
    303    310    308    309     1  180.0000771  15.1670000  2
    302    301    306    307     1  180.0000771  15.1670000  2
    301    302    303    304     1  180.0000771  15.1670000  2
    301    306    308    309     1  180.0000771  15.1670000  2
    299    301    302    305     1  180.0000771  15.1670000  2
    299    301    306    307     1  180.0000771  15.1670000  2
    297    295    298    299     1  0.0000000  1.6038667  3
    296    295    298    299     1  0.0000000  1.6038667  3
    350    348    351    352     1  0.0000000  0.6508444  3
    350    348    351    353     1  0.0000000  0.6508444  3
    350    348    351    354     1  0.0000000  1.0460000  1
    350    348    351    354     1  0.0000000  0.0000000  3
    349    348    351    352     1  0.0000000  0.6508444  3
    349    348    351    353     1  0.0000000  0.6508444  3
    349    348    351    354     1  0.0000000  1.0460000  1
    349    348    351    354     1  0.0000000  0.0000000  3
    347    345    348    349     1  0.0000000  0.5020800  3
    347    345    348    350     1  0.0000000  0.5020800  3
    347    345    348    351     1  0.0000000  0.5439200  3
    346    345    348    349     1  0.0000000  0.5020800  3
    346    345    348    350     1  0.0000000  0.5020800  3
    346    345    348    351     1  0.0000000  0.5439200  3
    345    348    351    352     1  0.0000000  0.6508444  3
    345    348    351    353     1  0.0000000  0.6508444  3
    344    342    345    346     1  0.0000000  0.6508444  3
    344    342    345    347     1  0.0000000  0.6508444  3
    344    342    345    348     1  0.0000000  0.6508444  3
    343    342    345    346     1  0.0000000  0.6508444  3
    343    342    345    347     1  0.0000000  0.6508444  3
    343    342    345    348     1  0.0000000  0.6508444  3
    342    345    348    349     1  0.0000000  0.5439200  3
    342    345    348    350     1  0.0000000  0.5439200  3
    341    342    345    346     1  0.0000000  1.0460000  1
    341    342    345    346     1  0.0000000  0.0000000  3
    341    342    345    347     1  0.0000000  1.0460000  1
    341    342    345    347     1  0.0000000  0.0000000  3
    339    341    342    343     1  0.0000000  1.6038667  3
    339    341    342    344     1  0.0000000  1.6038667  3
    337    336    338    339     1  180.0000771  15.1670000  2
    335    334    336    337     1  180.0000771  15.1670000  2
    335    334    336    338     1  180.0000771  15.1670000  2
    333    330    329    334     1  180.0000771  15.1670000  2
    333    330    331    338     1  180.0000771  15.1670000  2
    332    331    330    333     1  180.0000771  15.1670000  2
    332    331    338    336     1  180.0000771  15.1670000  2
    332    331    338    339     1  180.0000771  15.1670000  2
    331    338    336    337     1  180.0000771  15.1670000  2
    330    329    334    335     1  180.0000771  15.1670000  2
    329    330    331    332     1  180.0000771  15.1670000  2
    329    334    336    337     1  180.0000771  15.1670000  2
    327    329    330    333     1  180.0000771  15.1670000  2
    327    329    334    335     1  180.0000771  15.1670000  2
    325    323    326    327     1  0.0000000  1.6038667  3
    324    323    326    327     1  0.0000000  1.6038667  3
    378    376    379    380     1  0.0000000  0.6508444  3
    378    376    379    381     1  0.0000000  0.6508444  3
    378    376    379    382     1  0.0000000  1.0460000  1
    378    376    379    382     1  0.0000000  0.0000000  3
    377    376    379    380     1  0.0000000  0.6508444  3
    377    376    379    381     1  0.0000000  0.6508444  3
    377    376    379    382     1  0.0000000  1.0460000  1
    377    376    379    382     1  0.0000000  0.0000000  3
    375    373    376    377     1  0.0000000  0.5020800  3
    375    373    376    378     1  0.0000000  0.5020800  3
    375    373    376    379     1  0.0000000  0.5439200  3
    374    373    376    377     1  0.0000000  0.5020800  3
    374    373    376    378     1  0.0000000  0.5020800  3
    374    373    376    379     1  0.0000000  0.5439200  3
    373    376    379    380     1  0.0000000  0.6508444  3
    373    376    379    381     1  0.0000000  0.6508444  3
    372    370    373    374     1  0.0000000  0.6508444  3
    372    370    373    375     1  0.0000000  0.6508444  3
    372    370    373    376     1  0.0000000  0.6508444  3
    371    370    373    374     1  0.0000000  0.6508444  3
    371    370    373    375     1  0.0000000  0.6508444  3
    371    370    373    376     1  0.0000000  0.6508444  3
    370    373    376    377     1  0.0000000  0.5439200  3
    370    373    376    378     1  0.0000000  0.5439200  3
    369    370    373    374     1  0.0000000  1.0460000  1
    369    370    373    374     1  0.0000000  0.0000000  3
    369    370    373    375     1  0.0000000  1.0460000  1
    369    370    373    375     1  0.0000000  0.0000000  3
    367    369    370    371     1  0.0000000  1.6038667  3
    367    369    370    372     1  0.0000000  1.6038667  3
    365    364    366    367     1  180.0000771  15.1670000  2
    363    362    364    365     1  180.0000771  15.1670000  2
    363    362    364    366     1  180.0000771  15.1670000  2
    361    358    357    362     1  180.0000771  15.1670000  2
    361    358    359    366     1  180.0000771  15.1670000  2
    360    359    358    361     1  180.0000771  15.1670000  2
    360    359    366    364     1  180.0000771  15.1670000  2
    360    359    366    367     1  180.0000771  15.1670000  2
    359    366    364    365     1  180.0000771  15.1670000  2
    358    357    362    363     1  180.0000771  15.1670000  2
    357    358    359    360     1  180.0000771  15.1670000  2
    357    362    364    365     1  180.0000771  15.1670000  2
    355    357    358    361     1  180.0000771  15.1670000  2
    355    357    362    363     1  180.0000771  15.1670000  2
    353    351    354    355     1  0.0000000  1.6038667  3
    352    351    354    355     1  0.0000000  1.6038667  3
    406    404    407    408     1  0.0000000  0.6508444  3
    406    404    407    409     1  0.0000000  0.6508444  3
    406    404    407    410     1  0.0000000  1.0460000  1
    406    404    407    410     1  0.0000000  0.0000000  3
    405    404    407    408     1  0.0000000  0.6508444  3
    405    404    407    409     1  0.0000000  0.6508444  3
    405    404    407    410     1  0.0000000  1.0460000  1
    405    404    407    410     1  0.0000000  0.0000000  3
    403    401    404    405     1  0.0000000  0.5020800  3
    403    401    404    406     1  0.0000000  0.5020800  3
    403    401    404    407     1  0.0000000  0.5439200  3
    402    401    404    405     1  0.0000000  0.5020800  3
    402    401    404    406     1  0.0000000  0.5020800  3
    402    401    404    407     1  0.0000000  0.5439200  3
    401    404    407    408     1  0.0000000  0.6508444  3
    401    404    407    409     1  0.0000000  0.6508444  3
    400    398    401    402     1  0.0000000  0.6508444  3
    400    398    401    403     1  0.0000000  0.6508444  3
    400    398    401    404     1  0.0000000  0.6508444  3
    399    398    401    402     1  0.0000000  0.6508444  3
    399    398    401    403     1  0.0000000  0.6508444  3
    399    398    401    404     1  0.0000000  0.6508444  3
    398    401    404    405     1  0.0000000  0.5439200  3
    398    401    404    406     1  0.0000000  0.5439200  3
    397    398    401    402     1  0.0000000  1.0460000  1
    397    398    401    402     1  0.0000000  0.0000000  3
    397    398    401    403     1  0.0000000  1.0460000  1
    397    398    401    403     1  0.0000000  0.0000000  3
    395    397    398    399     1  0.0000000  1.6038667  3
    395    397    398    400     1  0.0000000  1.6038667  3
    393    392    394    395     1  180.0000771  15.1670000  2
    391    390    392    393     1  180.0000771  15.1670000  2
    391    390    392    394     1  180.0000771  15.1670000  2
    389    386    385    390     1  180.0000771  15.1670000  2
    389    386    387    394     1  180.0000771  15.1670000  2
    388    387    386    389     1  180.0000771  15.1670000  2
    388    387    394    392     1  180.0000771  15.1670000  2
    388    387    394    395     1  180.0000771  15.1670000  2
    387    394    392    393     1  180.0000771  15.1670000  2
    386    385    390    391     1  180.0000771  15.1670000  2
    385    386    387    388     1  180.0000771  15.1670000  2
    385    390    392    393     1  180.0000771  15.1670000  2
    383    385    386    389     1  180.0000771  15.1670000  2
    383    385    390    391     1  180.0000771  15.1670000  2
    381    379    382    383     1  0.0000000  1.6038667  3
    380    379    382    383     1  0.0000000  1.6038667  3
    434    432    435    436     1  0.0000000  0.6508444  3
    434    432    435    437     1  0.0000000  0.6508444  3
    434    432    435    438     1  0.0000000  1.0460000  1
    434    432    435    438     1  0.0000000  0.0000000  3
    433    432    435    436     1  0.0000000  0.6508444  3
    433    432    435    437     1  0.0000000  0.6508444  3
    433    432    435    438     1  0.0000000  1.0460000  1
    433    432    435    438     1  0.0000000  0.0000000  3
    431    429    432    433     1  0.0000000  0.5020800  3
    431    429    432    434     1  0.0000000  0.5020800  3
    431    429    432    435     1  0.0000000  0.5439200  3
    430    429    432    433     1  0.0000000  0.5020800  3
    430    429    432    434     1  0.0000000  0.5020800  3
    430    429    432    435     1  0.0000000  0.5439200  3
    429    432    435    436     1  0.0000000  0.6508444  3
    429    432    435    437     1  0.0000000  0.6508444  3
    428    426    429    430     1  0.0000000  0.6508444  3
    428    426    429    431     1  0.0000000  0.6508444  3
    428    426    429    432     1  0.0000000  0.6508444  3
    427    426    429    430     1  0.0000000  0.6508444  3
    427    426    429    431     1  0.0000000  0.6508444  3
    427    426    429    432     1  0.0000000  0.6508444  3
    426    429    432    433     1  0.0000000  0.5439200  3
    426    429    432    434     1  0.0000000  0.5439200  3
    425    426    429    430     1  0.0000000  1.0460000  1
    425    426    429    430     1  0.0000000  0.0000000  3
    425    426    429    431     1  0.0000000  1.0460000  1
    425    426    429    431     1  0.0000000  0.0000000  3
    423    425    426    427     1  0.0000000  1.6038667  3
    423    425    426    428     1  0.0000000  1.6038667  3
    421    420    422    423     1  180.0000771  15.1670000  2
    419    418    420    421     1  180.0000771  15.1670000  2
    419    418    420    422     1  180.0000771  15.1670000  2
    417    414    413    418     1  180.0000771  15.1670000  2
    417    414    415    422     1  180.0000771  15.1670000  2
    416    415    414    417     1  180.0000771  15.1670000  2
    416    415    422    420     1  180.0000771  15.1670000  2
    416    415    422    423     1  180.0000771  15.1670000  2
    415    422    420    421     1  180.0000771  15.1670000  2
    414    413    418    419     1  180.0000771  15.1670000  2
    413    414    415    416     1  180.0000771  15.1670000  2
    413    418    420    421     1  180.0000771  15.1670000  2
    411    413    414    417     1  180.0000771  15.1670000  2
    411    413    418    419     1  180.0000771  15.1670000  2
    409    407    410    411     1  0.0000000  1.6038667  3
    408    407    410    411     1  0.0000000  1.6038667  3
    462    460    463    464     1  0.0000000  0.6508444  3
    462    460    463    465     1  0.0000000  0.6508444  3
    462    460    463    466     1  0.0000000  1.0460000  1
    462    460    463    466     1  0.0000000  0.0000000  3
    461    460    463    464     1  0.0000000  0.6508444  3
    461    460    463    465     1  0.0000000  0.6508444  3
    461    460    463    466     1  0.0000000  1.0460000  1
    461    460    463    466     1  0.0000000  0.0000000  3
    459    457    460    461     1  0.0000000  0.5020800  3
    459    457    460    462     1  0.0000000  0.5020800  3
    459    457    460    463     1  0.0000000  0.5439200  3
    458    457    460    461     1  0.0000000  0.5020800  3
    458    457    460    462     1  0.0000000  0.5020800  3
    458    457    460    463     1  0.0000000  0.5439200  3
    457    460    463    464     1  0.0000000  0.6508444  3
    457    460    463    465     1  0.0000000  0.6508444  3
    456    454    457    458     1  0.0000000  0.6508444  3
    456    454    457    459     1  0.0000000  0.6508444  3
    456    454    457    460     1  0.0000000  0.6508444  3
    455    454    457    458     1  0.0000000  0.6508444  3
    455    454    457    459     1  0.0000000  0.6508444  3
    455    454    457    460     1  0.0000000  0.6508444  3
    454    457    460    461     1  0.0000000  0.5439200  3
    454    457    460    462     1  0.0000000  0.5439200  3
    453    454    457    458     1  0.0000000  1.0460000  1
    453    454    457    458     1  0.0000000  0.0000000  3
    453    454    457    459     1  0.0000000  1.0460000  1
    453    454    457    459     1  0.0000000  0.0000000  3
    451    453    454    455     1  0.0000000  1.6038667  3
    451    453    454    456     1  0.0000000  1.6038667  3
    449    448    450    451     1  180.0000771  15.1670000  2
    447    446    448    449     1  180.0000771  15.1670000  2
    447    446    448    450     1  180.0000771  15.1670000  2
    445    442    441    446     1  180.0000771  15.1670000  2
    445    442    443    450     1  180.0000771  15.1670000  2
    444    443    442    445     1  180.0000771  15.1670000  2
    444    443    450    448     1  180.0000771  15.1670000  2
    444    443    450    451     1  180.0000771  15.1670000  2
    443    450    448    449     1  180.0000771  15.1670000  2
    442    441    446    447     1  180.0000771  15.1670000  2
    441    442    443    444     1  180.0000771  15.1670000  2
    441    446    448    449     1  180.0000771  15.1670000  2
    439    441    442    445     1  180.0000771  15.1670000  2
    439    441    446    447     1  180.0000771  15.1670000  2
    437    435    438    439     1  0.0000000  1.6038667  3
    436    435    438    439     1  0.0000000  1.6038667  3
    490    488    491    492     1  0.0000000  0.6508444  3
    490    488    491    493     1  0.0000000  0.6508444  3
    490    488    491    494     1  0.0000000  1.0460000  1
    490    488    491    494     1  0.0000000  0.0000000  3
    489    488    491    492     1  0.0000000  0.6508444  3
    489    488    491    493     1  0.0000000  0.6508444  3
    489    488    491    494     1  0.0000000  1.0460000  1
    489    488    491    494     1  0.0000000  0.0000000  3
    487    485    488    489     1  0.0000000  0.5020800  3
    487    485    488    490     1  0.0000000  0.5020800  3
    487    485    488    491     1  0.0000000  0.5439200  3
    486    485    488    489     1  0.0000000  0.5020800  3
    486    485    488    490     1  0.0000000  0.5020800  3
    486    485    488    491     1  0.0000000  0.5439200  3
    485    488    491    492     1  0.0000000  0.6508444  3
    485    488    491    493     1  0.0000000  0.6508444  3
    484    482    485    486     1  0.0000000  0.6508444  3
    484    482    485    487     1  0.0000000  0.6508444  3
    484    482    485    488     1  0.0000000  0.6508444  3
    483    482    485    486     1  0.0000000  0.6508444  3
    483    482    485    487     1  0.0000000  0.6508444  3
    483    482    485    488     1  0.0000000  0.6508444  3
    482    485    488    489     1  0.0000000  0.5439200  3
    482    485    488    490     1  0.0000000  0.5439200  3
    481    482    485    486     1  0.0000000  1.0460000  1
    481    482    485    486     1  0.0000000  0.0000000  3
    481    482    485    487     1  0.0000000  1.0460000  1
    481    482    485    487     1  0.0000000  0.0000000  3
    479    481    482    483     1  0.0000000  1.6038667  3
    479    481    482    484     1  0.0000000  1.6038667  3
    477    476    478    479     1  180.0000771  15.1670000  2
    475    474    476    477     1  180.0000771  15.1670000  2
    475    474    476    478     1  180.0000771  15.1670000  2
    473    470    469    474     1  180.0000771  15.1670000  2
    473    470    471    478     1  180.0000771  15.1670000  2
    472    471    470    473     1  180.0000771  15.1670000  2
    472    471    478    476     1  180.0000771  15.1670000  2
    472    471    478    479     1  180.0000771  15.1670000  2
    471    478    476    477     1  180.0000771  15.1670000  2
    470    469    474    475     1  180.0000771  15.1670000  2
    469    470    471    472     1  180.0000771  15.1670000  2
    469    474    476    477     1  180.0000771  15.1670000  2
    467    469    470    473     1  180.0000771  15.1670000  2
    467    469    474    475     1  180.0000771  15.1670000  2
    465    463    466    467     1  0.0000000  1.6038667  3
    464    463    466    467     1  0.0000000  1.6038667  3
    518    516    519    520     1  0.0000000  0.6508444  3
    518    516    519    521     1  0.0000000  0.6508444  3
    518    516    519    522     1  0.0000000  1.0460000  1
    518    516    519    522     1  0.0000000  0.0000000  3
    517    516    519    520     1  0.0000000  0.6508444  3
    517    516    519    521     1  0.0000000  0.6508444  3
    517    516    519    522     1  0.0000000  1.0460000  1
    517    516    519    522     1  0.0000000  0.0000000  3
    515    513    516    517     1  0.0000000  0.5020800  3
    515    513    516    518     1  0.0000000  0.5020800  3
    515    513    516    519     1  0.0000000  0.5439200  3
    514    513    516    517     1  0.0000000  0.5020800  3
    514    513    516    518     1  0.0000000  0.5020800  3
    514    513    516    519     1  0.0000000  0.5439200  3
    513    516    519    520     1  0.0000000  0.6508444  3
    513    516    519    521     1  0.0000000  0.6508444  3
    512    510    513    514     1  0.0000000  0.6508444  3
    512    510    513    515     1  0.0000000  0.6508444  3
    512    510    513    516     1  0.0000000  0.6508444  3
    511    510    513    514     1  0.0000000  0.6508444  3
    511    510    513    515     1  0.0000000  0.6508444  3
    511    510    513    516     1  0.0000000  0.6508444  3
    510    513    516    517     1  0.0000000  0.5439200  3
    510    513    516    518     1  0.0000000  0.5439200  3
    509    510    513    514     1  0.0000000  1.0460000  1
    509    510    513    514     1  0.0000000  0.0000000  3
    509    510    513    515     1  0.0000000  1.0460000  1
    509    510    513    515     1  0.0000000  0.0000000  3
    507    509    510    511     1  0.0000000  1.6038667  3
    507    509    510    512     1  0.0000000  1.6038667  3
    505    504    506    507     1  180.0000771  15.1670000  2
    503    502    504    505     1  180.0000771  15.1670000  2
    503    502    504    506     1  180.0000771  15.1670000  2
    501    498    497    502     1  180.0000771  15.1670000  2
    501    498    499    506     1  180.0000771  15.1670000  2
    500    499    498    501     1  180.0000771  15.1670000  2
    500    499    506    504     1  180.0000771  15.1670000  2
    500    499    506    507     1  180.0000771  15.1670000  2
    499    506    504    505     1  180.0000771  15.1670000  2
    498    497    502    503     1  180.0000771  15.1670000  2
    497    498    499    500     1  180.0000771  15.1670000  2
    497    502    504    505     1  180.0000771  15.1670000  2
    495    497    498    501     1  180.0000771  15.1670000  2
    495    497    502    503     1  180.0000771  15.1670000  2
    493    491    494    495     1  0.0000000  1.6038667  3
    492    491    494    495     1  0.0000000  1.6038667  3
    546    544    547    548     1  0.0000000  0.6508444  3
    546    544    547    549     1  0.0000000  0.6508444  3
    546    544    547    550     1  0.0000000  1.0460000  1
    546    544    547    550     1  0.0000000  0.0000000  3
    545    544    547    548     1  0.0000000  0.6508444  3
    545    544    547    549     1  0.0000000  0.6508444  3
    545    544    547    550     1  0.0000000  1.0460000  1
    545    544    547    550     1  0.0000000  0.0000000  3
    543    541    544    545     1  0.0000000  0.5020800  3
    543    541    544    546     1  0.0000000  0.5020800  3
    543    541    544    547     1  0.0000000  0.5439200  3
    542    541    544    545     1  0.0000000  0.5020800  3
    542    541    544    546     1  0.0000000  0.5020800  3
    542    541    544    547     1  0.0000000  0.5439200  3
    541    544    547    548     1  0.0000000  0.6508444  3
    541    544    547    549     1  0.0000000  0.6508444  3
    540    538    541    542     1  0.0000000  0.6508444  3
    540    538    541    543     1  0.0000000  0.6508444  3
    540    538    541    544     1  0.0000000  0.6508444  3
    539    538    541    542     1  0.0000000  0.6508444  3
    539    538    541    543     1  0.0000000  0.6508444  3
    539    538    541    544     1  0.0000000  0.6508444  3
    538    541    544    545     1  0.0000000  0.5439200  3
    538    541    544    546     1  0.0000000  0.5439200  3
    537    538    541    542     1  0.0000000  1.0460000  1
    537    538    541    542     1  0.0000000  0.0000000  3
    537    538    541    543     1  0.0000000  1.0460000  1
    537    538    541    543     1  0.0000000  0.0000000  3
    535    537    538    539     1  0.0000000  1.6038667  3
    535    537    538    540     1  0.0000000  1.6038667  3
    533    532    534    535     1  180.0000771  15.1670000  2
    531    530    532    533     1  180.0000771  15.1670000  2
    531    530    532    534     1  180.0000771  15.1670000  2
    529    526    525    530     1  180.0000771  15.1670000  2
    529    526    527    534     1  180.0000771  15.1670000  2
    528    527    526    529     1  180.0000771  15.1670000  2
    528    527    534    532     1  180.0000771  15.1670000  2
    528    527    534    535     1  180.0000771  15.1670000  2
    527    534    532    533     1  180.0000771  15.1670000  2
    526    525    530    531     1  180.0000771  15.1670000  2
    525    526    527    528     1  180.0000771  15.1670000  2
    525    530    532    533     1  180.0000771  15.1670000  2
    523    525    526    529     1  180.0000771  15.1670000  2
    523    525    530    531     1  180.0000771  15.1670000  2
    521    519    522    523     1  0.0000000  1.6038667  3
    520    519    522    523     1  0.0000000  1.6038667  3
    574    572    575    576     1  0.0000000  0.6508444  3
    574    572    575    577     1  0.0000000  0.6508444  3
    574    572    575    578     1  0.0000000  1.0460000  1
    574    572    575    578     1  0.0000000  0.0000000  3
    573    572    575    576     1  0.0000000  0.6508444  3
    573    572    575    577     1  0.0000000  0.6508444  3
    573    572    575    578     1  0.0000000  1.0460000  1
    573    572    575    578     1  0.0000000  0.0000000  3
    571    569    572    573     1  0.0000000  0.5020800  3
    571    569    572    574     1  0.0000000  0.5020800  3
    571    569    572    575     1  0.0000000  0.5439200  3
    570    569    572    573     1  0.0000000  0.5020800  3
    570    569    572    574     1  0.0000000  0.5020800  3
    570    569    572    575     1  0.0000000  0.5439200  3
    569    572    575    576     1  0.0000000  0.6508444  3
    569    572    575    577     1  0.0000000  0.6508444  3
    568    566    569    570     1  0.0000000  0.6508444  3
    568    566    569    571     1  0.0000000  0.6508444  3
    568    566    569    572     1  0.0000000  0.6508444  3
    567    566    569    570     1  0.0000000  0.6508444  3
    567    566    569    571     1  0.0000000  0.6508444  3
    567    566    569    572     1  0.0000000  0.6508444  3
    566    569    572    573     1  0.0000000  0.5439200  3
    566    569    572    574     1  0.0000000  0.5439200  3
    565    566    569    570     1  0.0000000  1.0460000  1
    565    566    569    570     1  0.0000000  0.0000000  3
    565    566    569    571     1  0.0000000  1.0460000  1
    565    566    569    571     1  0.0000000  0.0000000  3
    563    565    566    567     1  0.0000000  1.6038667  3
    563    565    566    568     1  0.0000000  1.6038667  3
    561    560    562    563     1  180.0000771  15.1670000  2
    559    558    560    561     1  180.0000771  15.1670000  2
    559    558    560    562     1  180.0000771  15.1670000  2
    557    554    553    558     1  180.0000771  15.1670000  2
    557    554    555    562     1  180.0000771  15.1670000  2
    556    555    554    557     1  180.0000771  15.1670000  2
    556    555    562    560     1  180.0000771  15.1670000  2
    556    555    562    563     1  180.0000771  15.1670000  2
    555    562    560    561     1  180.0000771  15.1670000  2
    554    553    558    559     1  180.0000771  15.1670000  2
    553    554    555    556     1  180.0000771  15.1670000  2
    553    558    560    561     1  180.0000771  15.1670000  2
    551    553    554    557     1  180.0000771  15.1670000  2
    551    553    558    559     1  180.0000771  15.1670000  2
    549    547    550    551     1  0.0000000  1.6038667  3
    548    547    550    551     1  0.0000000  1.6038667  3
    602    600    603    604     1  0.0000000  0.6508444  3
    602    600    603    605     1  0.0000000  0.6508444  3
    602    600    603    606     1  0.0000000  1.0460000  1
    602    600    603    606     1  0.0000000  0.0000000  3
    601    600    603    604     1  0.0000000  0.6508444  3
    601    600    603    605     1  0.0000000  0.6508444  3
    601    600    603    606     1  0.0000000  1.0460000  1
    601    600    603    606     1  0.0000000  0.0000000  3
    599    597    600    601     1  0.0000000  0.5020800  3
    599    597    600    602     1  0.0000000  0.5020800  3
    599    597    600    603     1  0.0000000  0.5439200  3
    598    597    600    601     1  0.0000000  0.5020800  3
    598    597    600    602     1  0.0000000  0.5020800  3
    598    597    600    603     1  0.0000000  0.5439200  3
    597    600    603    604     1  0.0000000  0.6508444  3
    597    600    603    605     1  0.0000000  0.6508444  3
    596    594    597    598     1  0.0000000  0.6508444  3
    596    594    597    599     1  0.0000000  0.6508444  3
    596    594    597    600     1  0.0000000  0.6508444  3
    595    594    597    598     1  0.0000000  0.6508444  3
    595    594    597    599     1  0.0000000  0.6508444  3
    595    594    597    600     1  0.0000000  0.6508444  3
    594    597    600    601     1  0.0000000  0.5439200  3
    594    597    600    602     1  0.0000000  0.5439200  3
    593    594    597    598     1  0.0000000  1.0460000  1
    593    594    597    598     1  0.0000000  0.0000000  3
    593    594    597    599     1  0.0000000  1.0460000  1
    593    594    597    599     1  0.0000000  0.0000000  3
    591    593    594    595     1  0.0000000  1.6038667  3
    591    593    594    596     1  0.0000000  1.6038667  3
    589    588    590    591     1  180.0000771  15.1670000  2
    587    586    588    589     1  180.0000771  15.1670000  2
    587    586    588    590     1  180.0000771  15.1670000  2
    585    582    581    586     1  180.0000771  15.1670000  2
    585    582    583    590     1  180.0000771  15.1670000  2
    584    583    582    585     1  180.0000771  15.1670000  2
    584    583    590    588     1  180.0000771  15.1670000  2
    584    583    590    591     1  180.0000771  15.1670000  2
    583    590    588    589     1  180.0000771  15.1670000  2
    582    581    586    587     1  180.0000771  15.1670000  2
    581    582    583    584     1  180.0000771  15.1670000  2
    581    586    588    589     1  180.0000771  15.1670000  2
    579    581    582    585     1  180.0000771  15.1670000  2
    579    581    586    587     1  180.0000771  15.1670000  2
    577    575    578    579     1  0.0000000  1.6038667  3
    576    575    578    579     1  0.0000000  1.6038667  3
    630    628    631    632     1  0.0000000  0.6508444  3
    630    628    631    633     1  0.0000000  0.6508444  3
    630    628    631    634     1  0.0000000  1.0460000  1
    630    628    631    634     1  0.0000000  0.0000000  3
    629    628    631    632     1  0.0000000  0.6508444  3
    629    628    631    633     1  0.0000000  0.6508444  3
    629    628    631    634     1  0.0000000  1.0460000  1
    629    628    631    634     1  0.0000000  0.0000000  3
    627    625    628    629     1  0.0000000  0.5020800  3
    627    625    628    630     1  0.0000000  0.5020800  3
    627    625    628    631     1  0.0000000  0.5439200  3
    626    625    628    629     1  0.0000000  0.5020800  3
    626    625    628    630     1  0.0000000  0.5020800  3
    626    625    628    631     1  0.0000000  0.5439200  3
    625    628    631    632     1  0.0000000  0.6508444  3
    625    628    631    633     1  0.0000000  0.6508444  3
    624    622    625    626     1  0.0000000  0.6508444  3
    624    622    625    627     1  0.0000000  0.6508444  3
    624    622    625    628     1  0.0000000  0.6508444  3
    623    622    625    626     1  0.0000000  0.6508444  3
    623    622    625    627     1  0.0000000  0.6508444  3
    623    622    625    628     1  0.0000000  0.6508444  3
    622    625    628    629     1  0.0000000  0.5439200  3
    622    625    628    630     1  0.0000000  0.5439200  3
    621    622    625    626     1  0.0000000  1.0460000  1
    621    622    625    626     1  0.0000000  0.0000000  3
    621    622    625    627     1  0.0000000  1.0460000  1
    621    622    625    627     1  0.0000000  0.0000000  3
    619    621    622    623     1  0.0000000  1.6038667  3
    619    621    622    624     1  0.0000000  1.6038667  3
    617    616    618    619     1  180.0000771  15.1670000  2
    615    614    616    617     1  180.0000771  15.1670000  2
    615    614    616    618     1  180.0000771  15.1670000  2
    613    610    609    614     1  180.0000771  15.1670000  2
    613    610    611    618     1  180.0000771  15.1670000  2
    612    611    610    613     1  180.0000771  15.1670000  2
    612    611    618    616     1  180.0000771  15.1670000  2
    612    611    618    619     1  180.0000771  15.1670000  2
    611    618    616    617     1  180.0000771  15.1670000  2
    610    609    614    615     1  180.0000771  15.1670000  2
    609    610    611    612     1  180.0000771  15.1670000  2
    609    614    616    617     1  180.0000771  15.1670000  2
    607    609    610    613     1  180.0000771  15.1670000  2
    607    609    614    615     1  180.0000771  15.1670000  2
    605    603    606    607     1  0.0000000  1.6038667  3
    604    603    606    607     1  0.0000000  1.6038667  3
    658    656    659    660     1  0.0000000  0.6508444  3
    658    656    659    661     1  0.0000000  0.6508444  3
    658    656    659    662     1  0.0000000  1.0460000  1
    658    656    659    662     1  0.0000000  0.0000000  3
    657    656    659    660     1  0.0000000  0.6508444  3
    657    656    659    661     1  0.0000000  0.6508444  3
    657    656    659    662     1  0.0000000  1.0460000  1
    657    656    659    662     1  0.0000000  0.0000000  3
    655    653    656    657     1  0.0000000  0.5020800  3
    655    653    656    658     1  0.0000000  0.5020800  3
    655    653    656    659     1  0.0000000  0.5439200  3
    654    653    656    657     1  0.0000000  0.5020800  3
    654    653    656    658     1  0.0000000  0.5020800  3
    654    653    656    659     1  0.0000000  0.5439200  3
    653    656    659    660     1  0.0000000  0.6508444  3
    653    656    659    661     1  0.0000000  0.6508444  3
    652    650    653    654     1  0.0000000  0.6508444  3
    652    650    653    655     1  0.0000000  0.6508444  3
    652    650    653    656     1  0.0000000  0.6508444  3
    651    650    653    654     1  0.0000000  0.6508444  3
    651    650    653    655     1  0.0000000  0.6508444  3
    651    650    653    656     1  0.0000000  0.6508444  3
    650    653    656    657     1  0.0000000  0.5439200  3
    650    653    656    658     1  0.0000000  0.5439200  3
    649    650    653    654     1  0.0000000  1.0460000  1
    649    650    653    654     1  0.0000000  0.0000000  3
    649    650    653    655     1  0.0000000  1.0460000  1
    649    650    653    655     1  0.0000000  0.0000000  3
    647    649    650    651     1  0.0000000  1.6038667  3
    647    649    650    652     1  0.0000000  1.6038667  3
    645    644    646    647     1  180.0000771  15.1670000  2
    643    642    644    645     1  180.0000771  15.1670000  2
    643    642    644    646     1  180.0000771  15.1670000  2
    641    638    637    642     1  180.0000771  15.1670000  2
    641    638    639    646     1  180.0000771  15.1670000  2
    640    639    638    641     1  180.0000771  15.1670000  2
    640    639    646    644     1  180.0000771  15.1670000  2
    640    639    646    647     1  180.0000771  15.1670000  2
    639    646    644    645     1  180.0000771  15.1670000  2
    638    637    642    643     1  180.0000771  15.1670000  2
    637    638    639    640     1  180.0000771  15.1670000  2
    637    642    644    645     1  180.0000771  15.1670000  2
    635    637    638    641     1  180.0000771  15.1670000  2
    635    637    642    643     1  180.0000771  15.1670000  2
    633    631    634    635     1  0.0000000  1.6038667  3
    632    631    634    635     1  0.0000000  1.6038667  3
    686    684    687    688     1  0.0000000  0.6508444  3
    686    684    687    689     1  0.0000000  0.6508444  3
    686    684    687    690     1  0.0000000  1.0460000  1
    686    684    687    690     1  0.0000000  0.0000000  3
    685    684    687    688     1  0.0000000  0.6508444  3
    685    684    687    689     1  0.0000000  0.6508444  3
    685    684    687    690     1  0.0000000  1.0460000  1
    685    684    687    690     1  0.0000000  0.0000000  3
    683    681    684    685     1  0.0000000  0.5020800  3
    683    681    684    686     1  0.0000000  0.5020800  3
    683    681    684    687     1  0.0000000  0.5439200  3
    682    681    684    685     1  0.0000000  0.5020800  3
    682    681    684    686     1  0.0000000  0.5020800  3
    682    681    684    687     1  0.0000000  0.5439200  3
    681    684    687    688     1  0.0000000  0.6508444  3
    681    684    687    689     1  0.0000000  0.6508444  3
    680    678    681    682     1  0.0000000  0.6508444  3
    680    678    681    683     1  0.0000000  0.6508444  3
    680    678    681    684     1  0.0000000  0.6508444  3
    679    678    681    682     1  0.0000000  0.6508444  3
    679    678    681    683     1  0.0000000  0.6508444  3
    679    678    681    684     1  0.0000000  0.6508444  3
    678    681    684    685     1  0.0000000  0.5439200  3
    678    681    684    686     1  0.0000000  0.5439200  3
    677    678    681    682     1  0.0000000  1.0460000  1
    677    678    681    682     1  0.0000000  0.0000000  3
    677    678    681    683     1  0.0000000  1.0460000  1
    677    678    681    683     1  0.0000000  0.0000000  3
    675    677    678    679     1  0.0000000  1.6038667  3
    675    677    678    680     1  0.0000000  1.6038667  3
    673    672    674    675     1  180.0000771  15.1670000  2
    671    670    672    673     1  180.0000771  15.1670000  2
    671    670    672    674     1  180.0000771  15.1670000  2
    669    666    665    670     1  180.0000771  15.1670000  2
    669    666    667    674     1  180.0000771  15.1670000  2
    668    667    666    669     1  180.0000771  15.1670000  2
    668    667    674    672     1  180.0000771  15.1670000  2
    668    667    674    675     1  180.0000771  15.1670000  2
    667    674    672    673     1  180.0000771  15.1670000  2
    666    665    670    671     1  180.0000771  15.1670000  2
    665    666    667    668     1  180.0000771  15.1670000  2
    665    670    672    673     1  180.0000771  15.1670000  2
    663    665    666    669     1  180.0000771  15.1670000  2
    663    665    670    671     1  180.0000771  15.1670000  2
    661    659    662    663     1  0.0000000  1.6038667  3
    660    659    662    663     1  0.0000000  1.6038667  3
    721    719    722    723     1  0.0000000  0.6508444  3
    721    719    722    724     1  0.0000000  0.6508444  3
    721    719    722    725     1  0.0000000  1.0460000  1
    721    719    722    725     1  0.0000000  0.0000000  3
    720    719    722    723     1  0.0000000  0.6508444  3
    720    719    722    724     1  0.0000000  0.6508444  3
    720    719    722    725     1  0.0000000  1.0460000  1
    720    719    722    725     1  0.0000000  0.0000000  3
    718    719    722    723     1  0.0000000  1.0460000  1
    718    719    722    723     1  0.0000000  0.0000000  3
    718    719    722    724     1  0.0000000  1.0460000  1
    718    719    722    724     1  0.0000000  0.0000000  3
    717    715    718    719     1  0.0000000  1.4100080  3
    716    715    718    719     1  0.0000000  1.4100080  3
    715    718    719    720     1  0.0000000  1.4100080  3
    715    718    719    721     1  0.0000000  1.4100080  3
    714    712    715    716     1  0.0000000  0.6508444  3
    714    712    715    717     1  0.0000000  0.6508444  3
    714    712    715    718     1  0.0000000  1.0460000  1
    714    712    715    718     1  0.0000000  0.0000000  3
    713    712    715    716     1  0.0000000  0.6508444  3
    713    712    715    717     1  0.0000000  0.6508444  3
    713    712    715    718     1  0.0000000  1.0460000  1
    713    712    715    718     1  0.0000000  0.0000000  3
    711    712    715    716     1  0.0000000  1.0460000  1
    711    712    715    716     1  0.0000000  0.0000000  3
    711    712    715    717     1  0.0000000  1.0460000  1
    711    712    715    717     1  0.0000000  0.0000000  3
    710    708    711    712     1  0.0000000  1.4100080  3
    709    708    711    712     1  0.0000000  1.4100080  3
    708    711    712    713     1  0.0000000  1.4100080  3
    708    711    712    714     1  0.0000000  1.4100080  3
    707    705    708    709     1  0.0000000  0.6508444  3
    707    705    708    710     1  0.0000000  0.6508444  3
    707    705    708    711     1  0.0000000  1.0460000  1
    707    705    708    711     1  0.0000000  0.0000000  3
    706    705    708    709     1  0.0000000  0.6508444  3
    706    705    708    710     1  0.0000000  0.6508444  3
    706    705    708    711     1  0.0000000  1.0460000  1
    706    705    708    711     1  0.0000000  0.0000000  3
    704    705    708    709     1  0.0000000  1.0460000  1
    704    705    708    709     1  0.0000000  0.0000000  3
    704    705    708    710     1  0.0000000  1.0460000  1
    704    705    708    710     1  0.0000000  0.0000000  3
    703    701    704    705     1  0.0000000  1.4100080  3
    702    701    704    705     1  0.0000000  1.4100080  3
    701    704    705    706     1  0.0000000  1.4100080  3
    701    704    705    707     1  0.0000000  1.4100080  3
    700    698    701    702     1  0.0000000  0.6508444  3
    700    698    701    703     1  0.0000000  0.6508444  3
    700    698    701    704     1  0.0000000  1.0460000  1
    700    698    701    704     1  0.0000000  0.0000000  3
    699    698    701    702     1  0.0000000  0.6508444  3
    699    698    701    703     1  0.0000000  0.6508444  3
    699    698    701    704     1  0.0000000  1.0460000  1
    699    698    701    704     1  0.0000000  0.0000000  3
    697    698    701    702     1  0.0000000  1.0460000  1
    697    698    701    702     1  0.0000000  0.0000000  3
    697    698    701    703     1  0.0000000  1.0460000  1
    697    698    701    703     1  0.0000000  0.0000000  3
    696    694    697    698     1  0.0000000  1.4100080  3
    695    694    697    698     1  0.0000000  1.4100080  3
    694    697    698    699     1  0.0000000  1.4100080  3
    694    697    698    700     1  0.0000000  1.4100080  3
    693    691    694    695     1  0.0000000  0.6508444  3
    693    691    694    696     1  0.0000000  0.6508444  3
    693    691    694    697     1  0.0000000  1.0460000  1
    693    691    694    697     1  0.0000000  0.0000000  3
    692    691    694    695     1  0.0000000  0.6508444  3
    692    691    694    696     1  0.0000000  0.6508444  3
    692    691    694    697     1  0.0000000  1.0460000  1
    692    691    694    697     1  0.0000000  0.0000000  3
    690    691    694    695     1  0.0000000  1.0460000  1
    690    691    694    695     1  0.0000000  0.0000000  3
    690    691    694    696     1  0.0000000  1.0460000  1
    690    691    694    696     1  0.0000000  0.0000000  3
    689    687    690    691     1  0.0000000  1.4100080  3
    688    687    690    691     1  0.0000000  1.4100080  3
    687    690    691    692     1  0.0000000  1.4100080  3
    687    690    691    693     1  0.0000000  1.4100080  3
    749    747    750    751     1  0.0000000  0.6508444  3
    749    747    750    752     1  0.0000000  0.6508444  3
    749    747    750    753     1  0.0000000  1.0460000  1
    749    747    750    753     1  0.0000000  0.0000000  3
    748    747    750    751     1  0.0000000  0.6508444  3
    748    747    750    752     1  0.0000000  0.6508444  3
    748    747    750    753     1  0.0000000  1.0460000  1
    748    747    750    753     1  0.0000000  0.0000000  3
    746    744    747    748     1  0.0000000  0.5020800  3
    746    744    747    749     1  0.0000000  0.5020800  3
    746    744    747    750     1  0.0000000  0.5439200  3
    745    744    747    748     1  0.0000000  0.5020800  3
    745    744    747    749     1  0.0000000  0.5020800  3
    745    744    747    750     1  0.0000000  0.5439200  3
    744    747    750    751     1  0.0000000  0.6508444  3
    744    747    750    752     1  0.0000000  0.6508444  3
    743    741    744    745     1  0.0000000  0.6508444  3
    743    741    744    746     1  0.0000000  0.6508444  3
    743    741    744    747     1  0.0000000  0.6508444  3
    742    741    744    745     1  0.0000000  0.6508444  3
    742    741    744    746     1  0.0000000  0.6508444  3
    742    741    744    747     1  0.0000000  0.6508444  3
    741    744    747    748     1  0.0000000  0.5439200  3
    741    744    747    749     1  0.0000000  0.5439200  3
    740    741    744    745     1  0.0000000  1.0460000  1
    740    741    744    745     1  0.0000000  0.0000000  3
    740    741    744    746     1  0.0000000  1.0460000  1
    740    741    744    746     1  0.0000000  0.0000000  3
    738    740    741    742     1  0.0000000  1.6038667  3
    738    740    741    743     1  0.0000000  1.6038667  3
    736    735    737    738     1  180.0000771  15.1670000  2
    734    733    735    736     1  180.0000771  15.1670000  2
    734    733    735    737     1  180.0000771  15.1670000  2
    732    729    728    733     1  180.0000771  15.1670000  2
    732    729    730    737     1  180.0000771  15.1670000  2
    731    730    729    732     1  180.0000771  15.1670000  2
    731    730    737    735     1  180.0000771  15.1670000  2
    731    730    737    738     1  180.0000771  15.1670000  2
    730    737    735    736     1  180.0000771  15.1670000  2
    729    728    733    734     1  180.0000771  15.1670000  2
    728    729    730    731     1  180.0000771  15.1670000  2
    728    733    735    736     1  180.0000771  15.1670000  2
    726    728    729    732     1  180.0000771  15.1670000  2
    726    728    733    734     1  180.0000771  15.1670000  2
    724    722    725    726     1  0.0000000  1.6038667  3
    723    722    725    726     1  0.0000000  1.6038667  3
    777    775    778    779     1  0.0000000  0.6508444  3
    777    775    778    780     1  0.0000000  0.6508444  3
    777    775    778    781     1  0.0000000  1.0460000  1
    777    775    778    781     1  0.0000000  0.0000000  3
    776    775    778    779     1  0.0000000  0.6508444  3
    776    775    778    780     1  0.0000000  0.6508444  3
    776    775    778    781     1  0.0000000  1.0460000  1
    776    775    778    781     1  0.0000000  0.0000000  3
    774    772    775    776     1  0.0000000  0.5020800  3
    774    772    775    777     1  0.0000000  0.5020800  3
    774    772    775    778     1  0.0000000  0.5439200  3
    773    772    775    776     1  0.0000000  0.5020800  3
    773    772    775    777     1  0.0000000  0.5020800  3
    773    772    775    778     1  0.0000000  0.5439200  3
    772    775    778    779     1  0.0000000  0.6508444  3
    772    775    778    780     1  0.0000000  0.6508444  3
    771    769    772    773     1  0.0000000  0.6508444  3
    771    769    772    774     1  0.0000000  0.6508444  3
    771    769    772    775     1  0.0000000  0.6508444  3
    770    769    772    773     1  0.0000000  0.6508444  3
    770    769    772    774     1  0.0000000  0.6508444  3
    770    769    772    775     1  0.0000000  0.6508444  3
    769    772    775    776     1  0.0000000  0.5439200  3
    769    772    775    777     1  0.0000000  0.5439200  3
    768    769    772    773     1  0.0000000  1.0460000  1
    768    769    772    773     1  0.0000000  0.0000000  3
    768    769    772    774     1  0.0000000  1.0460000  1
    768    769    772    774     1  0.0000000  0.0000000  3
    766    768    769    770     1  0.0000000  1.6038667  3
    766    768    769    771     1  0.0000000  1.6038667  3
    764    763    765    766     1  180.0000771  15.1670000  2
    762    761    763    764     1  180.0000771  15.1670000  2
    762    761    763    765     1  180.0000771  15.1670000  2
    760    757    756    761     1  180.0000771  15.1670000  2
    760    757    758    765     1  180.0000771  15.1670000  2
    759    758    757    760     1  180.0000771  15.1670000  2
    759    758    765    763     1  180.0000771  15.1670000  2
    759    758    765    766     1  180.0000771  15.1670000  2
    758    765    763    764     1  180.0000771  15.1670000  2
    757    756    761    762     1  180.0000771  15.1670000  2
    756    757    758    759     1  180.0000771  15.1670000  2
    756    761    763    764     1  180.0000771  15.1670000  2
    754    756    757    760     1  180.0000771  15.1670000  2
    754    756    761    762     1  180.0000771  15.1670000  2
    752    750    753    754     1  0.0000000  1.6038667  3
    751    750    753    754     1  0.0000000  1.6038667  3
    812    810    813    814     1  0.0000000  0.6508444  3
    812    810    813    815     1  0.0000000  0.6508444  3
    812    810    813    816     1  0.0000000  1.0460000  1
    812    810    813    816     1  0.0000000  0.0000000  3
    811    810    813    814     1  0.0000000  0.6508444  3
    811    810    813    815     1  0.0000000  0.6508444  3
    811    810    813    816     1  0.0000000  1.0460000  1
    811    810    813    816     1  0.0000000  0.0000000  3
    809    810    813    814     1  0.0000000  1.0460000  1
    809    810    813    814     1  0.0000000  0.0000000  3
    809    810    813    815     1  0.0000000  1.0460000  1
    809    810    813    815     1  0.0000000  0.0000000  3
    808    806    809    810     1  0.0000000  1.4100080  3
    807    806    809    810     1  0.0000000  1.4100080  3
    806    809    810    811     1  0.0000000  1.4100080  3
    806    809    810    812     1  0.0000000  1.4100080  3
    805    803    806    807     1  0.0000000  0.6508444  3
    805    803    806    808     1  0.0000000  0.6508444  3
    805    803    806    809     1  0.0000000  1.0460000  1
    805    803    806    809     1  0.0000000  0.0000000  3
    804    803    806    807     1  0.0000000  0.6508444  3
    804    803    806    808     1  0.0000000  0.6508444  3
    804    803    806    809     1  0.0000000  1.0460000  1
    804    803    806    809     1  0.0000000  0.0000000  3
    802    803    806    807     1  0.0000000  1.0460000  1
    802    803    806    807     1  0.0000000  0.0000000  3
    802    803    806    808     1  0.0000000  1.0460000  1
    802    803    806    808     1  0.0000000  0.0000000  3
    801    799    802    803     1  0.0000000  1.4100080  3
    800    799    802    803     1  0.0000000  1.4100080  3
    799    802    803    804     1  0.0000000  1.4100080  3
    799    802    803    805     1  0.0000000  1.4100080  3
    798    796    799    800     1  0.0000000  0.6508444  3
    798    796    799    801     1  0.0000000  0.6508444  3
    798    796    799    802     1  0.0000000  1.0460000  1
    798    796    799    802     1  0.0000000  0.0000000  3
    797    796    799    800     1  0.0000000  0.6508444  3
    797    796    799    801     1  0.0000000  0.6508444  3
    797    796    799    802     1  0.0000000  1.0460000  1
    797    796    799    802     1  0.0000000  0.0000000  3
    795    796    799    800     1  0.0000000  1.0460000  1
    795    796    799    800     1  0.0000000  0.0000000  3
    795    796    799    801     1  0.0000000  1.0460000  1
    795    796    799    801     1  0.0000000  0.0000000  3
    794    792    795    796     1  0.0000000  1.4100080  3
    793    792    795    796     1  0.0000000  1.4100080  3
    792    795    796    797     1  0.0000000  1.4100080  3
    792    795    796    798     1  0.0000000  1.4100080  3
    791    789    792    793     1  0.0000000  0.6508444  3
    791    789    792    794     1  0.0000000  0.6508444  3
    791    789    792    795     1  0.0000000  1.0460000  1
    791    789    792    795     1  0.0000000  0.0000000  3
    790    789    792    793     1  0.0000000  0.6508444  3
    790    789    792    794     1  0.0000000  0.6508444  3
    790    789    792    795     1  0.0000000  1.0460000  1
    790    789    792    795     1  0.0000000  0.0000000  3
    788    789    792    793     1  0.0000000  1.0460000  1
    788    789    792    793     1  0.0000000  0.0000000  3
    788    789    792    794     1  0.0000000  1.0460000  1
    788    789    792    794     1  0.0000000  0.0000000  3
    787    785    788    789     1  0.0000000  1.4100080  3
    786    785    788    789     1  0.0000000  1.4100080  3
    785    788    789    790     1  0.0000000  1.4100080  3
    785    788    789    791     1  0.0000000  1.4100080  3
    784    782    785    786     1  0.0000000  0.6508444  3
    784    782    785    787     1  0.0000000  0.6508444  3
    784    782    785    788     1  0.0000000  1.0460000  1
    784    782    785    788     1  0.0000000  0.0000000  3
    783    782    785    786     1  0.0000000  0.6508444  3
    783    782    785    787     1  0.0000000  0.6508444  3
    783    782    785    788     1  0.0000000  1.0460000  1
    783    782    785    788     1  0.0000000  0.0000000  3
    781    782    785    786     1  0.0000000  1.0460000  1
    781    782    785    786     1  0.0000000  0.0000000  3
    781    782    785    787     1  0.0000000  1.0460000  1
    781    782    785    787     1  0.0000000  0.0000000  3
    780    778    781    782     1  0.0000000  1.4100080  3
    779    778    781    782     1  0.0000000  1.4100080  3
    778    781    782    783     1  0.0000000  1.4100080  3
    778    781    782    784     1  0.0000000  1.4100080  3
    847    845    848    849     1  0.0000000  0.6508444  3
    847    845    848    850     1  0.0000000  0.6508444  3
    847    845    848    851     1  0.0000000  1.0460000  1
    847    845    848    851     1  0.0000000  0.0000000  3
    846    845    848    849     1  0.0000000  0.6508444  3
    846    845    848    850     1  0.0000000  0.6508444  3
    846    845    848    851     1  0.0000000  1.0460000  1
    846    845    848    851     1  0.0000000  0.0000000  3
    844    845    848    849     1  0.0000000  1.0460000  1
    844    845    848    849     1  0.0000000  0.0000000  3
    844    845    848    850     1  0.0000000  1.0460000  1
    844    845    848    850     1  0.0000000  0.0000000  3
    843    841    844    845     1  0.0000000  1.4100080  3
    842    841    844    845     1  0.0000000  1.4100080  3
    841    844    845    846     1  0.0000000  1.4100080  3
    841    844    845    847     1  0.0000000  1.4100080  3
    840    838    841    842     1  0.0000000  0.6508444  3
    840    838    841    843     1  0.0000000  0.6508444  3
    840    838    841    844     1  0.0000000  1.0460000  1
    840    838    841    844     1  0.0000000  0.0000000  3
    839    838    841    842     1  0.0000000  0.6508444  3
    839    838    841    843     1  0.0000000  0.6508444  3
    839    838    841    844     1  0.0000000  1.0460000  1
    839    838    841    844     1  0.0000000  0.0000000  3
    837    838    841    842     1  0.0000000  1.0460000  1
    837    838    841    842     1  0.0000000  0.0000000  3
    837    838    841    843     1  0.0000000  1.0460000  1
    837    838    841    843     1  0.0000000  0.0000000  3
    836    834    837    838     1  0.0000000  1.4100080  3
    835    834    837    838     1  0.0000000  1.4100080  3
    834    837    838    839     1  0.0000000  1.4100080  3
    834    837    838    840     1  0.0000000  1.4100080  3
    833    831    834    835     1  0.0000000  0.6508444  3
    833    831    834    836     1  0.0000000  0.6508444  3
    833    831    834    837     1  0.0000000  1.0460000  1
    833    831    834    837     1  0.0000000  0.0000000  3
    832    831    834    835     1  0.0000000  0.6508444  3
    832    831    834    836     1  0.0000000  0.6508444  3
    832    831    834    837     1  0.0000000  1.0460000  1
    832    831    834    837     1  0.0000000  0.0000000  3
    830    831    834    835     1  0.0000000  1.0460000  1
    830    831    834    835     1  0.0000000  0.0000000  3
    830    831    834    836     1  0.0000000  1.0460000  1
    830    831    834    836     1  0.0000000  0.0000000  3
    829    827    830    831     1  0.0000000  1.4100080  3
    828    827    830    831     1  0.0000000  1.4100080  3
    827    830    831    832     1  0.0000000  1.4100080  3
    827    830    831    833     1  0.0000000  1.4100080  3
    826    824    827    828     1  0.0000000  0.6508444  3
    826    824    827    829     1  0.0000000  0.6508444  3
    826    824    827    830     1  0.0000000  1.0460000  1
    826    824    827    830     1  0.0000000  0.0000000  3
    825    824    827    828     1  0.0000000  0.6508444  3
    825    824    827    829     1  0.0000000  0.6508444  3
    825    824    827    830     1  0.0000000  1.0460000  1
    825    824    827    830     1  0.0000000  0.0000000  3
    823    824    827    828     1  0.0000000  1.0460000  1
    823    824    827    828     1  0.0000000  0.0000000  3
    823    824    827    829     1  0.0000000  1.0460000  1
    823    824    827    829     1  0.0000000  0.0000000  3
    822    820    823    824     1  0.0000000  1.4100080  3
    821    820    823    824     1  0.0000000  1.4100080  3
    820    823    824    825     1  0.0000000  1.4100080  3
    820    823    824    826     1  0.0000000  1.4100080  3
    819    817    820    821     1  0.0000000  0.6508444  3
    819    817    820    822     1  0.0000000  0.6508444  3
    819    817    820    823     1  0.0000000  1.0460000  1
    819    817    820    823     1  0.0000000  0.0000000  3
    818    817    820    821     1  0.0000000  0.6508444  3
    818    817    820    822     1  0.0000000  0.6508444  3
    818    817    820    823     1  0.0000000  1.0460000  1
    818    817    820    823     1  0.0000000  0.0000000  3
    816    817    820    821     1  0.0000000  1.0460000  1
    816    817    820    821     1  0.0000000  0.0000000  3
    816    817    820    822     1  0.0000000  1.0460000  1
    816    817    820    822     1  0.0000000  0.0000000  3
    815    813    816    817     1  0.0000000  1.4100080  3
    814    813    816    817     1  0.0000000  1.4100080  3
    813    816    817    818     1  0.0000000  1.4100080  3
    813    816    817    819     1  0.0000000  1.4100080  3
    872    870    873    874     1  0.0000000  0.5020800  3
    872    870    873    875     1  0.0000000  0.5020800  3
    871    870    873    874     1  0.0000000  0.5020800  3
    871    870    873    875     1  0.0000000  0.5020800  3
    869    867    870    871     1  0.0000000  0.6508444  3
    869    867    870    872     1  0.0000000  0.6508444  3
    869    867    870    873     1  0.0000000  0.6508444  3
    868    867    870    871     1  0.0000000  0.6508444  3
    868    867    870    872     1  0.0000000  0.6508444  3
    868    867    870    873     1  0.0000000  0.6508444  3
    867    870    873    874     1  0.0000000  0.5439200  3
    867    870    873    875     1  0.0000000  0.5439200  3
    866    867    870    871     1  0.0000000  1.0460000  1
    866    867    870    871     1  0.0000000  0.0000000  3
    866    867    870    872     1  0.0000000  1.0460000  1
    866    867    870    872     1  0.0000000  0.0000000  3
    864    866    867    868     1  0.0000000  1.6038667  3
    864    866    867    869     1  0.0000000  1.6038667  3
    862    861    863    864     1  180.0000771  15.1670000  2
    860    859    861    862     1  180.0000771  15.1670000  2
    860    859    861    863     1  180.0000771  15.1670000  2
    858    855    854    859     1  180.0000771  15.1670000  2
    858    855    856    863     1  180.0000771  15.1670000  2
    857    856    855    858     1  180.0000771  15.1670000  2
    857    856    863    861     1  180.0000771  15.1670000  2
    857    856    863    864     1  180.0000771  15.1670000  2
    856    863    861    862     1  180.0000771  15.1670000  2
    855    854    859    860     1  180.0000771  15.1670000  2
    854    855    856    857     1  180.0000771  15.1670000  2
    854    859    861    862     1  180.0000771  15.1670000  2
    852    854    855    858     1  180.0000771  15.1670000  2
    852    854    859    860     1  180.0000771  15.1670000  2
    850    848    851    852     1  0.0000000  1.6038667  3
    849    848    851    852     1  0.0000000  1.6038667  3
     12     16     14     15     4  180.0000771  4.6024000  2
      7     14     12     13     4  180.0000771  4.6024000  2
      8     16      9     10     4  180.0000771  4.6024000  2
      7      9      8     11     4  180.0000771  4.6024000  2
     75     79     77     78     4  180.0000771  4.6024000  2
     70     77     75     76     4  180.0000771  4.6024000  2
     71     79     72     73     4  180.0000771  4.6024000  2
     70     72     71     74     4  180.0000771  4.6024000  2
    103    107    105    106     4  180.0000771  4.6024000  2
     98    105    103    104     4  180.0000771  4.6024000  2
     99    107    100    101     4  180.0000771  4.6024000  2
     98    100     99    102     4  180.0000771  4.6024000  2
    131    135    133    134     4  180.0000771  4.6024000  2
    126    133    131    132     4  180.0000771  4.6024000  2
    127    135    128    129     4  180.0000771  4.6024000  2
    126    128    127    130     4  180.0000771  4.6024000  2
    194    198    196    197     4  180.0000771  4.6024000  2
    189    196    194    195     4  180.0000771  4.6024000  2
    190    198    191    192     4  180.0000771  4.6024000  2
    189    191    190    193     4  180.0000771  4.6024000  2
    222    226    224    225     4  180.0000771  4.6024000  2
    217    224    222    223     4  180.0000771  4.6024000  2
    218    226    219    220     4  180.0000771  4.6024000  2
    217    219    218    221     4  180.0000771  4.6024000  2
    250    254    252    253     4  180.0000771  4.6024000  2
    245    252    250    251     4  180.0000771  4.6024000  2
    246    254    247    248     4  180.0000771  4.6024000  2
    245    247    246    249     4  180.0000771  4.6024000  2
    278    282    280    281     4  180.0000771  4.6024000  2
    273    280    278    279     4  180.0000771  4.6024000  2
    274    282    275    276     4  180.0000771  4.6024000  2
    273    275    274    277     4  180.0000771  4.6024000  2
    306    310    308    309     4  180.0000771  4.6024000  2
    301    308    306    307     4  180.0000771  4.6024000  2
    302    310    303    304     4  180.0000771  4.6024000  2
    301    303    302    305     4  180.0000771  4.6024000  2
    334    338    336    337     4  180.0000771  4.6024000  2
    329    336    334    335     4  180.0000771  4.6024000  2
    330    338    331    332     4  180.0000771  4.6024000  2
    329    331    330    333     4  180.0000771  4.6024000  2
    362    366    364    365     4  180.0000771  4.6024000  2
    357    364    362    363     4  180.0000771  4.6024000  2
    358    366    359    360     4  180.0000771  4.6024000  2
    357    359    358    361     4  180.0000771  4.6024000  2
    390    394    392    393     4  180.0000771  4.6024000  2
    385    392    390    391     4  180.0000771  4.6024000  2
    386    394    387    388     4  180.0000771  4.6024000  2
    385    387    386    389     4  180.0000771  4.6024000  2
    418    422    420    421     4  180.0000771  4.6024000  2
    413    420    418    419     4  180.0000771  4.6024000  2
    414    422    415    416     4  180.0000771  4.6024000  2
    413    415    414    417     4  180.0000771  4.6024000  2
    446    450    448    449     4  180.0000771  4.6024000  2
    441    448    446    447     4  180.0000771  4.6024000  2
    442    450    443    444     4  180.0000771  4.6024000  2
    441    443    442    445     4  180.0000771  4.6024000  2
    474    478    476    477     4  180.0000771  4.6024000  2
    469    476    474    475     4  180.0000771  4.6024000  2
    470    478    471    472     4  180.0000771  4.6024000  2
    469    471    470    473     4  180.0000771  4.6024000  2
    502    506    504    505     4  180.0000771  4.6024000  2
    497    504    502    503     4  180.0000771  4.6024000  2
    498    506    499    500     4  180.0000771  4.6024000  2
    497    499    498    501     4  180.0000771  4.6024000  2
    530    534    532    533     4  180.0000771  4.6024000  2
    525    532    530    531     4  180.0000771  4.6024000  2
    526    534    527    528     4  180.0000771  4.6024000  2
    525    527    526    529     4  180.0000771  4.6024000  2
    558    562    560    561     4  180.0000771  4.6024000  2
    553    560    558    559     4  180.0000771  4.6024000  2
    554    562    555    556     4  180.0000771  4.6024000  2
    553    555    554    557     4  180.0000771  4.6024000  2
    586    590    588    589     4  180.0000771  4.6024000  2
    581    588    586    587     4  180.0000771  4.6024000  2
    582    590    583    584     4  180.0000771  4.6024000  2
    581    583    582    585     4  180.0000771  4.6024000  2
    614    618    616    617     4  180.0000771  4.6024000  2
    609    616    614    615     4  180.0000771  4.6024000  2
    610    618    611    612     4  180.0000771  4.6024000  2
    609    611    610    613     4  180.0000771  4.6024000  2
    642    646    644    645     4  180.0000771  4.6024000  2
    637    644    642    643     4  180.0000771  4.6024000  2
    638    646    639    640     4  180.0000771  4.6024000  2
    637    639    638    641     4  180.0000771  4.6024000  2
    670    674    672    673     4  180.0000771  4.6024000  2
    665    672    670    671     4  180.0000771  4.6024000  2
    666    674    667    668     4  180.0000771  4.6024000  2
    665    667    666    669     4  180.0000771  4.6024000  2
    733    737    735    736     4  180.0000771  4.6024000  2
    728    735    733    734     4  180.0000771  4.6024000  2
    729    737    730    731     4  180.0000771  4.6024000  2
    728    730    729    732     4  180.0000771  4.6024000  2
    761    765    763    764     4  180.0000771  4.6024000  2
    756    763    761    762     4  180.0000771  4.6024000  2
    757    765    758    759     4  180.0000771  4.6024000  2
    756    758    757    760     4  180.0000771  4.6024000  2
    859    863    861    862     4  180.0000771  4.6024000  2
    854    861    859    860     4  180.0000771  4.6024000  2
    855    863    856    857     4  180.0000771  4.6024000  2
    854    856    855    858     4  180.0000771  4.6024000  2

[ system ]
; Name
Generic title in water

[ molecules ]
; Compound       #mols
system1              1
SOL         800
NA               100
CL               100
