Generic title in water
 3483
    1PEO     C1    1   1.679   1.550   0.201 -1.1141 -0.8227  0.4904
    1PEO     H3    2   1.660   1.548   0.308 -2.4262  0.5106  0.3119
    1PEO     H4    3   1.686   1.655   0.172  0.5739 -0.4956  1.9507
    1PEO      O    4   1.568   1.487   0.135 -0.1703  0.4942 -0.4254
    1PEO     C2    5   1.555   1.342   0.145 -0.1695 -0.0183 -0.3437
    1PEO     H5    6   1.458   1.301   0.115 -0.1375  0.2708 -0.8430
    1PEO     H6    7   1.568   1.310   0.249 -2.5845  1.8083  0.6290
    1PEO     C3    8   1.665   1.271   0.063  0.3790  0.7331  0.3441
    1PEO     H7    9   1.687   1.168   0.094  0.3703  0.3690 -0.8307
    1PEO     H8   10   1.762   1.322   0.068  0.7734  0.0068  0.2733
    1PEO     O1   11   1.618   1.275  -0.070 -0.0836 -0.4058  0.3723
    1PEO     C4   12   1.689   1.189  -0.162 -0.3263 -0.3677 -0.4682
    1PEO     H9   13   1.632   1.183  -0.256  1.0250  0.2985 -1.3603
    1PEO    H10   14   1.710   1.091  -0.117  2.6780  0.4928  0.2281
    1PEO     C5   15   1.820   1.262  -0.206 -0.3573  0.3084 -0.2539
    1PEO    H11   16   1.854   1.316  -0.117 -0.4663  1.1213 -0.6940
    1PEO    H12   17   1.785   1.341  -0.274  0.8583  1.8848  0.8871
    1PEO     O2   18   1.914   1.181  -0.277 -0.1983  0.2548 -0.1769
    1PEO     C6   19   1.976   1.081  -0.201 -0.2964 -0.1461 -0.0229
    1PEO    H13   20   1.900   1.020  -0.151 -0.3058 -0.3010 -0.2215
    1PEO    H14   21   2.047   1.128  -0.132 -0.4299  0.6757 -0.4245
    1PEO     C7   22   2.051   0.992  -0.304 -0.7300 -0.1274  1.2713
    1PEO    H15   23   2.157   1.014  -0.286 -0.5468 -0.2512  0.3751
    1PEO    H16   24   2.017   1.024  -0.403 -2.4389  1.2691  2.2503
    1PEO     O3   25   2.009   0.856  -0.291 -0.5964 -0.0281 -0.4094
    1PEO     C8   26   2.079   0.784  -0.188  0.1973  0.7622 -0.0939
    1PEO    H17   27   2.078   0.845  -0.097 -0.1766  0.9916 -0.2456
    1PEO    H18   28   2.180   0.765  -0.225 -0.5439  0.9431 -2.4365
    1PEO     C9   29   2.014   0.649  -0.153  0.1043 -0.2009  0.0827
    1PEO    H19   30   1.911   0.671  -0.121  0.4353  0.2194  0.8791
    1PEO    H20   31   2.064   0.615  -0.062 -1.0879  1.8823  1.6103
    1PEO     O4   32   2.009   0.558  -0.263  0.0752  0.3294 -0.5956
    1PEO    C10   33   2.130   0.495  -0.307 -0.5939  0.0815 -0.4323
    1PEO    H21   34   2.208   0.570  -0.324  2.0177 -2.1315  1.1008
    1PEO    H22   35   2.104   0.456  -0.406 -0.7338 -0.7724 -0.0684
    2PEO     C1   36   2.175   0.379  -0.205  0.2677  0.4533 -0.8603
    2PEO     H3   37   2.256   0.322  -0.252  1.9071  1.6389  0.4190
    2PEO     H4   38   2.093   0.309  -0.184 -0.1977  0.9518 -0.9918
    2PEO      O   39   2.223   0.430  -0.070  0.4116  0.3038  0.0713
    2PEO     C2   40   2.340   0.514  -0.075 -0.4499  0.3620  0.3075
    2PEO     H5   41   2.346   0.597  -0.147  0.6040 -0.3479 -0.4480
    2PEO     H6   42   2.417   0.445  -0.112  1.6244  0.8103  3.4300
    2PEO     C3   43   2.370   0.566   0.067  0.6749  0.1633  0.1688
    2PEO     H7   44   2.473   0.604   0.064  0.0416  1.9397 -0.6849
    2PEO     H8   45   2.359   0.485   0.140 -3.6256  0.9455  0.6838
    2PEO     O1   46   2.283   0.669   0.103  0.1589 -1.0077  0.7151
    2PEO     C4   47   2.303   0.721   0.235  0.1974  0.4464 -0.3074
    2PEO     H9   48   2.410   0.706   0.254 -0.0459  0.4640  1.1746
    2PEO    H10   49   2.250   0.663   0.311  0.7470  1.7725  1.1440
    2PEO     C5   50   2.254   0.866   0.255  0.4280  0.3662 -0.7244
    2PEO    H11   51   2.247   0.889   0.362  0.2253 -1.7512 -0.2359
    2PEO    H12   52   2.152   0.882   0.220  0.7991  0.1472 -1.9432
    2PEO     O2   53   2.345   0.956   0.192 -0.7499  0.8578  0.1955
    2PEO     C6   54   2.302   0.999   0.062 -0.0371 -0.5236  0.7143
    2PEO    H13   55   2.213   1.060   0.080  0.0403 -0.7897  2.0763
    2PEO    H14   56   2.293   0.910  -0.002  3.3379 -0.9942  0.6680
    2PEO     C7   57   2.418   1.087  -0.003 -0.8149  0.5580 -0.0932
    2PEO    H15   58   2.447   1.173   0.059  0.0987  0.0998  0.1277
    2PEO    H16   59   2.403   1.129  -0.103  1.4007  0.0234 -0.6995
    2PEO     O3   60   2.531   1.000  -0.006  0.9935  0.2006  0.1931
    2PEO     C8   61   2.656   1.051  -0.057 -0.0786  0.4215 -0.5982
    2PEO    H17   62   2.744   0.998  -0.021  0.3467  0.1958 -1.8979
    2PEO    H18   63   2.667   1.146  -0.003  0.3808 -0.7573  1.4767
    2PEO     C9   64   2.661   1.057  -0.212  0.3958 -0.6309  0.1158
    2PEO    H19   65   2.732   1.134  -0.245 -1.3643  1.2557  0.5093
    2PEO    H20   66   2.569   1.102  -0.251 -0.2035 -1.8317  0.1195
    2PEO     O4   67   2.710   0.924  -0.260  0.2418 -0.6269 -0.8296
    2PEO    C10   68   2.630   0.810  -0.239  0.2151  0.4185  0.2157
    2PEO    H21   69   2.608   0.791  -0.133 -3.9766 -0.1436 -0.5883
    2PEO    H22   70   2.676   0.712  -0.259  0.3169  0.2427  1.2572
    3PEO     C1   71   2.491   0.815  -0.301 -0.4424  0.4536  0.0023
    3PEO     H3   72   2.450   0.908  -0.261  1.1308  0.6849  1.1909
    3PEO     H4   73   2.438   0.725  -0.267 -0.5448  0.5991  0.2314
    3PEO      O   74   2.502   0.823  -0.445 -0.1078  0.0125 -0.5219
    3PEO     C2   75   2.387   0.862  -0.516  0.5939 -0.6956 -0.0806
    3PEO     H5   76   2.344   0.956  -0.480  0.8722 -0.5028 -0.2546
    3PEO     H6   77   2.313   0.781  -0.514  1.0928 -1.1459  1.3351
    3PEO     C3   78   2.434   0.888  -0.664  0.1225 -0.7327 -0.3322
    3PEO     H7   79   2.345   0.890  -0.727  0.3723  0.1110 -0.6694
    3PEO     H8   80   2.495   0.805  -0.702 -0.6033 -0.7956 -1.3911
    3PEO     O1   81   2.506   1.021  -0.668  0.1857 -0.2528  0.0022
    3PEO     C4   82   2.644   1.007  -0.684 -0.4587 -0.0746  0.1916
    3PEO     H9   83   2.673   0.985  -0.788 -2.6278 -0.7976 -0.3250
    3PEO    H10   84   2.680   0.922  -0.625  2.0234 -0.0012 -1.0764
    3PEO     C5   85   2.718   1.139  -0.640  0.2959  0.1523  0.3098
    3PEO    H11   86   2.821   1.123  -0.673 -0.0625 -1.4868 -0.1206
    3PEO    H12   87   2.718   1.147  -0.530 -0.8177 -0.9043  0.4213
    3PEO     O2   88   2.670   1.256  -0.702 -0.7805  0.1093 -0.1517
    3PEO     C6   89   2.688   1.273  -0.846 -0.1426 -0.1811  0.2531
    3PEO    H13   90   2.603   1.333  -0.881 -0.9286 -1.5558 -0.3178
    3PEO    H14   91   2.672   1.181  -0.904 -3.1817  0.1270  0.4337
    3PEO     C7   92   2.826   1.356  -0.867  0.4276  0.0267 -0.1661
    3PEO    H15   93   2.834   1.430  -0.786 -0.0663 -0.2263  0.1151
    3PEO    H16   94   2.825   1.408  -0.964  1.6478  2.6934  1.1382
    3PEO     O3   95   2.940   1.265  -0.862  0.1633 -0.2300  0.1032
    3PEO     C8   96   2.972   1.188  -0.975  0.1971 -0.3776  0.6482
    3PEO    H17   97   2.892   1.137  -1.030  0.9359  2.4753 -3.5025
    3PEO    H18   98   3.043   1.110  -0.945  0.8776 -0.3550 -0.8190
    3PEO     C9   99   3.056   1.262  -1.082  0.2182 -0.1705 -0.7274
    3PEO    H19  100   3.104   1.196  -1.155  0.2592 -0.9296 -0.0267
    3PEO    H20  101   3.141   1.313  -1.035 -0.8457  1.0848 -0.1242
    3PEO     O4  102   2.972   1.359  -1.159  0.0027 -0.2789  0.3074
    3PEO    C10  103   3.042   1.476  -1.213 -0.3581  0.2220 -1.1050
    3PEO    H21  104   3.092   1.453  -1.308 -1.0777 -0.5124 -1.3156
    3PEO    H22  105   3.114   1.515  -1.140  1.1978  1.2311 -3.0970
    4PEO     C1  106   2.938   1.587  -1.236 -0.5202  0.3059 -1.0228
    4PEO     H3  107   2.996   1.673  -1.269  3.1167 -1.3480  0.5715
    4PEO     H4  108   2.885   1.606  -1.142  2.2497  3.2209  0.1238
    4PEO      O  109   2.842   1.545  -1.338  0.3870 -0.1085  0.4040
    4PEO     C2  110   2.774   1.647  -1.415  0.7956  0.5844  0.3568
    4PEO     H5  111   2.845   1.709  -1.472  1.4401  0.1496  0.6670
    4PEO     H6  112   2.711   1.709  -1.350  0.0920  0.3552 -0.0990
    4PEO     C3  113   2.667   1.575  -1.512 -0.8327  0.5364  0.1009
    4PEO     H7  114   2.593   1.646  -1.549 -3.3420 -2.4068 -1.0279
    4PEO     H8  115   2.609   1.515  -1.440 -1.0284 -3.2141 -2.8100
    4PEO     O1  116   2.730   1.500  -1.611  0.1184 -0.0004 -0.1639
    4PEO     C4  117   2.797   1.584  -1.706  0.0924 -0.7594  0.4070
    4PEO     H9  118   2.868   1.655  -1.665  0.2131 -1.2090  0.9854
    4PEO    H10  119   2.720   1.645  -1.754  0.8118  0.6107  0.9638
    4PEO     C5  120   2.876   1.489  -1.794 -0.0144  0.2864  0.5218
    4PEO    H11  121   2.896   1.541  -1.888 -1.4775 -1.2613 -0.7253
    4PEO    H12  122   2.812   1.405  -1.826 -0.5440  0.8636  0.0573
    4PEO     O2  123   3.005   1.460  -1.730 -0.7577 -0.3819 -0.1093
    4PEO     C6  124   2.998   1.368  -1.615 -0.8743  0.2418  0.1551
    4PEO    H13  125   2.974   1.266  -1.648  0.4857 -0.1273  0.2498
    4PEO    H14  126   2.932   1.402  -1.535 -1.5782  0.7712 -0.6260
    4PEO     C7  127   3.135   1.374  -1.544  0.9241 -0.0925  0.3724
    4PEO    H15  128   3.132   1.301  -1.463  1.4326 -0.7252 -0.1642
    4PEO    H16  129   3.140   1.478  -1.510 -1.0790  0.1051  0.1457
    4PEO     O3  130   3.252   1.334  -1.631  0.2289  0.7739  0.5122
    4PEO     C8  131   3.374   1.323  -1.561  0.0122 -0.1196  0.1715
    4PEO    H17  132   3.448   1.266  -1.619  0.3048 -1.7805  2.0725
    4PEO    H18  133   3.363   1.257  -1.474  1.5509  0.2227  0.6577
    4PEO     C9  134   3.431   1.464  -1.528  0.1125 -0.4761  0.0090
    4PEO    H19  135   3.419   1.531  -1.614  2.8032  0.5718  0.3719
    4PEO    H20  136   3.540   1.459  -1.523  0.0931 -0.4912  0.4661
    4PEO     O4  137   3.371   1.519  -1.407  0.2970  0.0967  0.1180
    4PEO    C10  138   3.376   1.663  -1.395 -0.2980 -0.8820  0.6011
    4PEO    H21  139   3.323   1.714  -1.476 -3.6417 -2.5496  1.5966
    4PEO    H22  140   3.479   1.701  -1.398 -0.4188 -0.6385 -1.2081
    5PEO     C1  141   3.317   1.693  -1.251  1.0231 -0.6276 -0.3985
    5PEO     H3  142   3.212   1.663  -1.252  0.4984  1.1516 -1.2962
    5PEO     H4  143   3.318   1.802  -1.243 -0.4505 -0.5567 -1.0706
    5PEO      O  144   3.389   1.633  -1.141 -0.1308  0.0937 -0.7375
    5PEO     C2  145   3.525   1.668  -1.123 -0.3887 -0.2220 -0.2367
    5PEO     H5  146   3.547   1.775  -1.123  2.9999 -0.6896 -3.6606
    5PEO     H6  147   3.582   1.628  -1.208  1.7849  1.4605  0.3267
    5PEO     C3  148   3.581   1.605  -0.991 -0.3584  0.0295 -0.0631
    5PEO     H7  149   3.687   1.630  -0.983 -0.4450 -0.0635  1.7069
    5PEO     H8  150   3.579   1.497  -1.009 -0.1233  0.6205 -5.0376
    5PEO     O1  151   3.504   1.647  -0.874 -0.1174  0.1537  0.0476
    5PEO     C4  152   3.384   1.569  -0.846 -0.2408  0.8294  0.8033
    5PEO     H9  153   3.401   1.461  -0.844  0.0537  0.7701 -1.8210
    5PEO    H10  154   3.306   1.580  -0.922 -0.6654  0.4469  1.1755
    5PEO     C5  155   3.331   1.631  -0.714  0.1594 -0.3571 -0.1115
    5PEO    H11  156   3.317   1.738  -0.738  2.5016  0.0952  0.2886
    5PEO    H12  157   3.399   1.621  -0.629  0.2546  1.2097  0.0398
    5PEO     O2  158   3.211   1.568  -0.685 -0.1244 -0.2292  0.1842
    5PEO     C6  159   3.222   1.430  -0.649  0.1453 -0.0519  0.2529
    5PEO    H13  160   3.307   1.405  -0.584  0.7001  2.1611  0.4707
    5PEO    H14  161   3.216   1.374  -0.743  0.6071 -0.2083  0.3161
    5PEO     C7  162   3.098   1.389  -0.573  0.6015 -0.1671  0.4523
    5PEO    H15  163   3.117   1.294  -0.521 -1.5120 -0.7373  0.2511
    5PEO    H16  164   3.018   1.357  -0.640  0.4026 -1.1456  1.1370
    5PEO     O3  165   3.055   1.489  -0.484 -0.2168 -0.1733 -0.2524
    5PEO     C8  166   3.140   1.504  -0.369  0.2620  0.2031  0.1162
    5PEO    H17  167   3.095   1.588  -0.314 -0.3623 -0.1659  0.1824
    5PEO    H18  168   3.244   1.518  -0.401  0.7232 -0.6931  1.1693
    5PEO     C9  169   3.125   1.378  -0.276 -0.2489  0.0068 -0.0877
    5PEO    H19  170   3.186   1.393  -0.186 -2.3099  0.8920  1.2399
    5PEO    H20  171   3.155   1.289  -0.332 -0.8091  0.7878 -1.7010
    5PEO     O4  172   2.992   1.376  -0.221  0.7104  0.5188 -0.1644
    5PEO    C10  173   2.950   1.468  -0.119 -0.2773  0.2793  0.1417
    5PEO    H21  174   2.942   1.568  -0.164  1.7972  0.8837  0.9816
    5PEO    H22  175   3.034   1.479  -0.050  2.4257  0.2075 -2.8811
    6PET     C9  176   2.814   1.429  -0.054  0.1534  0.4922 -0.2191
    6PET     H6  177   2.782   1.504   0.019 -3.3158 -0.5960 -0.4179
    6PET     H7  178   2.837   1.337   0.002  1.8676  1.3385  0.5195
    6PET     O2  179   2.709   1.410  -0.150  0.3831  0.1290  0.1984
    6PET     C8  180   2.582   1.405  -0.112 -0.0228 -0.2234  0.1312
    6PET     O1  181   2.549   1.392   0.005 -0.0010 -0.0363  0.1899
    6PET     C4  182   2.477   1.391  -0.222 -0.2494  0.3594 -0.2490
    6PET     C5  183   2.339   1.395  -0.191  0.0917  0.3318 -0.3670
    6PET     C6  184   2.240   1.371  -0.283 -0.1758  0.0404 -0.1713
    6PET     H4  185   2.136   1.386  -0.252 -0.1357 -0.5433  0.2720
    6PET     H3  186   2.319   1.425  -0.089  0.1618  0.8641 -0.5055
    6PET     C3  187   2.514   1.342  -0.350  0.9932 -0.5150  0.2962
    6PET     H2  188   2.618   1.335  -0.378  0.0101 -1.1012 -3.7880
    6PET     C2  189   2.410   1.314  -0.445 -0.4750 -0.6438 -0.3805
    6PET     H1  190   2.435   1.286  -0.548 -0.7243 -0.5336 -0.4709
    6PET     C1  191   2.270   1.325  -0.412 -0.1155 -0.2275 -1.0912
    6PET     C7  192   2.166   1.300  -0.511  0.2450 -0.1749  0.1945
    6PET     O3  193   2.077   1.377  -0.530  0.1807 -0.9710 -0.5281
    6PET     O4  194   2.190   1.182  -0.577 -0.4332 -0.1024  0.9249
    6PET    C10  195   2.110   1.149  -0.690  0.6695 -0.1316 -0.6448
    6PET     H8  196   2.004   1.163  -0.665  0.4206 -0.7942 -1.2564
    6PET     H9  197   2.124   1.043  -0.715  0.1574  0.0613 -1.8364
    6PET    C11  198   2.149   1.238  -0.809 -0.8249 -0.1165  0.2050
    6PET    H10  199   2.119   1.342  -0.791 -2.6196 -0.2769 -1.4688
    6PET    H11  200   2.084   1.211  -0.893 -1.7253 -2.3035  1.5246
    6PET    C12  201   2.298   1.217  -0.857 -0.6107 -0.5512  0.1681
    6PET    H13  202   2.331   1.113  -0.846 -1.0498 -0.7279 -0.1919
    6PET    H14  203   2.357   1.275  -0.785  0.2020  1.5252 -2.0349
    7PET     C9  204   2.318   1.278  -0.998  0.7000 -0.8002 -0.5719
    7PET     H6  205   2.342   1.384  -0.985 -1.5141 -0.5202  2.1951
    7PET     H7  206   2.231   1.255  -1.061  0.2363 -0.7514  0.0389
    7PET     O2  207   2.434   1.209  -1.057 -0.6247 -0.2335 -0.5017
    7PET     C8  208   2.491   1.267  -1.168  0.1367 -0.7596 -0.1339
    7PET     O1  209   2.462   1.378  -1.218 -0.1667 -0.1681 -0.2292
    7PET     C4  210   2.601   1.185  -1.223 -0.1124  0.8721 -1.2820
    7PET     C5  211   2.654   1.208  -1.351 -0.0918  0.3121  0.0123
    7PET     C6  212   2.763   1.121  -1.401  0.3973  0.0888 -1.0667
    7PET     H4  213   2.805   1.149  -1.497  2.2932 -0.9105 -0.5754
    7PET     H3  214   2.621   1.298  -1.403  1.7485 -0.4423 -2.6590
    7PET     C3  215   2.646   1.066  -1.153  0.2745 -0.6666 -0.0769
    7PET     H2  216   2.607   1.035  -1.056  0.5600 -2.4948 -0.5151
    7PET     C2  217   2.746   0.984  -1.196  0.7336 -0.3711  0.2960
    7PET     H1  218   2.778   0.894  -1.143  1.3697  0.0204  0.5898
    7PET     C1  219   2.816   1.021  -1.316 -0.0454  0.0784 -0.3531
    7PET     C7  220   2.937   0.947  -1.362  0.6297  0.4611  0.7256
    7PET     O3  221   2.998   0.871  -1.286  0.0987 -0.1489 -0.4097
    7PET     O4  222   2.972   0.966  -1.496 -0.3981  0.5069  0.0556
    7PET    C10  223   3.084   0.889  -1.535 -0.2254  0.0323  0.5457
    7PET     H8  224   3.089   0.882  -1.644  0.6552  0.1914  0.5663
    7PET     H9  225   3.079   0.784  -1.504  2.7151 -0.3991 -0.0803
    7PET    C11  226   3.215   0.948  -1.483 -0.1919  0.2091 -0.2317
    7PET    H10  227   3.219   0.960  -1.374  2.6346  0.2025 -0.2609
    7PET    H11  228   3.220   1.049  -1.526  0.2063  0.4340  0.3253
    7PET    C12  229   3.338   0.869  -1.522  0.3204  0.7537 -0.3079
    7PET    H13  230   3.427   0.920  -1.483  1.3149 -1.9753  1.2220
    7PET    H14  231   3.345   0.860  -1.631 -2.5165 -0.0759 -0.5192
    8PET     C9  232   3.341   0.722  -1.464  0.6838  0.0013  0.2637
    8PET     H6  233   3.443   0.687  -1.482  0.8275 -0.1425  1.3034
    8PET     H7  234   3.268   0.656  -1.513  1.4045  0.0186 -0.8639
    8PET     O2  235   3.314   0.729  -1.326 -0.2266 -0.2092  0.0646
    8PET     C8  236   3.335   0.617  -1.248  0.3521  0.2906 -0.1873
    8PET     O1  237   3.389   0.515  -1.287 -1.2682 -0.2191 -0.1272
    8PET     C4  238   3.281   0.631  -1.099  0.4810 -0.4301 -0.1333
    8PET     C5  239   3.287   0.536  -1.000 -0.4218 -0.0927 -0.2292
    8PET     C6  240   3.227   0.558  -0.872 -0.2777 -0.6712 -0.4845
    8PET     H4  241   3.229   0.479  -0.797  0.8777  0.6410  0.9394
    8PET     H3  242   3.328   0.443  -1.039  1.5580  0.7718 -0.3082
    8PET     C3  243   3.224   0.755  -1.056 -0.2077 -0.7731  0.2228
    8PET     H2  244   3.230   0.833  -1.131  0.7473 -0.4995  0.5643
    8PET     C2  245   3.172   0.784  -0.933 -0.5646  0.5001 -0.2465
    8PET     H1  246   3.135   0.884  -0.912 -1.3018 -0.0254  0.9864
    8PET     C1  247   3.169   0.683  -0.837 -0.3036  0.0423 -0.8088
    8PET     C7  248   3.108   0.710  -0.705 -0.3792 -0.8593  0.0093
    8PET     O3  249   3.076   0.827  -0.672 -0.0211  0.2291  0.3732
    8PET     O4  250   3.084   0.602  -0.629 -0.1649  0.7296  0.3813
    8PET    C10  251   3.036   0.622  -0.498 -0.4683  0.0312 -0.3292
    8PET     H8  252   2.945   0.682  -0.502 -1.1062 -0.9692 -2.1927
    8PET     H9  253   3.113   0.677  -0.443 -0.8569 -2.2758  2.7603
    8PET    C11  254   3.019   0.484  -0.431  0.9628 -0.4855 -0.1647
    8PET    H10  255   3.117   0.437  -0.423  1.0803 -0.4725 -1.3350
    8PET    H11  256   2.954   0.424  -0.496  0.5628 -0.8543  0.5751
    8PET    C12  257   2.950   0.505  -0.292  0.5760 -0.2263  0.1774
    8PET    H13  258   2.849   0.547  -0.298  0.8768  0.3985 -0.7853
    8PET    H14  259   3.007   0.576  -0.231  0.7942 -1.6459  1.7125
    9PET     C9  260   2.959   0.374  -0.218  0.1075 -0.5485 -0.3370
    9PET     H6  261   2.925   0.383  -0.114 -0.7600 -1.5767 -0.5089
    9PET     H7  262   3.064   0.345  -0.204 -0.3039 -0.6392  4.0993
    9PET     O2  263   2.873   0.273  -0.283 -0.5838  0.5301 -0.2024
    9PET     C8  264   2.741   0.259  -0.256 -0.6709 -0.0656  0.3685
    9PET     O1  265   2.682   0.324  -0.175  0.2235  0.1324  0.3369
    9PET     C4  266   2.670   0.176  -0.369  0.1268  0.4375  0.4442
    9PET     C5  267   2.735   0.137  -0.495  0.2344 -0.5002  0.2916
    9PET     C6  268   2.649   0.068  -0.593 -0.3403 -0.3077 -0.0465
    9PET     H4  269   2.700   0.034  -0.682  2.6301  1.7903  0.7123
    9PET     H3  270   2.842   0.143  -0.515  0.0948  0.0464 -0.2977
    9PET     C3  271   2.539   0.137  -0.342 -0.1509 -0.2835 -0.5583
    9PET     H2  272   2.492   0.166  -0.249  2.9680  0.6791  0.8401
    9PET     C2  273   2.466   0.068  -0.439  0.1057  0.4269 -0.6964
    9PET     H1  274   2.364   0.041  -0.414 -0.0724 -0.1175 -1.9314
    9PET     C1  275   2.519   0.035  -0.570  0.5504 -0.0931 -0.2537
    9PET     C7  276   2.442  -0.041  -0.680 -0.1918 -0.0529  0.2326
    9PET     O3  277   2.355  -0.123  -0.655 -0.4144  0.0784 -0.3502
    9PET     O4  278   2.479  -0.013  -0.808  0.2124 -0.7619  0.0450
    9PET    C10  279   2.413  -0.069  -0.918  0.4910 -0.1961  0.8561
    9PET     H8  280   2.311  -0.033  -0.933  0.6739  0.0315  0.0991
    9PET     H9  281   2.404  -0.178  -0.923 -3.4460  0.0693 -1.6579
    9PET    C11  282   2.485  -0.028  -1.046  0.0200  0.2918 -0.3313
    9PET    H10  283   2.483   0.082  -1.047 -2.1657  0.2968  0.0792
    9PET    H11  284   2.444  -0.073  -1.136 -0.1346 -2.1253  0.8578
    9PET    C12  285   2.635  -0.070  -1.041 -0.9971 -0.3319  0.1640
    9PET    H13  286   2.630  -0.180  -1.038 -2.7352 -0.2760  2.4858
    9PET    H14  287   2.682  -0.043  -0.945 -0.3834 -1.4861  0.2159
   10PET     C9  288   2.727  -0.019  -1.160  0.5030  0.4434 -0.4977
   10PET     H6  289   2.698  -0.065  -1.255  0.5149 -1.5901  0.4288
   10PET     H7  290   2.834  -0.037  -1.141  0.6787  1.5982 -0.3361
   10PET     O2  291   2.706   0.126  -1.161 -0.2202  0.3085 -0.1127
   10PET     C8  292   2.748   0.201  -1.257 -0.4729  0.5304  0.2576
   10PET     O1  293   2.841   0.164  -1.334  0.0683 -0.0962  0.3960
   10PET     C4  294   2.690   0.338  -1.262  0.6141 -0.0579 -0.3973
   10PET     C5  295   2.590   0.371  -1.175  0.5312 -0.1032  0.9497
   10PET     C6  296   2.530   0.498  -1.184 -0.3623  0.2528 -0.0178
   10PET     H4  297   2.446   0.514  -1.118  1.3219  0.6676  2.1184
   10PET     H3  298   2.551   0.306  -1.096  0.7977  1.3894  2.3756
   10PET     C3  299   2.739   0.427  -1.361 -0.6644 -0.2355  0.3446
   10PET     H2  300   2.817   0.405  -1.433 -0.5152  1.2437  0.0220
   10PET     C2  301   2.675   0.557  -1.368 -0.4614  0.2686 -0.1224
   10PET     H1  302   2.701   0.626  -1.448 -0.4091 -0.0315 -0.3665
   10PET     C1  303   2.565   0.582  -1.287 -0.2408 -0.1559 -0.6868
   10PET     C7  304   2.480   0.698  -1.308 -0.0555  0.7936 -0.1397
   10PET     O3  305   2.450   0.735  -1.419 -0.9310  0.3628  0.2973
   10PET     O4  306   2.439   0.764  -1.198  0.9252  0.2914  0.1278
   10PET    C10  307   2.347   0.877  -1.207 -0.0545 -0.3527 -0.8919
   10PET     H8  308   2.268   0.864  -1.283  0.7772 -1.3542 -1.6042
   10PET     H9  309   2.405   0.962  -1.244 -0.3473 -0.3124 -1.2721
   10PET    C11  310   2.285   0.910  -1.068 -0.4308  0.5452 -0.7247
   10PET    H10  311   2.231   1.005  -1.071 -1.9396 -0.2545 -0.0320
   10PET    H11  312   2.372   0.918  -1.002 -0.6509 -0.4885 -0.2822
   10PET    C12  313   2.181   0.810  -1.020 -0.0237 -0.1182 -0.0810
   10PET    H13  314   2.115   0.776  -1.100  2.3160 -0.0074 -2.1670
   10PET    H14  315   2.123   0.858  -0.940  1.5599  2.4653 -0.3517
   11PET     C9  316   2.245   0.685  -0.950 -0.1183  0.5053  0.4897
   11PET     H6  317   2.338   0.723  -0.907  1.7106 -3.0234  0.0450
   11PET     H7  318   2.264   0.600  -1.017 -0.5477  1.1523 -0.4653
   11PET     O2  319   2.162   0.643  -0.836 -0.1056 -0.3376 -0.5253
   11PET     C8  320   2.059   0.559  -0.862  0.3797  0.4556 -0.2330
   11PET     O1  321   2.039   0.495  -0.965  0.1179  0.1178  0.2725
   11PET     C4  322   1.970   0.542  -0.745  0.2086 -0.1380 -0.6359
   11PET     C5  323   1.894   0.431  -0.729  1.0066  0.0946 -0.5946
   11PET     C6  324   1.821   0.406  -0.612 -0.1592  0.0248  0.3381
   11PET     H4  325   1.777   0.308  -0.597 -1.8623  0.8878  1.3128
   11PET     H3  326   1.909   0.354  -0.804  1.0801 -1.6177  1.0840
   11PET     C3  327   1.961   0.643  -0.640  1.1152  0.0394 -0.0158
   11PET     H2  328   2.024   0.731  -0.633  1.2479 -0.0945  0.4754
   11PET     C2  329   1.881   0.623  -0.526 -0.4149  0.2167  0.0911
   11PET     H1  330   1.879   0.709  -0.459  0.4715  1.3422 -1.2693
   11PET     C1  331   1.802   0.505  -0.516 -0.0115 -0.0835 -0.1314
   11PET     C7  332   1.721   0.475  -0.400  0.3646 -0.2174 -0.5299
   11PET     O3  333   1.693   0.365  -0.362  0.9381  0.2819 -0.0976
   11PET     O4  334   1.687   0.592  -0.329  0.2935  0.2734  1.0168
   11PET    C10  335   1.623   0.574  -0.205 -1.1559 -0.8088  0.3223
   11PET     H8  336   1.697   0.522  -0.143 -0.1140 -0.7115 -0.7974
   11PET     H9  337   1.537   0.507  -0.200 -2.5070  0.7553 -0.8121
   11PET    C11  338   1.612   0.718  -0.140 -0.5558  0.2404 -0.2910
   11PET    H10  339   1.710   0.761  -0.119  0.2563 -0.3948 -2.5026
   11PET    H11  340   1.558   0.711  -0.045 -0.4114  2.3613 -0.0120
   11PET    C12  341   1.535   0.814  -0.226  0.6232  0.4000  0.1948
   11PET    H13  342   1.589   0.830  -0.320  1.2992  0.0970  0.5241
   11PET    H14  343   1.539   0.916  -0.185  0.2099  1.4402 -2.1329
   12PET     C9  344   1.388   0.796  -0.253 -0.5123 -0.9807  0.0598
   12PET     H6  345   1.351   0.895  -0.284  0.7260  0.2769  2.3348
   12PET     H7  346   1.332   0.764  -0.164 -1.3196 -2.7811 -1.0290
   12PET     O2  347   1.372   0.705  -0.367 -0.4342  0.3641 -0.1131
   12PET     C8  348   1.250   0.676  -0.410 -0.5195 -0.0594  0.1499
   12PET     O1  349   1.146   0.738  -0.385 -0.1627  0.6403  0.4980
   12PET     C4  350   1.263   0.586  -0.537  0.7162 -0.1767 -0.5684
   12PET     C5  351   1.384   0.536  -0.585  0.0335 -0.2318 -0.7202
   12PET     C6  352   1.393   0.440  -0.683 -0.5416 -0.2680 -0.5250
   12PET     H4  353   1.483   0.389  -0.716 -1.2788 -0.5160 -2.2752
   12PET     H3  354   1.474   0.566  -0.531 -1.3305  1.6285  0.6366
   12PET     C3  355   1.146   0.541  -0.598  0.9147  1.0838 -0.6633
   12PET     H2  356   1.051   0.579  -0.560 -0.0482 -1.2954 -0.5120
   12PET     C2  357   1.150   0.440  -0.696 -0.3867  0.0691  0.5742
   12PET     H1  358   1.059   0.401  -0.740  0.0949  2.3024 -2.8067
   12PET     C1  359   1.274   0.386  -0.739  0.0629 -0.4842  0.0218
   12PET     C7  360   1.268   0.270  -0.841  0.3575  0.3200 -0.6248
   12PET     O3  361   1.163   0.211  -0.869 -0.5808 -0.5496  0.7665
   12PET     O4  362   1.396   0.234  -0.885  0.5553 -0.0756  0.2776
   12PET    C10  363   1.397   0.124  -0.976  0.0681 -0.0007 -0.1308
   12PET     H8  364   1.415   0.151  -1.081  0.7046  2.5253  0.5605
   12PET     H9  365   1.304   0.068  -0.990 -0.0686  0.3954 -0.8833
   12PET    C11  366   1.519   0.032  -0.928  0.3483  0.0725 -0.6599
   12PET    H10  367   1.607   0.096  -0.938  0.6695 -0.4285 -1.0777
   12PET    H11  368   1.530  -0.046  -1.004  0.3113 -2.3241  1.6408
   12PET    C12  369   1.498  -0.035  -0.784 -0.5282  0.9426 -0.0561
   12PET    H13  370   1.406  -0.095  -0.794  0.1777 -0.0570 -0.8070
   12PET    H14  371   1.477   0.036  -0.704  1.3360 -0.5587  1.9021
   13PET     C9  372   1.624  -0.131  -0.753 -0.3484  0.0663  0.2130
   13PET     H6  373   1.623  -0.203  -0.836  1.6770  0.3094 -0.0847
   13PET     H7  374   1.603  -0.180  -0.657 -1.9336  0.0886 -0.0985
   13PET     O2  375   1.754  -0.063  -0.759 -0.2076  0.4591  0.4147
   13PET     C8  376   1.799   0.009  -0.655 -0.7619  0.2620 -0.5340
   13PET     O1  377   1.748   0.021  -0.546 -0.1776  0.6550 -0.0941
   13PET     C4  378   1.930   0.078  -0.696  0.2926 -0.3924  0.0138
   13PET     C5  379   1.970   0.091  -0.831  0.0061  0.3986 -0.5806
   13PET     C6  380   2.085   0.162  -0.869  1.0535  0.5323  0.6331
   13PET     H4  381   2.113   0.163  -0.974  3.1746 -1.2042  1.1233
   13PET     H3  382   1.898   0.058  -0.906  0.4733 -0.7824 -0.5346
   13PET     C3  383   2.015   0.132  -0.593  0.0230  0.5434  0.2718
   13PET     H2  384   1.980   0.141  -0.490  0.2393 -0.4878  0.4500
   13PET     C2  385   2.133   0.200  -0.635  0.2285  0.4182  0.3824
   13PET     H1  386   2.200   0.232  -0.556 -0.2558 -1.5546  1.6708
   13PET     C1  387   2.168   0.215  -0.768  0.0063  0.2592 -0.4050
   13PET     C7  388   2.288   0.292  -0.812 -0.1985 -0.0281 -0.2432
   13PET     O3  389   2.321   0.303  -0.925 -0.3254  0.2834  0.2452
   13PET     O4  390   2.348   0.349  -0.699  0.3604 -0.0376  0.3968
   13PET    C10  391   2.473   0.421  -0.714 -0.0263 -0.2619  0.1693
   13PET     H8  392   2.445   0.507  -0.776  0.0066 -1.4364 -1.5145
   13PET     H9  393   2.543   0.361  -0.772 -1.3517 -0.8364 -0.8781
   13PET    C11  394   2.527   0.468  -0.578  0.0430  0.1902 -0.2753
   13PET    H10  395   2.515   0.377  -0.517 -1.1816 -0.3778 -1.3030
   13PET    H11  396   2.464   0.553  -0.550  1.6618  2.4489 -3.0300
   13PET    C12  397   2.671   0.509  -0.560 -0.0269 -0.0317  0.3496
   13PET    H13  398   2.733   0.419  -0.564 -1.3388 -0.9373 -1.3376
   13PET    H14  399   2.681   0.556  -0.462  1.1481  0.4018  0.0431
   14PET     C9  400   2.717   0.607  -0.670 -0.5703  0.6380 -0.1475
   14PET     H6  401   2.796   0.673  -0.634  0.7670 -0.6594 -0.6226
   14PET     H7  402   2.627   0.666  -0.693 -2.2002 -2.4163 -2.3054
   14PET     O2  403   2.777   0.532  -0.781  0.0747  0.5103 -0.1647
   14PET     C8  404   2.803   0.612  -0.888  0.2614 -0.2538 -0.2819
   14PET     O1  405   2.776   0.730  -0.896  0.1919  0.5743 -0.4587
   14PET     C4  406   2.878   0.538  -0.998  0.0542 -0.9724 -0.6321
   14PET     C5  407   2.930   0.613  -1.114 -0.2646 -0.1849 -0.0080
   14PET     C6  408   2.999   0.553  -1.217 -1.0999 -0.1353  0.0329
   14PET     H4  409   3.047   0.606  -1.299  1.0808 -0.9670  0.6845
   14PET     H3  410   2.901   0.717  -1.130  0.0958 -0.3486 -1.9713
   14PET     C3  411   2.914   0.399  -0.983 -0.2638 -0.0308  0.4058
   14PET     H2  412   2.887   0.341  -0.895 -0.2207 -0.7093 -0.0258
   14PET     C2  413   2.996   0.339  -1.087  0.3605 -0.3736 -0.4323
   14PET     H1  414   3.012   0.232  -1.079 -0.3940 -0.4813 -0.2259
   14PET     C1  415   3.038   0.416  -1.201 -0.4639  0.6636  0.3368
   14PET     C7  416   3.097   0.338  -1.319  0.2648  0.0296 -0.4252
   14PET     O3  417   3.142   0.220  -1.314 -0.3798 -0.1912 -0.7963
   14PET     O4  418   3.087   0.404  -1.439 -0.2774 -0.9123 -0.4590
   14PET    C10  419   3.119   0.341  -1.562  0.6519  0.3377 -0.3853
   14PET     H8  420   3.050   0.258  -1.576 -0.8653  1.1370  1.9210
   14PET     H9  421   3.220   0.299  -1.572  1.1635  1.5740 -0.6416
   14PET    C11  422   3.096   0.445  -1.678  0.1296 -0.4198  0.3962
   14PET    H10  423   3.080   0.399  -1.776 -0.6308  0.8781 -0.1121
   14PET    H11  424   3.187   0.505  -1.696  0.5533 -1.3365 -0.6275
   14PET    C12  425   2.976   0.542  -1.656 -0.3277 -0.4800  0.1468
   14PET    H13  426   2.988   0.604  -1.567 -1.6804  1.0852 -0.7235
   14PET    H14  427   2.891   0.479  -1.629  1.0150 -2.6149 -0.2980
   15PET     C9  428   2.947   0.637  -1.772  0.0726 -0.3521  0.9944
   15PET     H6  429   2.908   0.573  -1.852 -1.0025  2.7746 -1.1827
   15PET     H7  430   3.036   0.690  -1.808 -0.0055 -0.7433  0.2054
   15PET     O2  431   2.845   0.732  -1.733 -0.3531 -0.0005 -0.3220
   15PET     C8  432   2.834   0.857  -1.794  0.6463 -0.7446 -0.8450
   15PET     O1  433   2.900   0.897  -1.888  0.1207  0.2395 -0.0848
   15PET     C4  434   2.730   0.954  -1.732 -0.0268  0.3432  0.0339
   15PET     C5  435   2.627   0.904  -1.647  0.0745 -0.2256 -0.8709
   15PET     C6  436   2.515   0.985  -1.615  0.9782 -0.6608 -0.0964
   15PET     H4  437   2.439   0.936  -1.554  0.0494  1.2606  0.3486
   15PET     H3  438   2.627   0.802  -1.609  0.1517  0.1373  0.1327
   15PET     C3  439   2.720   1.091  -1.768  0.2458  0.5248  0.3621
   15PET     H2  440   2.790   1.125  -1.843 -1.1943  0.4773 -1.0596
   15PET     C2  441   2.611   1.174  -1.731  0.9464 -0.4313  0.3698
   15PET     H1  442   2.601   1.277  -1.763  0.2637  0.0111  1.8789
   15PET     C1  443   2.506   1.119  -1.656 -0.0868 -0.1604 -0.3456
   15PET     C7  444   2.392   1.211  -1.628 -0.5322  0.0014  0.2897
   15PET     O3  445   2.376   1.322  -1.681 -0.4324  0.3340 -0.5036
   15PET     O4  446   2.312   1.153  -1.545  0.1435 -0.2106  0.6523
   15PET    C10  447   2.200   1.233  -1.501  0.2741 -0.5366 -0.2927
   15PET     H8  448   2.136   1.269  -1.583 -0.3384  0.1505  0.4619
   15PET     H9  449   2.229   1.325  -1.449  0.2342 -0.6653 -0.0417
   15PET    C11  450   2.112   1.137  -1.412  0.0554  0.5553  0.1810
   15PET    H10  451   2.188   1.082  -1.356  0.3522 -0.1500 -0.8933
   15PET    H11  452   2.056   1.072  -1.480 -0.3317 -0.5772  1.5408
   15PET    C12  453   2.017   1.198  -1.309 -0.3228 -0.4001 -0.4186
   15PET    H13  454   1.938   1.244  -1.369  2.2599  2.4675 -1.9431
   15PET    H14  455   2.058   1.282  -1.252 -1.0528 -0.3227  0.0096
   16PET     C9  456   1.956   1.087  -1.215 -0.0014  0.0368  0.3492
   16PET     H6  457   2.038   1.046  -1.155  0.0671 -1.3783 -0.6457
   16PET     H7  458   1.894   1.014  -1.268 -0.7381  2.2437 -2.0613
   16PET     O2  459   1.866   1.145  -1.127  0.3958  0.1322  0.4378
   16PET     C8  460   1.745   1.197  -1.174  0.0234 -0.2147 -0.0943
   16PET     O1  461   1.697   1.160  -1.283  0.6772 -0.4483 -0.2737
   16PET     C4  462   1.670   1.282  -1.070 -0.5038 -0.0778  0.1234
   16PET     C5  463   1.552   1.345  -1.110  0.7484 -0.0278  0.2191
   16PET     C6  464   1.479   1.426  -1.014  0.5797  0.2078 -0.0537
   16PET     H4  465   1.397   1.481  -1.061  0.8802 -0.4867 -1.4287
   16PET     H3  466   1.515   1.338  -1.212  2.4408 -2.0475 -0.3258
   16PET     C3  467   1.707   1.274  -0.935  0.1851 -0.3745 -0.4694
   16PET     H2  468   1.797   1.232  -0.890  1.1029  2.5526  0.7118
   16PET     C2  469   1.633   1.351  -0.839 -0.0351 -0.0931  0.4204
   16PET     H1  470   1.667   1.350  -0.736  2.9473  1.4473 -0.4410
   16PET     C1  471   1.521   1.437  -0.877  0.7839  0.2608 -0.0647
   16PET     C7  472   1.439   1.509  -0.774 -0.1552 -0.1006  0.4718
   16PET     O3  473   1.463   1.501  -0.652 -0.1541 -0.0562  0.5594
   16PET     O4  474   1.334   1.577  -0.822 -0.1713 -0.5842 -0.0640
   16PET    C10  475   1.251   1.642  -0.727  0.7467  0.3577  0.3352
   16PET     H8  476   1.194   1.725  -0.769 -0.8305 -1.0495 -0.4128
   16PET     H9  477   1.309   1.684  -0.644  0.1930 -0.9919  1.4487
   16PET    C11  478   1.147   1.540  -0.679  0.8769  0.1322  0.3569
   16PET    H10  479   1.187   1.444  -0.643  1.9848 -0.2268 -1.6859
   16PET    H11  480   1.081   1.502  -0.759  0.0887  0.7554  0.7012
   16PET    C12  481   1.051   1.597  -0.568 -0.3980 -0.2348 -0.4642
   16PET    H13  482   1.113   1.641  -0.489  0.5661  1.6480 -2.1829
   16PET    H14  483   0.984   1.522  -0.524 -1.0454  0.8740  0.5009
   17PET     C9  484   0.960   1.706  -0.613  0.6144  0.3581  0.0666
   17PET     H6  485   1.022   1.795  -0.630  2.2003 -1.0684 -2.1061
   17PET     H7  486   0.886   1.733  -0.536  0.8529  0.8687  0.1218
   17PET     O2  487   0.896   1.661  -0.728  1.0303  0.2799  0.2294
   17PET     C8  488   0.821   1.757  -0.793 -0.2029  1.2979  0.6840
   17PET     O1  489   0.825   1.880  -0.781  0.1095 -0.1543 -0.5055
   17PET     C4  490   0.732   1.699  -0.903 -0.2490 -0.1760 -0.1472
   17PET     C5  491   0.774   1.583  -0.963  0.6081 -0.3902  0.6048
   17PET     C6  492   0.698   1.531  -1.070  0.2147  0.0780  0.0606
   17PET     H4  493   0.739   1.441  -1.115  1.9644 -0.5849  2.7540
   17PET     H3  494   0.851   1.520  -0.919  3.8060  2.6644 -0.1665
   17PET     C3  495   0.626   1.771  -0.952 -0.0026  0.5245  0.1817
   17PET     H2  496   0.606   1.868  -0.908 -0.4063  0.7019 -0.3887
   17PET     C2  497   0.554   1.723  -1.057 -0.2545 -0.2453  0.8886
   17PET     H1  498   0.483   1.788  -1.107 -0.3721 -1.1892 -0.2212
   17PET     C1  499   0.583   1.595  -1.117  0.5271 -0.1485  0.2212
   17PET     C7  500   0.502   1.533  -1.231  0.0188  0.5957  0.2826
   17PET     O3  501   0.412   1.586  -1.286 -0.8684  0.2201  0.2399
   17PET     O4  502   0.549   1.410  -1.264  0.1402  0.3931 -0.5493
   17PET    C10  503   0.467   1.322  -1.336 -0.1570 -0.3051 -0.7159
   17PET     H8  504   0.513   1.226  -1.362 -1.6414 -1.1284 -0.3918
   17PET     H9  505   0.431   1.362  -1.432  2.2347 -0.5344 -1.7763
   17PET    C11  506   0.337   1.289  -1.257  0.3552 -0.2187 -0.0047
   17PET    H10  507   0.260   1.355  -1.298 -1.0599 -2.8995 -2.0128
   17PET    H11  508   0.350   1.323  -1.154 -1.0628  3.9186 -1.0117
   17PET    C12  509   0.282   1.150  -1.253 -0.5964  0.2688  0.4040
   17PET    H13  510   0.352   1.079  -1.207 -1.9888 -0.7022  1.1100
   17PET    H14  511   0.272   1.110  -1.355  1.3101  0.5038  0.0952
   18PET     C9  512   0.146   1.120  -1.184 -0.0059  0.2494 -0.3833
   18PET     H6  513   0.121   1.017  -1.212  0.9784 -0.1332  0.0970
   18PET     H7  514   0.072   1.182  -1.237  0.5199 -1.0919 -2.8710
   18PET     O2  515   0.157   1.147  -1.045 -0.2735 -0.4212 -0.0779
   18PET     C8  516   0.051   1.110  -0.969  0.2578  0.4624 -0.0775
   18PET     O1  517  -0.032   1.031  -1.005 -0.0222  0.2382 -0.2490
   18PET     C4  518   0.048   1.158  -0.819 -0.0596 -0.5468  0.2333
   18PET     C5  519  -0.051   1.118  -0.725  0.0417 -0.3354 -0.5724
   18PET     C6  520  -0.045   1.136  -0.585  0.0317  0.4249 -0.2486
   18PET     H4  521  -0.121   1.098  -0.518  0.4347 -0.3689 -0.2236
   18PET     H3  522  -0.139   1.063  -0.759 -0.3076 -0.8836  1.1126
   18PET     C3  523   0.155   1.226  -0.764  0.4347 -0.0335  0.0598
   18PET     H2  524   0.224   1.267  -0.838 -0.3173  0.5754 -0.3222
   18PET     C2  525   0.160   1.251  -0.624 -0.1455  0.2108  0.1072
   18PET     H1  526   0.247   1.310  -0.596 -0.0534 -0.6704  1.8662
   18PET     C1  527   0.069   1.202  -0.533  0.5316  0.2042 -0.1686
   18PET     C7  528   0.085   1.220  -0.382 -0.3307  0.0163 -0.4659
   18PET     O3  529   0.013   1.170  -0.302  0.1429 -0.1847  0.5173
   18PET     O4  530   0.198   1.294  -0.349 -0.1705  0.7960  0.8727
   18PET    C10  531   0.218   1.329  -0.216  0.7331 -0.0475 -0.1997
   18PET     H8  532   0.230   1.244  -0.148 -2.4087  1.0039  1.8974
   18PET     H9  533   0.128   1.379  -0.178  1.3724  1.3375 -0.4490
   18PET    C11  534   0.335   1.418  -0.210 -0.2523 -0.1972  0.3004
   18PET    H10  535   0.335   1.460  -0.109  0.3207 -2.7427  1.4335
   18PET    H11  536   0.326   1.493  -0.290 -1.2825 -1.7674 -1.1525
   18PET    C12  537   0.466   1.341  -0.226  0.6540  0.1802  0.1058
   18PET    H13  538   0.457   1.250  -0.165  0.1276  0.1847  0.0342
   18PET    H14  539   0.536   1.416  -0.185  0.4065 -0.0062  0.8900
   19PET     C9  540   0.513   1.307  -0.370 -0.2291  0.3897 -0.0808
   19PET     H6  541   0.484   1.394  -0.430  1.3351  1.9585  1.3186
   19PET     H7  542   0.456   1.220  -0.405 -2.0830  1.7408 -0.5729
   19PET     O2  543   0.660   1.293  -0.361  0.3080  0.0689 -0.3082
   19PET     C8  544   0.713   1.169  -0.385 -0.3846  0.6378 -0.4630
   19PET     O1  545   0.657   1.059  -0.385  0.3741 -0.0904  0.1531
   19PET     C4  546   0.867   1.185  -0.387  0.6444  0.6603  0.1806
   19PET     C5  547   0.935   1.296  -0.347  0.5910  0.2976 -0.4230
   19PET     C6  548   1.074   1.306  -0.338  0.2982  0.1408  0.3731
   19PET     H4  549   1.116   1.400  -0.302 -0.1812  0.6029 -0.2473
   19PET     H3  550   0.870   1.378  -0.317  0.8285 -0.9072  3.9883
   19PET     C3  551   0.946   1.072  -0.422  0.3641  0.1925 -0.1178
   19PET     H2  552   0.901   0.981  -0.460 -2.5277  1.1416  0.8394
   19PET     C2  553   1.087   1.090  -0.427  0.2599  0.0299  0.1783
   19PET     H1  554   1.146   1.008  -0.465 -0.4707 -1.5401  2.2481
   19PET     C1  555   1.152   1.208  -0.388 -0.2827  0.1939 -0.0713
   19PET     C7  556   1.298   1.225  -0.388  0.1280  0.1751  0.2422
   19PET     O3  557   1.357   1.303  -0.318 -0.5075  0.4542  0.4822
   19PET     O4  558   1.351   1.149  -0.480 -0.1455 -0.0294 -0.3953
   19PET    C10  559   1.491   1.170  -0.512 -0.9479 -0.1185  0.1001
   19PET     H8  560   1.546   1.221  -0.432  0.2605 -0.0389 -0.7373
   19PET     H9  561   1.493   1.222  -0.609 -0.5052  2.0228  1.1917
   19PET    C11  562   1.566   1.041  -0.534  0.6273 -0.7073  0.0283
   19PET    H10  563   1.522   0.981  -0.615  0.1381 -0.6291  0.2315
   19PET    H11  564   1.558   0.982  -0.442  0.6690  0.5998  0.8936
   19PET    C12  565   1.711   1.058  -0.570  0.7220  0.5285  0.4935
   19PET    H13  566   1.758   1.132  -0.505  0.5130  0.9539  0.1683
   19PET    H14  567   1.722   1.103  -0.670 -1.8331  1.4248  0.5500
   20PET     C9  568   1.791   0.927  -0.567 -0.5063 -0.2589 -0.5356
   20PET     H6  569   1.762   0.875  -0.475  1.7553 -0.5902  0.0541
   20PET     H7  570   1.897   0.952  -0.554 -0.9778  1.9296 -0.5372
   20PET     O2  571   1.760   0.849  -0.683 -0.0966 -0.7565 -0.6217
   20PET     C8  572   1.795   0.885  -0.811 -0.3393  0.2125  0.4579
   20PET     O1  573   1.867   0.975  -0.835  0.0672 -0.1991 -0.4594
   20PET     C4  574   1.734   0.789  -0.912 -1.0137 -0.3330 -0.6344
   20PET     C5  575   1.799   0.774  -1.038 -0.3211 -0.4564  0.4383
   20PET     C6  576   1.755   0.682  -1.138  0.3224 -0.1581 -0.0401
   20PET     H4  577   1.812   0.684  -1.231  0.1797 -1.2489 -0.1613
   20PET     H3  578   1.886   0.837  -1.055 -0.0174 -1.0372 -0.1932
   20PET     C3  579   1.628   0.703  -0.880  0.2084  0.3298  0.8009
   20PET     H2  580   1.578   0.711  -0.785  0.8187 -1.1705  1.2836
   20PET     C2  581   1.579   0.613  -0.983 -0.0402 -0.2443 -0.0249
   20PET     H1  582   1.504   0.538  -0.963 -0.5178  0.0009 -0.8505
   20PET     C1  583   1.634   0.605  -1.114 -0.2733 -0.0095  0.5768
   20PET     C7  584   1.562   0.515  -1.217  0.6070 -0.3544  0.2458
   20PET     O3  585   1.457   0.451  -1.196 -0.1454  0.4560  0.6143
   20PET     O4  586   1.628   0.513  -1.341  0.5325  0.5400  0.3944
   20PET    C10  587   1.580   0.424  -1.444 -0.9755 -0.6539 -0.1957
   20PET     H8  588   1.484   0.463  -1.481  0.0823  1.2230 -1.1481
   20PET     H9  589   1.575   0.326  -1.397 -0.1307 -0.6219 -0.0260
   20PET    C11  590   1.688   0.426  -1.556  0.0534  0.0262 -0.0355
   20PET    H10  591   1.780   0.428  -1.495 -0.4291  0.0102  0.7025
   20PET    H11  592   1.678   0.522  -1.607  2.7282  0.1643 -0.4799
   20PET    C12  593   1.680   0.315  -1.664  0.1049 -0.1676 -0.1494
   20PET    H13  594   1.585   0.322  -1.718  0.6327  0.3463 -1.0331
   20PET    H14  595   1.669   0.231  -1.594  2.9930  0.1569  0.8286
   21PET     C9  596   1.792   0.308  -1.769  0.4294  0.0718 -0.1976
   21PET     H6  597   1.768   0.228  -1.840  2.7191  0.3254 -1.3487
   21PET     H7  598   1.877   0.279  -1.707 -0.0644 -1.4617 -0.1923
   21PET     O2  599   1.810   0.439  -1.825  0.1650 -0.0307  0.2788
   21PET     C8  600   1.725   0.471  -1.934  1.0785 -0.1250 -0.2730
   21PET     O1  601   1.630   0.399  -1.964 -0.0261  0.3639  0.4191
   21PET     C4  602   1.755   0.592  -2.005  0.4443  0.4292 -0.1583
   21PET     C5  603   1.652   0.664  -2.062 -0.0759 -0.1008 -0.0604
   21PET     C6  604   1.687   0.789  -2.129  0.7308 -0.6980  0.3026
   21PET     H4  605   1.613   0.864  -2.156  1.6186  0.2526  0.4470
   21PET     H3  606   1.548   0.635  -2.056  0.5723 -2.8054 -0.4818
   21PET     C3  607   1.889   0.629  -2.019 -0.5185  0.1417 -0.1246
   21PET     H2  608   1.966   0.570  -1.972 -1.6653 -1.4953 -0.2263
   21PET     C2  609   1.921   0.742  -2.100 -0.7634 -0.2520 -0.2653
   21PET     H1  610   2.027   0.765  -2.108 -0.2860 -1.4765  1.7121
   21PET     C1  611   1.818   0.829  -2.145  0.0951 -0.0284  0.7624
   21PET     C7  612   1.862   0.968  -2.200  0.0382 -1.0906  0.4638
   21PET     O3  613   1.978   1.000  -2.206 -0.2581  0.1767  0.6300
   21PET     O4  614   1.752   1.047  -2.234  0.2029 -0.4877  0.7199
   21PET    C10  615   1.780   1.172  -2.290 -0.1265  0.6814 -0.0275
   21PET     H8  616   1.829   1.160  -2.387  1.0298 -0.7389  0.6957
   21PET     H9  617   1.842   1.235  -2.224 -0.8296  1.9926 -0.5862
   21PET    C11  618   1.644   1.249  -2.307  0.2669  0.2208  0.6010
   21PET    H10  619   1.606   1.266  -2.206 -0.2559  1.0796  0.2710
   21PET    H11  620   1.576   1.178  -2.356  2.5366 -0.7786 -1.3538
   21PET    C12  621   1.656   1.384  -2.376  1.0024  0.6989  0.2761
   21PET    H13  622   1.690   1.388  -2.480  0.0987  0.5576 -0.0357
   21PET    H14  623   1.740   1.442  -2.336  0.7145 -0.0223  1.9883
   22PET     C9  624   1.523   1.463  -2.365 -0.0669 -0.7519 -0.2660
   22PET     H6  625   1.448   1.420  -2.433 -2.4254 -0.9499  2.2653
   22PET     H7  626   1.547   1.562  -2.406  3.0166 -1.7420 -1.1313
   22PET     O2  627   1.481   1.470  -2.221  0.3657 -0.0142  0.4271
   22PET     C8  628   1.561   1.536  -2.130  0.2466  0.7001 -0.0147
   22PET     O1  629   1.659   1.599  -2.159  0.2183 -0.1493  0.2014
   22PET     C4  630   1.506   1.520  -1.989 -0.2226  0.3448 -0.2423
   22PET     C5  631   1.370   1.477  -1.962  0.2024  0.2270  0.2603
   22PET     C6  632   1.331   1.431  -1.831  0.6121  0.3248  0.1367
   22PET     H4  633   1.227   1.401  -1.821 -0.4268  2.7498 -2.2940
   22PET     H3  634   1.297   1.462  -2.041  0.4085  0.3420  0.0482
   22PET     C3  635   1.597   1.528  -1.885 -0.1794  0.4894 -0.0324
   22PET     H2  636   1.699   1.556  -1.907  0.3605 -1.1404  0.2950
   22PET     C2  637   1.557   1.486  -1.750 -0.2244  0.1635 -0.7899
   22PET     H1  638   1.628   1.496  -1.668 -0.2820  0.7127 -0.7996
   22PET     C1  639   1.427   1.443  -1.726  0.2419 -0.2890 -0.9421
   22PET     C7  640   1.385   1.411  -1.584 -0.5941 -0.2487 -0.1972
   22PET     O3  641   1.466   1.427  -1.490 -0.3909  0.0496 -0.1696
   22PET     O4  642   1.255   1.375  -1.560  0.2750  0.2852 -0.6345
   22PET    C10  643   1.231   1.324  -1.419 -0.7580  0.8624  0.1261
   22PET     H8  644   1.240   1.403  -1.342  2.0152 -0.1878  1.0268
   22PET     H9  645   1.304   1.247  -1.389 -0.5104  0.9123 -0.3387
   22PET    C11  646   1.101   1.248  -1.406 -0.2553  0.3203  0.5773
   22PET    H10  647   1.016   1.318  -1.399 -0.6334 -0.1463  0.6818
   22PET    H11  648   1.105   1.201  -1.307  0.8790 -0.2631  0.2699
   22PET    C12  649   1.064   1.147  -1.515 -0.7869  0.6186  0.4454
   22PET    H13  650   1.077   1.183  -1.617  0.4434  0.6027  0.5806
   22PET    H14  651   0.957   1.123  -1.512 -0.3821 -1.2752  1.2895
   23PET     C9  652   1.134   1.012  -1.512  0.0385  0.8452 -0.3301
   23PET     H6  653   1.080   0.945  -1.580 -0.5911  0.0160  0.9583
   23PET     H7  654   1.128   0.966  -1.413  2.8491  1.1763  0.0908
   23PET     O2  655   1.264   1.030  -1.556  0.2836  0.0156 -0.1767
   23PET     C8  656   1.292   1.057  -1.688  0.3127 -1.0341 -0.1831
   23PET     O1  657   1.207   1.048  -1.774  0.2888 -0.6482 -0.2070
   23PET     C4  658   1.432   1.099  -1.718 -0.7985 -0.8372 -0.7225
   23PET     C5  659   1.522   1.133  -1.614 -0.2269  0.5930  0.4328
   23PET     C6  660   1.645   1.189  -1.646 -0.0212 -0.4476 -0.6618
   23PET     H4  661   1.709   1.221  -1.564  0.1182 -2.2747 -0.0124
   23PET     H3  662   1.478   1.137  -1.515 -2.2081 -1.6952 -0.2669
   23PET     C3  663   1.474   1.116  -1.850  0.2254  0.4417 -0.1716
   23PET     H2  664   1.403   1.090  -1.927  1.2289  1.0747 -1.3401
   23PET     C2  665   1.605   1.157  -1.881 -0.1830  0.1379 -0.0936
   23PET     H1  666   1.640   1.168  -1.983  1.2070 -0.6679  0.2658
   23PET     C1  667   1.689   1.206  -1.778  0.1964  0.2925 -0.0479
   23PET     C7  668   1.829   1.259  -1.815 -0.0286  0.5771 -0.1117
   23PET     O3  669   1.908   1.292  -1.731  0.2036 -0.2528 -0.2668
   23PET     O4  670   1.862   1.249  -1.945 -0.2597  0.5015 -0.3505
   23PET    C10  671   1.991   1.296  -1.992  0.4042  0.0748 -0.7194
   23PET     H8  672   2.016   1.391  -1.944 -2.3580 -0.2207  1.5697
   23PET     H9  673   1.984   1.306  -2.100 -1.2450 -0.4779 -0.6789
   23PET    C11  674   2.092   1.190  -1.950  0.1290 -0.1081 -0.3781
   23PET    H10  675   2.045   1.091  -1.961 -0.6846  0.1845  0.3417
   23PET    H11  676   2.114   1.204  -1.844 -2.2820  0.7746  0.0754
   23PET    C12  677   2.220   1.194  -2.047 -0.9266  0.0763  0.0777
   23PET    H13  678   2.244   1.301  -2.047 -3.3048  0.6674 -0.2758
   23PET    H14  679   2.195   1.167  -2.151  0.5394 -2.5070  0.2984
   24PET     C9  680   2.342   1.119  -1.983  0.0648 -0.3549  0.1992
   24PET     H6  681   2.352   1.158  -1.881  0.5168 -3.2907  1.3793
   24PET     H7  682   2.430   1.150  -2.042 -0.9666  2.0143 -0.1853
   24PET     O2  683   2.323   0.977  -1.970 -0.4637  0.2236  0.0415
   24PET     C8  684   2.441   0.904  -1.971  0.2445 -0.2464 -0.5965
   24PET     O1  685   2.557   0.947  -1.978  0.3110 -0.0718  0.1257
   24PET     C4  686   2.416   0.758  -1.958  0.2056  0.8115  0.1864
   24PET     C5  687   2.524   0.674  -1.937  0.6750  0.4089  0.2663
   24PET     C6  688   2.506   0.539  -1.918  0.1511  0.3524 -0.1996
   24PET     H4  689   2.598   0.482  -1.912 -0.5625 -0.9212 -0.8031
   24PET     H3  690   2.627   0.708  -1.939  1.1418 -0.8628  1.2567
   24PET     C3  691   2.286   0.707  -1.943  0.4449 -0.2760 -0.3499
   24PET     H2  692   2.199   0.773  -1.938  0.9256  0.2861  1.5962
   24PET     C2  693   2.269   0.571  -1.911 -0.0375  0.2070 -0.1761
   24PET     H1  694   2.171   0.532  -1.885  0.4379 -0.1848  1.1053
   24PET     C1  695   2.377   0.479  -1.915  0.4821 -0.4026 -0.3985
   24PET     C7  696   2.358   0.327  -1.890 -0.0079  0.1366  0.4549
   24PET     O3  697   2.254   0.287  -1.839  0.6574 -0.0017 -0.5622
   24PET     O4  698   2.473   0.253  -1.910  0.2997  0.1814 -0.5210
   24PET    C10  699   2.466   0.109  -1.877 -0.2261 -0.1812 -0.0494
   24PET     H8  700   2.404   0.049  -1.944  2.0958 -1.6694 -0.9892
   24PET     H9  701   2.426   0.098  -1.775  1.2925 -4.2058  0.3076
   24PET    C11  702   2.610   0.046  -1.879 -0.7116 -1.5187 -0.4267
   24PET    H10  703   2.661   0.057  -1.976 -0.9237 -3.1201 -0.7500
   24PET    H11  704   2.596  -0.060  -1.856  0.7270 -1.8317 -0.8598
   24PET    C12  705   2.705   0.105  -1.773 -0.4671 -0.4309 -0.2152
   24PET    H13  706   2.716   0.214  -1.775  1.8554 -0.6215 -0.2527
   24PET    H14  707   2.797   0.049  -1.794 -0.7059 -0.7474 -0.4264
   25PET     C9  708   2.672   0.062  -1.631 -0.1437  0.6498 -0.7429
   25PET     H6  709   2.763   0.057  -1.570 -0.7759 -1.3046  0.1045
   25PET     H7  710   2.636  -0.041  -1.621 -0.3521  0.7848 -0.0882
   25PET     O2  711   2.579   0.163  -1.587  0.1044  0.1381 -0.1768
   25PET     C8  712   2.494   0.136  -1.490 -0.3086  0.0806 -0.4407
   25PET     O1  713   2.475   0.023  -1.438  0.1818  0.0063 -0.8960
   25PET     C4  714   2.408   0.250  -1.459 -0.2144  0.4246 -0.7938
   25PET     C5  715   2.291   0.236  -1.378 -0.1694 -0.1552  0.0833
   25PET     C6  716   2.198   0.343  -1.375 -0.9642 -0.4374  0.5219
   25PET     H4  717   2.111   0.327  -1.313 -0.1436 -0.8747  1.6024
   25PET     H3  718   2.274   0.142  -1.327  0.1050 -0.5198 -0.4948
   25PET     C3  719   2.420   0.369  -1.530 -0.1517 -0.2910 -0.7211
   25PET     H2  720   2.510   0.381  -1.589  0.0707 -0.5416 -0.4413
   25PET     C2  721   2.326   0.466  -1.534 -0.2755  0.5517 -0.0980
   25PET     H1  722   2.325   0.550  -1.602 -0.6903  0.1046 -0.6525
   25PET     C1  723   2.208   0.459  -1.450 -0.4242 -0.0549  0.1682
   25PET     C7  724   2.105   0.563  -1.445  0.9666  0.0311  0.5645
   25PET     O3  725   2.022   0.564  -1.357  0.1035  0.4196  0.0763
   25PET     O4  726   2.116   0.653  -1.542  0.0031  0.2839 -0.0793
   25PET    C10  727   2.021   0.758  -1.542 -0.8837  0.5335  0.4877
   25PET     H8  728   2.019   0.826  -1.456 -1.1626 -0.3406  1.1913
   25PET     H9  729   1.925   0.705  -1.549 -0.6285 -0.1822  2.0013
   25PET    C11  730   2.045   0.839  -1.675 -0.0402 -0.3405  0.2882
   25PET    H10  731   2.076   0.785  -1.765  0.7924  1.6193 -0.6676
   25PET    H11  732   2.134   0.902  -1.662  0.1603 -0.2256 -1.3821
   25PET    C12  733   1.933   0.942  -1.708  0.3245 -0.8072  0.7016
   25PET    H13  734   1.975   0.999  -1.792  0.3233 -1.5878  0.1577
   25PET    H14  735   1.911   1.005  -1.622 -0.1495 -1.0463  0.7561
   26PET     C9  736   1.800   0.870  -1.754 -0.5348 -0.9154  0.0247
   26PET     H6  737   1.837   0.774  -1.792 -0.9158 -1.1134  0.1491
   26PET     H7  738   1.749   0.930  -1.830 -0.5107 -0.2108  0.5544
   26PET     O2  739   1.718   0.842  -1.637  0.0235 -0.0899 -0.7738
   26PET     C8  740   1.590   0.784  -1.639 -0.1126 -0.3437  0.1958
   26PET     O1  741   1.540   0.736  -1.739  1.0503  0.1733  0.1116
   26PET     C4  742   1.520   0.781  -1.513  0.0500  0.3466  0.0379
   26PET     C5  743   1.557   0.856  -1.401 -0.2698  1.3522  0.2966
   26PET     C6  744   1.480   0.853  -1.279  0.2240 -0.1023 -0.1554
   26PET     H4  745   1.514   0.914  -1.196  0.1547  1.4580 -1.2409
   26PET     H3  746   1.645   0.919  -1.411 -0.0210  0.9024 -0.3649
   26PET     C3  747   1.393   0.713  -1.500  0.3720 -0.7129 -0.3183
   26PET     H2  748   1.340   0.677  -1.588 -3.9585  2.3139  0.7799
   26PET     C2  749   1.318   0.721  -1.381 -0.2765 -0.4463  0.0722
   26PET     H1  750   1.221   0.672  -1.374 -1.0315  0.8921 -0.6995
   26PET     C1  751   1.367   0.776  -1.265 -0.0866  0.3770  0.7644
   26PET     C7  752   1.292   0.776  -1.133 -0.6652 -0.0998 -0.2064
   26PET     O3  753   1.180   0.726  -1.128 -0.1644  0.3666 -0.1871
   26PET     O4  754   1.350   0.845  -1.028 -0.1019 -0.0660 -0.3760
   26PET    C10  755   1.272   0.857  -0.908  0.5886 -0.6778  0.8454
   26PET     H8  756   1.277   0.770  -0.842 -4.0939 -1.9327 -0.0845
   26PET     H9  757   1.166   0.879  -0.926  0.0264 -2.6715  1.4562
   26PET    C11  758   1.334   0.983  -0.849 -0.0372 -0.3981  0.5860
   26PET    H10  759   1.431   0.955  -0.808 -0.1082 -1.0372  0.3313
   26PET    H11  760   1.278   1.013  -0.760  1.4879 -0.9233  1.7530
   26PET    C12  761   1.352   1.109  -0.941 -0.3945  0.0738 -0.2595
   26PET    H13  762   1.411   1.094  -1.032 -0.0520  1.3184 -0.2669
   26PET    H14  763   1.404   1.178  -0.874  1.4829 -1.9927  0.5226
   27PET     C9  764   1.222   1.183  -0.982 -0.3701 -0.0838 -0.2709
   27PET     H6  765   1.255   1.258  -1.056  1.1591 -0.1538  0.3120
   27PET     H7  766   1.190   1.229  -0.888  2.7393  0.9055  0.3993
   27PET     O2  767   1.117   1.100  -1.033 -0.8850  0.1064  0.2055
   27PET     C8  768   0.991   1.159  -1.046 -0.0826 -0.0643  0.1199
   27PET     O1  769   0.959   1.270  -1.010  0.0966 -0.7254 -0.9253
   27PET     C4  770   0.886   1.070  -1.106  0.6005  0.2989 -0.3556
   27PET     C5  771   0.751   1.110  -1.122  0.2871  0.2093  0.8169
   27PET     C6  772   0.653   1.017  -1.159  0.8035 -0.0910 -0.1809
   27PET     H4  773   0.549   1.047  -1.159  1.3423  2.5280  4.0060
   27PET     H3  774   0.722   1.212  -1.099  0.4618  0.2880  0.6861
   27PET     C3  775   0.914   0.934  -1.133 -0.0518  0.3978  1.0078
   27PET     H2  776   1.016   0.900  -1.117 -0.1388 -0.8309 -0.7895
   27PET     C2  777   0.814   0.847  -1.182 -0.2220  0.1134  0.5410
   27PET     H1  778   0.848   0.750  -1.217 -0.4363 -0.6793  2.4295
   27PET     C1  779   0.680   0.882  -1.192  0.2510 -0.6208 -0.4757
   27PET     C7  780   0.565   0.786  -1.233 -0.6983  0.2725  0.1630
   27PET     O3  781   0.586   0.670  -1.266  0.3368  0.4365 -0.0178
   27PET     O4  782   0.437   0.840  -1.226  0.2970 -0.5806  0.0945
   27PET    C10  783   0.320   0.758  -1.251 -0.0083 -0.0883  0.5195
   27PET     H8  784   0.344   0.704  -1.344  0.5689  0.4443  0.3549
   27PET     H9  785   0.236   0.827  -1.265  0.8275  1.3476  2.2648
   27PET    C11  786   0.293   0.659  -1.137  0.0970  0.3961 -0.1720
   27PET    H10  787   0.360   0.572  -1.145  0.1832  0.2812  1.4312
   27PET    H11  788   0.192   0.633  -1.169  0.9230  0.2877 -2.9426
   27PET    C12  789   0.284   0.706  -0.998  0.4845 -0.0003 -0.4449
   27PET    H13  790   0.386   0.744  -0.981  0.7853 -0.6128 -0.8572
   27PET    H14  791   0.285   0.616  -0.936  0.3144 -1.2547 -2.2232
   28PET     C9  792   0.178   0.813  -0.951 -0.7162  0.0028 -0.0203
   28PET     H6  793   0.085   0.761  -0.978  0.7055 -2.4399 -0.4660
   28PET     H7  794   0.190   0.907  -1.005 -0.4190 -0.5247 -0.8899
   28PET     O2  795   0.185   0.826  -0.803  0.5815  0.8558 -0.3327
   28PET     C8  796   0.283   0.895  -0.741 -0.4352  0.1801  0.0034
   28PET     O1  797   0.379   0.950  -0.792  0.1554 -0.1285  0.3627
   28PET     C4  798   0.260   0.896  -0.593 -0.4332 -0.4337 -0.2867
   28PET     C5  799   0.355   0.951  -0.509  0.2220 -0.4388 -0.2218
   28PET     C6  800   0.338   0.955  -0.364  0.3474 -0.5629 -0.1885
   28PET     H4  801   0.414   0.998  -0.298 -2.7451  1.5189  2.3387
   28PET     H3  802   0.450   0.991  -0.543 -1.8783  2.3605 -3.4861
   28PET     C3  803   0.142   0.851  -0.539  0.4941  0.1422 -0.4515
   28PET     H2  804   0.056   0.812  -0.593  0.1553  0.2411  0.0104
   28PET     C2  805   0.120   0.863  -0.394  0.2457 -0.9661  0.1385
   28PET     H1  806   0.028   0.829  -0.349 -0.7378  1.5811  0.2373
   28PET     C1  807   0.215   0.913  -0.307  0.0526 -0.0099 -0.3174
   28PET     C7  808   0.194   0.920  -0.163 -0.3768 -0.0528 -0.1347
   28PET     O3  809   0.285   0.956  -0.089  0.2868 -0.0521 -0.2960
   28PET     O4  810   0.078   0.875  -0.118 -0.1939  0.1695  0.2325
   28PET    C10  811   0.056   0.858   0.027  0.3285 -0.0782  0.0735
   28PET     H8  812   0.055   0.955   0.078 -1.0873 -0.1075  0.1665
   28PET     H9  813   0.118   0.780   0.073  1.1122  1.8770  2.6080
   28PET    C11  814  -0.092   0.819   0.047  0.2413 -0.2158 -0.1594
   28PET    H10  815  -0.156   0.896   0.002 -1.9177 -1.3960  0.7325
   28PET    H11  816  -0.122   0.827   0.153 -0.1217  0.4774 -0.3064
   28PET    C12  817  -0.145   0.679  -0.009  0.2506 -0.6118  0.1801
   28PET    H13  818  -0.155   0.700  -0.116  0.9450  2.7739  0.6574
   28PET    H14  819  -0.249   0.673   0.026 -0.0709  3.4279  0.3486
   29PET     C9  820  -0.061   0.557   0.029 -0.2475 -0.9712 -0.4192
   29PET     H6  821  -0.117   0.463   0.018 -1.1855 -0.5170  0.3161
   29PET     H7  822  -0.023   0.570   0.131  3.1967  2.2866 -1.8862
   29PET     O2  823   0.061   0.557  -0.034 -0.0630  0.2059 -0.0297
   29PET     C8  824   0.062   0.528  -0.170 -0.4645  0.6265  0.5449
   29PET     O1  825  -0.031   0.488  -0.237 -0.1959  0.6444  0.0017
   29PET     C4  826   0.196   0.553  -0.233 -0.3851  0.5881  0.0641
   29PET     C5  827   0.309   0.583  -0.156 -0.1362 -0.1706  0.1836
   29PET     C6  828   0.429   0.606  -0.221 -0.4010  0.2104 -0.0958
   29PET     H4  829   0.520   0.639  -0.172 -0.7135  1.2701 -0.2108
   29PET     H3  830   0.304   0.593  -0.048  1.5076 -0.7728  0.3545
   29PET     C3  831   0.208   0.530  -0.374  0.3538  0.1557 -0.4477
   29PET     H2  832   0.126   0.491  -0.433 -1.0599  2.4852 -0.1890
   29PET     C2  833   0.328   0.555  -0.436 -0.3643  0.3203 -0.5933
   29PET     H1  834   0.334   0.533  -0.542 -0.4348 -1.3838 -0.2821
   29PET     C1  835   0.441   0.607  -0.362  0.0471  1.0962  0.5161
   29PET     C7  836   0.572   0.652  -0.430 -0.4970  0.2693 -1.0808
   29PET     O3  837   0.676   0.658  -0.366  0.3167  0.2219  0.0466
   29PET     O4  838   0.555   0.686  -0.558 -1.0514 -0.0699 -0.0785
   29PET    C10  839   0.665   0.732  -0.644 -0.3682  0.0503 -0.9102
   29PET     H8  840   0.734   0.793  -0.586 -1.9418  1.2713 -0.2444
   29PET     H9  841   0.617   0.784  -0.729 -1.3861  0.3632 -0.1671
   29PET    C11  842   0.747   0.612  -0.705  0.4029  0.4585 -0.5963
   29PET    H10  843   0.675   0.535  -0.737 -1.4825  1.3102  1.3801
   29PET    H11  844   0.813   0.564  -0.632  0.1442  1.4391  0.2990
   29PET    C12  845   0.831   0.660  -0.823 -0.1556  0.4716  0.5200
   29PET    H13  846   0.769   0.693  -0.907 -0.3013  1.7121  1.0833
   29PET    H14  847   0.886   0.575  -0.864  1.8601  2.5516 -1.4006
   30PET     C9  848   0.925   0.778  -0.788 -0.3438  0.0026  0.4379
   30PET     H6  849   0.997   0.777  -0.870 -0.1610 -1.6385  0.5907
   30PET     H7  850   0.978   0.767  -0.692 -1.0627  0.5547  0.9079
   30PET     O2  851   0.849   0.897  -0.801  0.4314  0.7935 -0.1540
   30PET     C8  852   0.904   1.019  -0.754  0.0118  0.5166  0.6476
   30PET     O1  853   1.017   1.025  -0.706 -0.4636 -0.0915  0.2781
   30PET     C4  854   0.798   1.130  -0.743 -0.1504 -0.0012 -0.0174
   30PET     C5  855   0.838   1.253  -0.690 -0.0956  0.1880 -0.4704
   30PET     C6  856   0.750   1.360  -0.676  0.3624  0.1966  0.3296
   30PET     H4  857   0.787   1.455  -0.639  0.0301  0.9238 -1.1204
   30PET     H3  858   0.940   1.276  -0.660 -0.1167 -3.2849  3.0840
   30PET     C3  859   0.657   1.110  -0.774 -0.2189 -0.0047  0.4104
   30PET     H2  860   0.614   1.020  -0.818 -1.3010  0.9187 -0.4896
   30PET     C2  861   0.565   1.221  -0.765  0.3331 -0.0115 -0.4936
   30PET     H1  862   0.460   1.208  -0.788  0.4371  0.8131 -1.5116
   30PET     C1  863   0.615   1.346  -0.722  0.0570  0.8342  0.1035
   30PET     C7  864   0.518   1.459  -0.705  0.3316  0.4823 -0.6365
   30PET     O3  865   0.403   1.452  -0.745  0.2374  0.2659  0.2313
   30PET     O4  866   0.565   1.573  -0.644  0.1041  0.0958  0.4905
   30PET    C10  867   0.468   1.668  -0.616  0.1613 -0.1346 -0.7985
   30PET     H8  868   0.389   1.625  -0.553  0.8549  0.4363  0.5135
   30PET     H9  869   0.430   1.717  -0.706  2.4080 -0.4252 -1.9858
   30PET    C11  870   0.540   1.775  -0.534  0.2284 -0.4199  0.2345
   30PET    H10  871   0.609   1.830  -0.598  0.8136 -0.5900  0.7009
   30PET    H11  872   0.617   1.728  -0.471  2.8097 -0.5877 -2.8364
   30PET    C12  873   0.443   1.862  -0.448 -0.3504  0.2895 -0.1149
   30PET    H13  874   0.516   1.921  -0.392 -0.0144 -0.3103  0.0951
   30PET    H14  875   0.391   1.939  -0.506  3.8593  1.7243 -2.3821
   31SOL     OW  876   2.885   2.477   1.476 -0.3555 -0.0488  0.4978
   31SOL    HW1  877   2.865   2.554   1.422 -1.0067  0.1028  0.9362
   31SOL    HW2  878   2.842   2.404   1.432  1.3314 -0.4304 -0.6305
   32SOL     OW  879   0.019   0.631   1.608  0.1895 -0.3868  0.1279
   32SOL    HW1  880   0.105   0.667   1.630  0.1193 -0.6943  0.9554
   32SOL    HW2  881  -0.024   0.699   1.557  0.7725 -0.0714  0.0529
   33SOL     OW  882   2.517   2.555   2.328 -0.6670 -0.2622  0.5010
   33SOL    HW1  883   2.472   2.575   2.246 -1.3983  1.9170  1.3633
   33SOL    HW2  884   2.447   2.545   2.392 -0.0621  1.2227  1.4677
   34SOL     OW  885   1.765   0.564   0.107 -0.1406 -0.0985  0.4302
   34SOL    HW1  886   1.850   0.593   0.141 -0.3836  1.2408 -0.0124
   34SOL    HW2  887   1.783   0.484   0.059  0.9010  0.2412  0.2436
   35SOL     OW  888   1.543   1.857   1.826 -0.1696  0.0812  0.2032
   35SOL    HW1  889   1.546   1.885   1.734  1.0585 -2.5937 -0.7056
   35SOL    HW2  890   1.625   1.889   1.864  0.0827 -0.1531 -0.1284
   36SOL     OW  891   0.303   3.121   2.068  0.4717  0.2316  0.6801
   36SOL    HW1  892   0.347   3.042   2.037 -2.6912 -1.4116 -0.0959
   36SOL    HW2  893   0.329   3.189   2.006  0.0520 -1.2287 -1.1989
   37SOL     OW  894   2.008   0.628   0.182  0.1880  0.4566 -0.3213
   37SOL    HW1  895   2.090   0.676   0.192  1.1744 -1.0451 -0.9937
   37SOL    HW2  896   2.034   0.541   0.153 -1.4968 -0.7871  1.6237
   38SOL     OW  897   0.753   2.474   2.799 -0.0223 -0.5513 -0.4118
   38SOL    HW1  898   0.811   2.499   2.871 -0.5104 -0.6474  0.0168
   38SOL    HW2  899   0.766   2.380   2.789 -1.1232 -0.8328  0.6107
   39SOL     OW  900   2.050   2.042   1.101  0.0317 -0.5165  0.6319
   39SOL    HW1  901   2.094   2.121   1.072  0.9256 -1.6270 -1.2340
   39SOL    HW2  902   2.060   2.042   1.196  2.6946  0.1021  0.4285
   40SOL     OW  903   1.211   0.383   3.192  0.6799 -0.7857  0.0479
   40SOL    HW1  904   1.248   0.349   3.111  2.0480 -1.2037  0.8178
   40SOL    HW2  905   1.172   0.307   3.235 -1.5156 -0.2901 -0.9244
   41SOL     OW  906   1.425   3.379   1.284 -0.2552  0.3275 -0.3073
   41SOL    HW1  907   1.440   3.285   1.284 -1.6290  0.0516 -1.7069
   41SOL    HW2  908   1.378   3.397   1.365  2.3961  0.3293  1.3575
   42SOL     OW  909   2.127   0.866   0.942 -0.0077 -0.1845 -0.1179
   42SOL    HW1  910   2.110   0.929   1.012  1.8877 -0.1875  0.4149
   42SOL    HW2  911   2.221   0.847   0.949 -0.2345 -1.9631 -1.1960
   43SOL     OW  912   0.859   0.877   1.010  0.8952  0.5427  0.2748
   43SOL    HW1  913   0.876   0.783   1.002 -1.4203  0.0720  0.2730
   43SOL    HW2  914   0.922   0.908   1.075  0.0714 -1.5264  2.1595
   44SOL     OW  915   0.806   0.016   2.361 -0.3692  0.1608  0.0494
   44SOL    HW1  916   0.798   0.010   2.266 -1.0425 -1.9328  0.1967
   44SOL    HW2  917   0.720   0.043   2.392 -0.3338  0.2135  0.1028
   45SOL     OW  918   1.916   3.084   2.030 -0.4667  0.4635  0.2553
   45SOL    HW1  919   1.890   3.127   2.112 -0.0599  0.0315  0.6166
   45SOL    HW2  920   1.931   3.156   1.969 -0.6217  0.7957  0.6024
   46SOL     OW  921   0.502   1.966   0.022  0.1887 -0.4052 -0.0154
   46SOL    HW1  922   0.452   1.905  -0.032  1.0290 -1.1515  0.0156
   46SOL    HW2  923   0.575   1.993  -0.033 -0.2681  0.7338 -0.0877
   47SOL     OW  924   1.052   3.156   2.277 -0.3807 -0.4165  0.1104
   47SOL    HW1  925   0.966   3.115   2.285 -0.7431  0.1035 -0.8833
   47SOL    HW2  926   1.084   3.163   2.367 -0.1033 -3.2444  0.2939
   48SOL     OW  927   0.768   2.964   2.757 -0.1989  0.4480  0.1318
   48SOL    HW1  928   0.863   2.952   2.748 -0.1025 -0.3089  1.7460
   48SOL    HW2  929   0.734   2.952   2.669  0.9572 -2.0635 -0.0660
   49SOL     OW  930   0.131   0.857   1.293  0.3846  0.1245 -0.3947
   49SOL    HW1  931   0.098   0.840   1.205 -0.1926  0.9590 -0.3452
   49SOL    HW2  932   0.176   0.941   1.285  1.4298 -0.3852 -0.1672
   50SOL     OW  933   3.202   3.017   1.217 -0.2248 -0.6784 -0.5398
   50SOL    HW1  934   3.229   3.105   1.240 -1.7362 -0.4438  0.5111
   50SOL    HW2  935   3.220   2.964   1.295 -0.4885 -1.0247 -0.7065
   51SOL     OW  936   2.038   1.923   2.545 -0.1663  0.2769 -0.1992
   51SOL    HW1  937   2.048   1.942   2.638 -1.1440  1.0454 -0.2376
   51SOL    HW2  938   2.106   1.857   2.527  0.9239  1.0907  0.7485
   52SOL     OW  939   0.507   2.588   2.864 -0.1694 -0.2746  0.1351
   52SOL    HW1  940   0.495   2.576   2.958 -0.1322  0.8414  0.3051
   52SOL    HW2  941   0.579   2.530   2.841 -0.2464 -0.6348  0.7796
   53SOL     OW  942   2.190   0.074   0.639 -0.1305 -0.4547 -0.3701
   53SOL    HW1  943   2.220  -0.001   0.589 -0.3745 -0.1398 -0.9984
   53SOL    HW2  944   2.243   0.073   0.719  2.6988  1.0036 -2.1050
   54SOL     OW  945   0.518   0.024   1.707  0.0679  0.1371 -0.0678
   54SOL    HW1  946   0.531   0.065   1.622  2.8635 -0.9102 -0.2580
   54SOL    HW2  947   0.567   0.079   1.768  1.9061 -1.5028  0.0383
   55SOL     OW  948   0.782   0.391   1.021 -0.1725  0.1579  0.1957
   55SOL    HW1  949   0.831   0.466   1.055 -1.6768  0.9950  0.6206
   55SOL    HW2  950   0.849   0.327   0.996  1.0773  0.4968  2.4600
   56SOL     OW  951   1.329   1.702   1.033 -0.4868 -0.0488  0.0914
   56SOL    HW1  952   1.282   1.763   1.089 -0.1277 -0.9552  1.4545
   56SOL    HW2  953   1.418   1.737   1.029 -0.1669 -0.6703  1.2360
   57SOL     OW  954   3.243   2.455   2.738  0.3440  0.6020  0.5084
   57SOL    HW1  955   3.287   2.370   2.729 -1.0719 -0.2224  1.0014
   57SOL    HW2  956   3.159   2.443   2.693 -0.1779  1.5078  1.2052
   58SOL     OW  957   1.494   2.975   2.357 -0.3505  0.1863  0.2631
   58SOL    HW1  958   1.411   3.018   2.336  0.4135  2.3830  1.4929
   58SOL    HW2  959   1.474   2.921   2.434 -1.6423 -2.9583 -2.0847
   59SOL     OW  960   2.704   1.142   1.241 -0.4648  0.4047 -0.2005
   59SOL    HW1  961   2.638   1.105   1.300  1.3663 -0.0343  1.6957
   59SOL    HW2  962   2.772   1.075   1.235  1.0184  1.8186  0.0338
   60SOL     OW  963   0.585   1.237   1.460  0.4574  0.2545  0.0850
   60SOL    HW1  964   0.577   1.284   1.543  0.4860 -0.5681  0.5622
   60SOL    HW2  965   0.678   1.221   1.450  1.0468  3.8261 -2.1084
   61SOL     OW  966   0.311   0.637   1.392  0.0383  0.0703 -0.6775
   61SOL    HW1  967   0.251   0.711   1.393 -0.2078 -0.1240  1.0767
   61SOL    HW2  968   0.384   0.664   1.447  0.8391 -0.3004 -1.5224
   62SOL     OW  969   2.263   2.534   1.811  0.4727  0.1236 -0.5263
   62SOL    HW1  970   2.225   2.532   1.723 -0.2583 -0.0500 -0.2061
   62SOL    HW2  971   2.351   2.496   1.799 -0.0234 -0.9292 -0.9861
   63SOL     OW  972   1.344   0.650   1.492  0.0984  0.0100 -0.3929
   63SOL    HW1  973   1.406   0.678   1.558 -0.1090 -0.6264  0.0861
   63SOL    HW2  974   1.259   0.681   1.524  0.2097  1.3026 -1.2862
   64SOL     OW  975   0.067   0.112   1.262 -0.2989  0.3821  0.7534
   64SOL    HW1  976   0.065   0.156   1.177 -0.0544  3.3367  2.1512
   64SOL    HW2  977  -0.021   0.125   1.297 -0.3445 -0.6582  1.0528
   65SOL     OW  978   1.650   2.250   0.122 -0.5173 -0.2729 -0.0813
   65SOL    HW1  979   1.637   2.328   0.176 -0.6102  0.2833 -0.8781
   65SOL    HW2  980   1.718   2.201   0.167  1.2005  1.3959 -0.7145
   66SOL     OW  981   1.811   2.501   2.693 -0.0661  0.0799 -0.3868
   66SOL    HW1  982   1.797   2.558   2.618 -0.1258  1.0082  0.3101
   66SOL    HW2  983   1.753   2.535   2.761 -0.3426 -1.0186 -0.0520
   67SOL     OW  984   0.765   0.096   2.087  0.0598 -0.3517 -0.0628
   67SOL    HW1  985   0.794   0.183   2.060  1.4571 -0.7348  0.1146
   67SOL    HW2  986   0.797   0.038   2.017  0.4961 -0.9015  0.5839
   68SOL     OW  987   1.328   0.187   1.984 -0.2738 -0.1525 -0.3307
   68SOL    HW1  988   1.333   0.092   1.991 -2.4202 -0.4665 -2.0560
   68SOL    HW2  989   1.274   0.214   2.059  0.2915 -0.2830  0.1285
   69SOL     OW  990   1.651   0.728   0.415  0.3945  0.1546 -0.1060
   69SOL    HW1  991   1.562   0.723   0.450  0.1352  2.7605 -0.1783
   69SOL    HW2  992   1.707   0.718   0.492  0.1051 -1.6878 -0.0833
   70SOL     OW  993   1.834   3.000   3.158  0.2383  0.9511  0.5165
   70SOL    HW1  994   1.803   2.939   3.091 -3.0732  3.1542 -0.1836
   70SOL    HW2  995   1.925   3.018   3.134  1.5210 -3.6868  0.9076
   71SOL     OW  996   2.449   2.309   3.002 -0.4348  0.3343  0.3510
   71SOL    HW1  997   2.381   2.343   2.944 -0.0796 -0.0674 -0.3199
   71SOL    HW2  998   2.527   2.360   2.979  0.1378 -0.9675 -0.7561
   72SOL     OW  999   2.512   0.051   0.354 -0.6587 -0.3478 -0.0496
   72SOL    HW1 1000   2.538  -0.041   0.354 -0.5020 -0.3139 -1.0267
   72SOL    HW2 1001   2.502   0.074   0.447  0.3457 -1.0516  0.2392
   73SOL     OW 1002   2.576   1.656   0.683  0.1959  0.0040  0.2216
   73SOL    HW1 1003   2.572   1.573   0.637  1.7376 -1.0477  1.8145
   73SOL    HW2 1004   2.552   1.722   0.618 -3.7800 -1.7997 -0.4258
   74SOL     OW 1005   2.792   3.371   0.582  0.5642  0.4796 -0.2111
   74SOL    HW1 1006   2.713   3.324   0.556 -0.4115 -0.0177  3.1570
   74SOL    HW2 1007   2.776   3.462   0.557 -1.1732  0.3970  0.4886
   75SOL     OW 1008   0.386   0.720   0.649  0.3097  0.4754 -0.1587
   75SOL    HW1 1009   0.307   0.666   0.655 -1.4024  2.7107 -1.1413
   75SOL    HW2 1010   0.355   0.809   0.660  2.6273  1.5020 -1.2678
   76SOL     OW 1011   2.045   3.095   2.353  0.2538  0.0679  0.6073
   76SOL    HW1 1012   2.099   3.124   2.427  0.8598  0.0570  0.1737
   76SOL    HW2 1013   2.088   3.132   2.276  0.2992 -0.8933  0.1588
   77SOL     OW 1014   2.992   2.940   3.041 -0.2890  0.4551 -0.0026
   77SOL    HW1 1015   3.020   2.870   2.983  0.1699  1.2454 -0.7489
   77SOL    HW2 1016   3.046   2.929   3.120 -1.1562 -0.8275  0.4466
   78SOL     OW 1017   1.929   2.388   2.930  0.0444  0.2437  0.4956
   78SOL    HW1 1018   1.888   2.435   3.003  1.7292  0.8551  1.1174
   78SOL    HW2 1019   1.888   2.423   2.852 -1.4772 -0.0898  1.1126
   79SOL     OW 1020   0.923   0.321   1.735 -0.4022 -0.4181 -0.1318
   79SOL    HW1 1021   0.905   0.353   1.824  2.5214  2.0016 -0.2128
   79SOL    HW2 1022   0.994   0.258   1.747 -1.6938 -2.0114 -0.6046
   80SOL     OW 1023   0.382   0.885   1.841 -0.3106  0.1048 -0.1690
   80SOL    HW1 1024   0.361   0.974   1.809 -0.2314 -0.0557 -0.6769
   80SOL    HW2 1025   0.477   0.882   1.841 -0.3152 -0.2315 -0.8759
   81SOL     OW 1026   2.158   2.293   0.613  0.0974  0.0450  0.4766
   81SOL    HW1 1027   2.164   2.376   0.660  0.9107 -0.0407  0.5305
   81SOL    HW2 1028   2.118   2.316   0.529 -0.5822  0.3302  0.8679
   82SOL     OW 1029   1.879   3.153   0.388 -0.5500 -0.3675  0.3933
   82SOL    HW1 1030   1.944   3.145   0.319  0.0004 -1.7327  1.0325
   82SOL    HW2 1031   1.930   3.181   0.465 -0.6855 -1.4957  0.9096
   83SOL     OW 1032   1.372   0.358   1.412 -0.0961 -0.1303  0.5578
   83SOL    HW1 1033   1.465   0.369   1.392 -0.6734 -0.6418 -3.2059
   83SOL    HW2 1034   1.342   0.445   1.437  1.1100  0.3597  0.3432
   84SOL     OW 1035   0.668   0.865   3.232  0.1413  0.6470  0.3970
   84SOL    HW1 1036   0.742   0.828   3.184  0.7331  1.0328  0.9939
   84SOL    HW2 1037   0.654   0.952   3.193 -0.7487  0.1313 -0.4826
   85SOL     OW 1038   0.875   0.919   1.442  0.5345 -0.4261 -0.5001
   85SOL    HW1 1039   0.841   0.830   1.444  0.7833 -0.5292  1.8187
   85SOL    HW2 1040   0.815   0.966   1.383 -2.3645 -1.1316  1.6287
   86SOL     OW 1041   3.266   0.191   0.198 -0.1079 -0.0456 -0.1051
   86SOL    HW1 1042   3.341   0.159   0.249  0.8658  2.3095  0.0423
   86SOL    HW2 1043   3.298   0.198   0.109 -0.2032  0.8081 -0.0752
   87SOL     OW 1044   2.152   2.883   2.003 -0.3159 -0.5546  0.4403
   87SOL    HW1 1045   2.128   2.967   1.964  0.7219 -0.1951  0.5233
   87SOL    HW2 1046   2.228   2.854   1.953  0.2639 -0.6973  1.3620
   88SOL     OW 1047   2.401   1.658   1.538 -0.0617 -0.3901 -0.0145
   88SOL    HW1 1048   2.373   1.668   1.447  2.7887 -1.5193 -1.1457
   88SOL    HW2 1049   2.483   1.708   1.543 -0.6570  0.4663  2.2577
   89SOL     OW 1050   2.076   1.531   0.729 -0.1122 -0.3353  0.0895
   89SOL    HW1 1051   2.139   1.466   0.698 -1.7152 -1.3392 -1.1926
   89SOL    HW2 1052   2.130   1.597   0.773  1.9589 -0.5319 -1.9555
   90SOL     OW 1053   2.590   1.382   0.282 -0.3793 -0.2752  0.3900
   90SOL    HW1 1054   2.556   1.399   0.194 -3.1595 -0.4100  1.3328
   90SOL    HW2 1055   2.546   1.301   0.309  0.6696 -0.4157  1.7747
   91SOL     OW 1056   2.506   2.230   0.659 -0.3778 -0.9865  0.4279
   91SOL    HW1 1057   2.450   2.262   0.589  1.1336 -0.0716 -0.4166
   91SOL    HW2 1058   2.446   2.191   0.722 -2.2531  2.4373  0.9718
   92SOL     OW 1059   3.321   1.275   0.620  0.2848 -0.0351 -0.2098
   92SOL    HW1 1060   3.240   1.257   0.668  0.0069 -0.0971 -0.6980
   92SOL    HW2 1061   3.371   1.333   0.678 -0.4255  0.6008 -0.2136
   93SOL     OW 1062   2.849   3.139   0.273 -0.0398  0.4466 -0.0003
   93SOL    HW1 1063   2.824   3.132   0.181  1.3997  0.4861 -0.4094
   93SOL    HW2 1064   2.837   3.231   0.294  3.1625  1.2736 -1.2554
   94SOL     OW 1065   0.857   2.682   3.064  0.2952 -0.2038 -0.7705
   94SOL    HW1 1066   0.894   2.762   3.100 -0.6516  0.4788 -1.2802
   94SOL    HW2 1067   0.933   2.629   3.039  0.9435 -0.0655  0.8163
   95SOL     OW 1068   2.413   2.046   1.567 -0.0388 -0.5007 -0.1960
   95SOL    HW1 1069   2.365   2.015   1.644 -0.6849  0.8077 -0.0547
   95SOL    HW2 1070   2.401   2.141   1.567  0.6659 -0.3907 -1.4375
   96SOL     OW 1071   0.068   0.290   2.486 -0.4720 -0.1265 -0.0671
   96SOL    HW1 1072  -0.002   0.231   2.513 -0.0650 -0.6931 -0.2106
   96SOL    HW2 1073   0.134   0.282   2.554  0.6367 -1.6955 -1.2477
   97SOL     OW 1074   1.084   0.775   1.595 -0.0356  0.1543 -0.1431
   97SOL    HW1 1075   1.018   0.707   1.580 -0.9282  0.9849 -0.0443
   97SOL    HW2 1076   1.065   0.842   1.530  1.4152 -0.0734 -0.8442
   98SOL     OW 1077   3.121   1.727   1.759  0.1744  0.5677 -0.3275
   98SOL    HW1 1078   3.059   1.658   1.735 -0.9598  1.2045  0.6102
   98SOL    HW2 1079   3.180   1.734   1.684 -0.0755 -0.9602 -0.7032
   99SOL     OW 1080   1.424   3.336   0.927  1.0733 -0.5587 -0.3632
   99SOL    HW1 1081   1.415   3.385   0.845 -0.8168 -0.9414 -0.4214
   99SOL    HW2 1082   1.407   3.400   0.996  0.4022 -0.7211 -0.3712
  100SOL     OW 1083   1.398   2.321   2.657 -0.4974  0.0021  0.6655
  100SOL    HW1 1084   1.356   2.294   2.576  0.0029 -2.0949  1.0651
  100SOL    HW2 1085   1.368   2.258   2.722 -0.2931  1.1948  1.9710
  101SOL     OW 1086   1.397   1.694   0.612 -0.0739 -0.4282 -0.4132
  101SOL    HW1 1087   1.334   1.720   0.679  2.5572  1.2127  1.6332
  101SOL    HW2 1088   1.394   1.764   0.547  1.0990  0.8497  0.8304
  102SOL     OW 1089   0.980   0.769   3.200  0.4576 -0.4305  0.8199
  102SOL    HW1 1090   0.974   0.682   3.238  0.8444 -0.4288  0.8879
  102SOL    HW2 1091   1.030   0.756   3.119  0.0816 -0.3523  0.5720
  103SOL     OW 1092   1.894   2.537   0.446 -0.1467  0.3264  0.4894
  103SOL    HW1 1093   1.955   2.465   0.437  0.4214  0.4804  2.5995
  103SOL    HW2 1094   1.924   2.602   0.383 -0.5145 -1.1268 -1.2526
  104SOL     OW 1095   0.592   2.839   2.945 -0.0975 -0.3258  0.0636
  104SOL    HW1 1096   0.652   2.885   2.886 -1.5701  0.3140 -0.9883
  104SOL    HW2 1097   0.556   2.767   2.893 -1.0404 -0.0602  0.3197
  105SOL     OW 1098   0.312   3.016   2.790  0.0164  0.1966 -0.3474
  105SOL    HW1 1099   0.338   3.039   2.701 -0.8367  0.5687 -0.5134
  105SOL    HW2 1100   0.298   2.921   2.787 -1.1693  0.3745 -0.9358
  106SOL     OW 1101   1.848   3.012   1.323 -0.6791  0.2954 -0.0370
  106SOL    HW1 1102   1.848   3.102   1.291 -2.9221  0.1916 -0.5614
  106SOL    HW2 1103   1.779   3.011   1.390  0.9482 -0.5133  1.6974
  107SOL     OW 1104   1.015   0.503   2.304 -0.3020 -0.3909  0.0309
  107SOL    HW1 1105   1.046   0.490   2.214  2.0612  1.2259  0.5309
  107SOL    HW2 1106   1.037   0.594   2.324  0.9757 -1.2203  2.8600
  108SOL     OW 1107   1.978   3.256   0.601 -0.1979 -0.4631 -0.2829
  108SOL    HW1 1108   2.048   3.317   0.624  0.5621 -1.5595  0.4018
  108SOL    HW2 1109   1.899   3.295   0.639  0.1146  0.4919 -0.5686
  109SOL     OW 1110   1.914   1.585   1.998 -0.2105 -0.2234 -0.3725
  109SOL    HW1 1111   1.917   1.565   1.904  1.5680 -2.6916  0.1226
  109SOL    HW2 1112   1.820   1.593   2.017 -0.6089  0.7785 -2.3825
  110SOL     OW 1113   2.419   3.183   1.405  0.1337 -0.4884  0.4774
  110SOL    HW1 1114   2.396   3.090   1.403  2.2426 -1.1916  2.8130
  110SOL    HW2 1115   2.379   3.220   1.327  0.8309 -3.7498 -1.6028
  111SOL     OW 1116   0.173   3.349   2.725 -0.7464 -0.2943  0.2056
  111SOL    HW1 1117   0.119   3.333   2.648 -1.1138 -0.4892  0.5049
  111SOL    HW2 1118   0.263   3.334   2.695 -0.6411  1.9642 -0.8459
  112SOL     OW 1119   1.798   3.263   1.216 -0.0693  0.5754  0.4200
  112SOL    HW1 1120   1.736   3.336   1.209  0.8823  1.3808  0.1389
  112SOL    HW2 1121   1.882   3.305   1.232  0.3398 -0.5265  1.2397
  113SOL     OW 1122   0.878   1.092   0.280 -0.5558  0.4295 -0.0817
  113SOL    HW1 1123   0.940   1.061   0.213 -0.9703 -0.4078 -0.1018
  113SOL    HW2 1124   0.792   1.071   0.243 -0.7909  0.0301  0.6817
  114SOL     OW 1125   1.100   2.572   2.976  0.1436 -0.4591  0.0014
  114SOL    HW1 1126   1.110   2.516   3.052  0.2657 -1.2829 -0.6039
  114SOL    HW2 1127   1.190   2.590   2.947  0.1862  1.4433  1.1574
  115SOL     OW 1128   2.464   0.560   0.746  0.0018 -0.4623 -0.3850
  115SOL    HW1 1129   2.515   0.494   0.699  2.1638 -0.9753  2.4109
  115SOL    HW2 1130   2.398   0.511   0.793  1.3091 -0.6763  1.3175
  116SOL     OW 1131   1.599   1.920   0.187  0.1505  0.3179 -0.5854
  116SOL    HW1 1132   1.694   1.911   0.192  0.0769 -0.1948  0.1875
  116SOL    HW2 1133   1.573   1.861   0.116  0.3270 -0.3054 -0.1446
  117SOL     OW 1134   1.493   1.936   3.157  0.2384 -0.2968  0.0974
  117SOL    HW1 1135   1.480   2.031   3.154  1.3499 -0.1423 -1.3152
  117SOL    HW2 1136   1.587   1.925   3.146 -0.0935 -1.5890 -2.1656
  118SOL     OW 1137   2.541   3.152   0.202 -0.1086 -0.1820  0.1399
  118SOL    HW1 1138   2.618   3.160   0.146 -0.1405  3.4173  0.3931
  118SOL    HW2 1139   2.485   3.089   0.156  1.2646  0.1463 -2.1471
  119SOL     OW 1140   2.299   3.301   1.181 -0.1527  0.2984  0.1795
  119SOL    HW1 1141   2.225   3.246   1.154 -0.4346  0.4858  0.5452
  119SOL    HW2 1142   2.259   3.386   1.200  0.1938  0.4678  0.1581
  120SOL     OW 1143   1.202   0.623   1.230  0.5599 -0.3514 -0.4400
  120SOL    HW1 1144   1.235   0.683   1.163  0.0163 -1.0245 -1.3289
  120SOL    HW2 1145   1.196   0.676   1.309  0.6097  0.6237 -1.0757
  121SOL     OW 1146   1.209   0.810   0.061  0.2521  0.1532  0.0121
  121SOL    HW1 1147   1.129   0.862   0.063  0.3305  0.3439 -1.1401
  121SOL    HW2 1148   1.278   0.872   0.037  0.4503 -0.3376 -0.7330
  122SOL     OW 1149   1.334   3.341   1.535  0.5530  0.2394  0.3777
  122SOL    HW1 1150   1.417   3.335   1.583 -0.7073 -0.5870  2.6041
  122SOL    HW2 1151   1.280   3.272   1.573 -2.0326  2.3630  0.8582
  123SOL     OW 1152   2.041   2.695   0.978 -0.5131 -0.0075 -0.7831
  123SOL    HW1 1153   2.064   2.602   0.982 -2.0688 -0.4247 -0.7943
  123SOL    HW2 1154   2.116   2.737   0.935  2.0904 -0.5697  2.7164
  124SOL     OW 1155   0.038   0.460   1.024 -0.4000 -0.2618  0.1002
  124SOL    HW1 1156   0.100   0.436   1.093  1.3926  0.6485 -1.1153
  124SOL    HW2 1157  -0.032   0.507   1.070  0.8842  0.5651  1.2902
  125SOL     OW 1158   1.302   1.959   2.716  0.1463 -0.2656  0.2014
  125SOL    HW1 1159   1.352   1.919   2.645  0.9716  1.2334 -0.1041
  125SOL    HW2 1160   1.222   1.991   2.673 -0.3011 -1.1145  0.3622
  126SOL     OW 1161   1.079   0.908   0.749 -0.6194 -0.8581 -0.0132
  126SOL    HW1 1162   1.023   0.975   0.789 -0.6504 -1.2627  0.6247
  126SOL    HW2 1163   1.106   0.947   0.666 -0.3915  0.0769  0.4897
  127SOL     OW 1164   2.138   3.066   1.169 -0.0130  0.4317 -0.4667
  127SOL    HW1 1165   2.163   2.975   1.159  2.4740  1.0268 -0.4703
  127SOL    HW2 1166   2.074   3.082   1.099 -1.7060 -1.6425  0.5214
  128SOL     OW 1167   2.552   2.090   2.397  0.1046 -0.1112 -0.5547
  128SOL    HW1 1168   2.466   2.118   2.427  0.1680 -0.7768  0.2953
  128SOL    HW2 1169   2.607   2.169   2.406  0.1136 -0.2587  1.1302
  129SOL     OW 1170   2.302   1.817   3.097  0.8436 -0.3527  0.3974
  129SOL    HW1 1171   2.208   1.814   3.116  1.1816 -1.6868  2.0486
  129SOL    HW2 1172   2.341   1.857   3.175  1.4960  2.1379 -1.1163
  130SOL     OW 1173   1.284   0.154   3.004  0.1713 -0.0201  0.4686
  130SOL    HW1 1174   1.262   0.103   3.083  0.1779 -0.5422  0.1390
  130SOL    HW2 1175   1.358   0.107   2.965  0.3680  0.4118  0.3165
  131SOL     OW 1176   2.374   2.277   0.256  0.4707  0.1403  0.4015
  131SOL    HW1 1177   2.314   2.332   0.306  0.4038  0.3399  0.1032
  131SOL    HW2 1178   2.417   2.337   0.195 -1.3356 -0.4756 -1.6151
  132SOL     OW 1179   1.023   1.950   3.063 -0.1120 -0.1970 -0.7435
  132SOL    HW1 1180   1.110   1.916   3.046  0.5327  0.4624  0.9320
  132SOL    HW2 1181   0.996   1.991   2.981  0.0478 -2.5912 -2.0842
  133SOL     OW 1182   2.793   0.753   1.117 -0.1890 -0.7156 -0.0251
  133SOL    HW1 1183   2.700   0.764   1.097 -0.6487  0.6752  2.5584
  133SOL    HW2 1184   2.797   0.672   1.168 -0.0620 -0.5238  0.2726
  134SOL     OW 1185   0.192   2.751   2.062 -0.0602  0.1683 -0.1679
  134SOL    HW1 1186   0.201   2.806   1.985 -2.1907  1.8118  0.6680
  134SOL    HW2 1187   0.144   2.674   2.032  0.4569  0.0635 -0.7503
  135SOL     OW 1188   1.945   2.331   1.257 -0.4145  0.2021 -0.0789
  135SOL    HW1 1189   1.998   2.311   1.334 -1.4823 -0.9282  0.3945
  135SOL    HW2 1190   2.009   2.348   1.187  0.5870  2.3378  1.2840
  136SOL     OW 1191   0.403   1.266   0.893 -0.8017 -0.7722  0.4677
  136SOL    HW1 1192   0.310   1.258   0.871 -1.0925  0.7706  0.9965
  136SOL    HW2 1193   0.430   1.178   0.916 -1.6908 -1.5638 -1.3257
  137SOL     OW 1194   2.441   3.018   0.949 -0.3786  0.0308  0.2275
  137SOL    HW1 1195   2.499   2.969   1.008 -0.3642 -0.8061 -0.4616
  137SOL    HW2 1196   2.470   3.109   0.956  0.4613 -0.2568  0.5389
  138SOL     OW 1197   2.474   0.150   0.093 -0.6115  0.4880 -0.2953
  138SOL    HW1 1198   2.544   0.215   0.084  2.9344 -3.0517 -1.2269
  138SOL    HW2 1199   2.468   0.135   0.187  0.3606  0.4272 -0.2298
  139SOL     OW 1200   1.736   1.783   2.706 -0.1230  0.2226  0.5314
  139SOL    HW1 1201   1.696   1.870   2.710 -0.9579 -0.1805  1.2984
  139SOL    HW2 1202   1.724   1.755   2.615  1.3275  1.4246 -0.0665
  140SOL     OW 1203   2.055   2.416   0.151 -0.1716 -0.3040  0.0021
  140SOL    HW1 1204   1.992   2.485   0.171  0.8375  0.8336 -0.5572
  140SOL    HW2 1205   2.134   2.443   0.198  0.0504 -1.4332  0.2950
  141SOL     OW 1206   2.074   2.964   3.357 -0.6572 -0.3661  0.2061
  141SOL    HW1 1207   2.035   3.035   3.305  0.1939 -0.4842 -0.6109
  141SOL    HW2 1208   2.102   3.007   3.438 -0.9660  0.0442  0.1027
  142SOL     OW 1209   3.014   1.959   1.857 -0.2632  0.4155  0.1093
  142SOL    HW1 1210   3.088   2.006   1.896 -1.8157  1.0365  2.5407
  142SOL    HW2 1211   3.037   1.866   1.866 -0.4938  0.5210  2.6491
  143SOL     OW 1212   2.216   1.211   0.840 -0.4259 -0.4816  0.0048
  143SOL    HW1 1213   2.279   1.174   0.902  1.1218  0.6179 -0.8394
  143SOL    HW2 1214   2.204   1.143   0.774 -0.5546 -0.9060  0.4616
  144SOL     OW 1215   2.384   2.835   1.867 -0.2576 -0.0155 -0.0464
  144SOL    HW1 1216   2.408   2.923   1.839  2.1203 -0.6208 -0.0951
  144SOL    HW2 1217   2.366   2.787   1.786 -0.3266  0.1030 -0.1004
  145SOL     OW 1218   2.589   2.912   1.136  0.2319  0.0192 -0.4002
  145SOL    HW1 1219   2.608   2.944   1.224  0.8229  0.8711 -0.8214
  145SOL    HW2 1220   2.671   2.872   1.107 -0.0058 -0.3939 -0.5129
  146SOL     OW 1221   2.646   2.275   1.898 -0.1175  0.7671  0.5801
  146SOL    HW1 1222   2.725   2.325   1.881  1.2482 -1.8048 -1.3705
  146SOL    HW2 1223   2.677   2.190   1.929 -2.0384 -0.5131 -0.7645
  147SOL     OW 1224   0.819   3.376   1.838 -0.1170 -0.2226  0.2408
  147SOL    HW1 1225   0.904   3.416   1.819  0.1914 -0.1896  1.5731
  147SOL    HW2 1226   0.824   3.290   1.798 -0.3500  0.6121 -1.6746
  148SOL     OW 1227   0.521   2.794   1.942  0.1756  0.4341  0.5366
  148SOL    HW1 1228   0.457   2.767   1.877  0.6326 -2.4119  1.1366
  148SOL    HW2 1229   0.606   2.778   1.899  0.5468  2.5388  0.3730
  149SOL     OW 1230   1.806   2.715   2.523  0.5382 -0.4008 -0.0211
  149SOL    HW1 1231   1.885   2.697   2.473  0.0132 -1.1307 -0.6156
  149SOL    HW2 1232   1.744   2.750   2.459 -0.3664 -1.9769 -0.0690
  150SOL     OW 1233   0.972   0.507   1.535 -0.1048  0.2896 -0.1508
  150SOL    HW1 1234   0.966   0.486   1.629 -1.6074  0.2636 -0.2320
  150SOL    HW2 1235   0.990   0.422   1.493 -0.6665  0.0869  0.0105
  151SOL     OW 1236   0.005   2.664   2.814 -0.6294  0.2044 -0.4404
  151SOL    HW1 1237  -0.051   2.596   2.775  0.3823 -0.7564 -0.2807
  151SOL    HW2 1238   0.094   2.635   2.795 -0.0419 -0.5870  2.9709
  152SOL     OW 1239   0.205   0.599   0.331 -0.2033 -0.1368 -0.4374
  152SOL    HW1 1240   0.236   0.689   0.327 -2.3879  0.6237 -2.6442
  152SOL    HW2 1241   0.273   0.548   0.287 -0.0015  0.7993 -1.2504
  153SOL     OW 1242   1.878   2.359   0.883  0.0900  0.1780  0.4594
  153SOL    HW1 1243   1.829   2.437   0.909  0.5958  0.3072  1.0759
  153SOL    HW2 1244   1.968   2.378   0.910  0.6546  0.2862 -1.3713
  154SOL     OW 1245   2.785   1.649   2.928 -0.2405 -0.6106  0.1141
  154SOL    HW1 1246   2.795   1.557   2.905 -0.7923 -0.9297  1.1028
  154SOL    HW2 1247   2.695   1.656   2.961  0.1323  0.0568  1.0328
  155SOL     OW 1248   0.314   3.323   1.888 -0.0028  0.1187  0.0258
  155SOL    HW1 1249   0.335   3.396   1.947  0.7002 -0.3972  0.4299
  155SOL    HW2 1250   0.367   3.340   1.809  2.5782 -1.4915  1.2663
  156SOL     OW 1251   1.777   2.482   3.158  0.1438 -0.6950  0.6888
  156SOL    HW1 1252   1.760   2.408   3.216 -0.6417 -0.4088  0.8455
  156SOL    HW2 1253   1.789   2.556   3.218 -1.9464 -0.1410  0.4953
  157SOL     OW 1254   0.039   1.010   0.538  0.4631  0.4472 -0.4292
  157SOL    HW1 1255   0.013   1.082   0.596 -2.6550  0.5308 -1.7273
  157SOL    HW2 1256   0.131   1.028   0.517  0.2145  3.2255  0.4239
  158SOL     OW 1257   1.660   0.112   1.193  0.0477 -0.4075  0.4775
  158SOL    HW1 1258   1.634   0.154   1.111  0.8300  0.5455  0.7045
  158SOL    HW2 1259   1.578   0.078   1.229 -0.4448 -0.0068 -0.2289
  159SOL     OW 1260   1.874   2.101   2.858 -0.0841 -0.4488  0.0122
  159SOL    HW1 1261   1.863   2.170   2.923 -0.2772 -0.2092 -0.2719
  159SOL    HW2 1262   1.809   2.120   2.791  0.2786 -0.5491 -0.3756
  160SOL     OW 1263   2.187   0.186   0.226  0.1896 -0.3505  0.3581
  160SOL    HW1 1264   2.262   0.181   0.167 -0.8181 -0.4459 -0.9523
  160SOL    HW2 1265   2.174   0.096   0.256 -0.2531 -0.5939 -0.5329
  161SOL     OW 1266   2.036   3.301   1.390  0.3650  0.0622 -0.3691
  161SOL    HW1 1267   2.073   3.221   1.353 -0.3660 -0.6427  0.3607
  161SOL    HW2 1268   2.010   3.276   1.479  0.9984  1.3829  0.2126
  162SOL     OW 1269   2.934   0.345   1.068  0.3402  0.3597  0.2234
  162SOL    HW1 1270   3.029   0.344   1.054  0.3271 -0.5534  0.1141
  162SOL    HW2 1271   2.899   0.296   0.993 -0.2661  1.1324 -0.0110
  163SOL     OW 1272   1.776   2.742   0.985 -0.5226 -0.1081  0.0449
  163SOL    HW1 1273   1.868   2.733   0.962 -0.4008  0.3140  0.3582
  163SOL    HW2 1274   1.773   2.735   1.080 -0.9182 -0.9377 -0.0183
  164SOL     OW 1275   2.557   0.272   0.833 -0.4862 -0.3102 -0.2074
  164SOL    HW1 1276   2.514   0.189   0.816 -0.7896 -0.8204  2.5978
  164SOL    HW2 1277   2.650   0.251   0.839 -0.6432 -0.6556  1.3642
  165SOL     OW 1278   2.686   0.079   1.132  0.0449  0.5654  0.4683
  165SOL    HW1 1279   2.751   0.021   1.173 -0.6116 -0.1084  0.5897
  165SOL    HW2 1280   2.682   0.155   1.189  0.6651  0.5703  0.5087
  166SOL     OW 1281   0.901   1.589   1.655  0.4198 -0.2093  0.4421
  166SOL    HW1 1282   0.988   1.608   1.690 -0.1367  0.7657  1.3578
  166SOL    HW2 1283   0.890   1.652   1.584  0.6518 -0.6693 -0.0064
  167SOL     OW 1284   1.831   1.733   2.987  0.0271  0.5213 -0.1139
  167SOL    HW1 1285   1.829   1.817   3.033 -0.7499 -0.3340  1.5284
  167SOL    HW2 1286   1.814   1.754   2.896 -0.5934  2.1169  0.3427
  168SOL     OW 1287   1.140   1.155   3.348  0.4060 -0.1931 -0.1187
  168SOL    HW1 1288   1.229   1.119   3.355  0.8410  0.8533 -0.0908
  168SOL    HW2 1289   1.138   1.227   3.411  0.0536  0.7804 -1.1993
  169SOL     OW 1290   0.073   2.934   2.604 -0.2960  0.1551  0.2146
  169SOL    HW1 1291   0.062   2.949   2.698  0.1860  3.0748 -0.0878
  169SOL    HW2 1292   0.122   2.853   2.598  1.3510  0.8712  2.6030
  170SOL     OW 1293   1.664   3.211   2.102 -0.0562 -0.4802  0.4898
  170SOL    HW1 1294   1.589   3.211   2.043  1.1902 -1.6633 -1.1651
  170SOL    HW2 1295   1.660   3.296   2.145 -0.8587  0.5890 -1.5529
  171SOL     OW 1296   0.144   1.429   0.757 -0.6440  0.4667 -0.6469
  171SOL    HW1 1297   0.127   1.402   0.847  1.4602  1.9986  0.2869
  171SOL    HW2 1298   0.118   1.520   0.754 -3.6738 -0.3371 -2.5668
  172SOL     OW 1299   1.042   0.316   2.019 -0.0380  0.1114  0.4392
  172SOL    HW1 1300   1.066   0.277   2.103  0.4652 -0.6355 -0.0387
  172SOL    HW2 1301   0.954   0.352   2.033 -1.1137 -2.3887  0.5368
  173SOL     OW 1302   2.455   0.028   0.764  0.2943  0.1946  0.3801
  173SOL    HW1 1303   2.478  -0.040   0.700  1.1507  0.4684  0.3725
  173SOL    HW2 1304   2.460  -0.015   0.849 -2.5095 -0.6181  0.2210
  174SOL     OW 1305   0.045   1.311   0.978 -0.0460 -0.1891  0.2103
  174SOL    HW1 1306   0.026   1.226   0.939  1.5438 -1.0485  1.1541
  174SOL    HW2 1307  -0.020   1.320   1.048 -0.7690 -0.2154 -0.4499
  175SOL     OW 1308   2.545   1.148   0.738  0.0811 -0.3911  0.2428
  175SOL    HW1 1309   2.487   1.100   0.796 -0.0941 -1.3553 -0.6945
  175SOL    HW2 1310   2.633   1.123   0.766  0.0581  0.7341  1.3835
  176SOL     OW 1311   1.077   2.051   1.724 -0.0595  0.0501  0.0872
  176SOL    HW1 1312   1.072   2.113   1.796 -0.0462  1.7256 -1.2881
  176SOL    HW2 1313   1.164   2.011   1.733  0.3564  1.0034  0.4175
  177SOL     OW 1314   2.192   1.941   1.725 -0.3016  0.0113 -0.1796
  177SOL    HW1 1315   2.102   1.962   1.699 -0.2085  1.4202  0.5373
  177SOL    HW2 1316   2.184   1.913   1.816 -0.0292 -0.1129 -0.1938
  178SOL     OW 1317   2.189   2.836   2.905  0.4966 -0.3576 -0.8441
  178SOL    HW1 1318   2.259   2.890   2.942 -2.7520  2.6605  1.5532
  178SOL    HW2 1319   2.161   2.780   2.977 -3.3515  2.8633  0.5500
  179SOL     OW 1320   0.302   1.015   0.528  0.2337 -0.3341  0.1183
  179SOL    HW1 1321   0.347   0.967   0.458 -0.0677 -0.6980  0.1717
  179SOL    HW2 1322   0.371   1.064   0.572  1.0711 -3.0420  2.0106
  180SOL     OW 1323   2.310   3.162   0.482 -0.1528 -0.4553 -0.0066
  180SOL    HW1 1324   2.262   3.081   0.498  0.4395 -0.8093  0.0369
  180SOL    HW2 1325   2.293   3.182   0.390 -1.5912  0.2507  0.3918
  181SOL     OW 1326   2.196   2.672   2.699  0.1357  0.4084  0.3474
  181SOL    HW1 1327   2.200   2.736   2.627 -1.3049  0.1269 -0.0202
  181SOL    HW2 1328   2.191   2.726   2.778  0.6169  0.7363  0.1567
  182SOL     OW 1329   1.386   0.630   0.515  0.2380 -0.1953  0.2129
  182SOL    HW1 1330   1.305   0.578   0.515 -1.4860  2.2746  1.8203
  182SOL    HW2 1331   1.360   0.714   0.477  2.3955  0.2932 -0.3259
  183SOL     OW 1332   0.476   2.396   0.071 -0.2318  0.2370  0.0679
  183SOL    HW1 1333   0.496   2.434  -0.014  2.9361 -0.8973  0.1918
  183SOL    HW2 1334   0.414   2.326   0.053 -0.7951  1.0094 -1.0695
  184SOL     OW 1335   0.866   2.592   2.020 -0.3581  0.5370  0.0341
  184SOL    HW1 1336   0.858   2.686   2.036 -1.0553  0.1684  2.0164
  184SOL    HW2 1337   0.857   2.552   2.106 -0.2759 -1.3772 -0.8098
  185SOL     OW 1338   0.265   0.300   0.406  0.3504  0.0954 -0.1797
  185SOL    HW1 1339   0.211   0.228   0.375  0.4491 -0.6397  1.2691
  185SOL    HW2 1340   0.333   0.310   0.340  0.5623 -1.4061 -0.2151
  186SOL     OW 1341   0.191   0.175   0.011 -0.2039 -0.1519 -0.2181
  186SOL    HW1 1342   0.127   0.178  -0.060 -0.6595  0.3752  0.2107
  186SOL    HW2 1343   0.249   0.250  -0.006 -0.0622 -0.2726 -0.2681
  187SOL     OW 1344   1.064   1.659   0.307 -0.1776  0.0275 -0.4142
  187SOL    HW1 1345   1.118   1.731   0.339  2.4090 -0.7451 -2.6796
  187SOL    HW2 1346   1.026   1.620   0.386  1.3988  1.5537  1.1798
  188SOL     OW 1347   3.117   3.109   1.517 -0.1506  0.5700 -0.7138
  188SOL    HW1 1348   3.136   3.176   1.583  0.9460  0.3472 -0.7826
  188SOL    HW2 1349   3.177   3.130   1.444  0.2876 -0.5455 -0.6876
  189SOL     OW 1350   1.436   0.170   0.753  0.0211  0.4372 -0.0907
  189SOL    HW1 1351   1.418   0.163   0.660  1.1216  1.8839 -0.4409
  189SOL    HW2 1352   1.514   0.226   0.759 -0.5598  1.1391  1.7319
  190SOL     OW 1353   1.025   2.914   2.417  0.1644 -0.0866 -0.5600
  190SOL    HW1 1354   1.058   3.000   2.446  0.3492  0.0084 -1.0374
  190SOL    HW2 1355   0.943   2.934   2.372 -1.6719 -0.5063  2.3406
  191SOL     OW 1356   2.468   3.108   1.928  0.1907  0.4935  0.2535
  191SOL    HW1 1357   2.466   3.203   1.939  0.0983  0.5205  0.0138
  191SOL    HW2 1358   2.517   3.076   2.004 -2.7741  0.4288  2.3137
  192SOL     OW 1359   2.897   3.279   1.285  0.2155 -0.3241 -0.2058
  192SOL    HW1 1360   2.877   3.228   1.364  1.0673 -0.9199 -0.3632
  192SOL    HW2 1361   2.880   3.218   1.213 -2.2211  0.7286 -0.6220
  193SOL     OW 1362   0.153   1.752   1.606 -0.0355 -0.4785 -0.6344
  193SOL    HW1 1363   0.177   1.823   1.547 -0.4640  0.4949  0.3304
  193SOL    HW2 1364   0.221   1.752   1.673 -1.2686  0.6203  0.6891
  194SOL     OW 1365   2.428   2.647   2.078 -0.2547 -0.1328 -0.0601
  194SOL    HW1 1366   2.368   2.582   2.040 -0.6306  1.1158 -1.7062
  194SOL    HW2 1367   2.423   2.722   2.019  0.2192  1.3940  1.7342
  195SOL     OW 1368   2.375   3.182   3.136  0.2534  0.3867 -0.5860
  195SOL    HW1 1369   2.379   3.265   3.185  2.8537  1.3255 -2.1946
  195SOL    HW2 1370   2.448   3.130   3.170  0.9733  0.3303 -2.1374
  196SOL     OW 1371   2.762   0.226   0.458  0.1143  0.0222 -0.5573
  196SOL    HW1 1372   2.810   0.285   0.516 -0.2561 -0.3967  0.1810
  196SOL    HW2 1373   2.701   0.284   0.411  0.1806  0.3146 -0.2899
  197SOL     OW 1374   2.542   1.860   1.137  0.0324  0.0219  0.2592
  197SOL    HW1 1375   2.565   1.927   1.073 -1.2661 -0.7580 -1.0863
  197SOL    HW2 1376   2.554   1.777   1.090 -1.2222 -0.5570  0.9076
  198SOL     OW 1377   1.844   2.673   1.878 -0.2543  0.0766  0.3601
  198SOL    HW1 1378   1.877   2.660   1.789 -1.6808  2.4250 -0.6027
  198SOL    HW2 1379   1.913   2.638   1.934  2.0675  1.2204 -1.6014
  199SOL     OW 1380   2.043   2.222   1.535 -0.2176 -0.3801 -0.3258
  199SOL    HW1 1381   2.115   2.278   1.563 -0.6514 -0.9240  2.1747
  199SOL    HW2 1382   1.966   2.258   1.580 -0.6417 -2.4340  0.7621
  200SOL     OW 1383   1.391   2.269   1.327 -0.2602  0.3859  0.1659
  200SOL    HW1 1384   1.482   2.287   1.304 -0.3510  0.7684  0.1042
  200SOL    HW2 1385   1.387   2.174   1.335  0.3961  0.4292  1.2448
  201SOL     OW 1386   0.224   1.444   1.279  0.1126 -0.1867 -0.1148
  201SOL    HW1 1387   0.152   1.507   1.274 -0.2950 -0.7290 -1.3003
  201SOL    HW2 1388   0.262   1.459   1.366 -0.5167  1.0933 -0.0312
  202SOL     OW 1389   1.056   1.767   2.386 -0.2509  0.0227 -0.1450
  202SOL    HW1 1390   0.985   1.816   2.344  0.4472 -0.0821 -1.5207
  202SOL    HW2 1391   1.131   1.826   2.381 -0.1089 -0.0751  0.8119
  203SOL     OW 1392   2.227   1.546   1.724 -0.1306 -0.0249  0.1370
  203SOL    HW1 1393   2.251   1.454   1.734  1.1831  0.3876  1.1587
  203SOL    HW2 1394   2.285   1.578   1.655 -0.4159  0.1037 -0.0461
  204SOL     OW 1395   1.100   0.252   0.629  0.4256  0.3920 -0.5018
  204SOL    HW1 1396   1.184   0.235   0.674 -0.2249  2.2541  1.6056
  204SOL    HW2 1397   1.045   0.292   0.696 -1.7168  0.5029 -2.2211
  205SOL     OW 1398   0.839   1.911   1.858  0.3511 -0.5771  0.3131
  205SOL    HW1 1399   0.901   1.858   1.908  0.5098  0.2083  0.9843
  205SOL    HW2 1400   0.894   1.957   1.794  0.3197 -0.6806  0.2131
  206SOL     OW 1401   2.302   1.579   2.602 -0.2039  0.1718  0.0588
  206SOL    HW1 1402   2.262   1.630   2.531  0.7855 -1.4670 -1.7929
  206SOL    HW2 1403   2.385   1.624   2.620 -0.0871  0.1514 -0.4088
  207SOL     OW 1404   1.891   0.092   3.191 -0.0091  0.3300 -0.3836
  207SOL    HW1 1405   1.924   0.071   3.278  0.3674 -2.9092 -1.1726
  207SOL    HW2 1406   1.803   0.125   3.205 -1.1364 -2.9889  1.1698
  208SOL     OW 1407   2.947   2.064   2.202 -0.4161 -0.3207  0.3342
  208SOL    HW1 1408   3.016   2.044   2.139 -0.5690 -1.2813  0.4695
  208SOL    HW2 1409   2.924   2.156   2.184 -0.1515 -0.4502 -0.7061
  209SOL     OW 1410   0.070   0.271   1.922 -0.7090 -0.4424 -0.5367
  209SOL    HW1 1411   0.066   0.358   1.961  2.0522 -0.1831 -0.5789
  209SOL    HW2 1412   0.100   0.286   1.832  1.8264 -1.4388  0.0426
  210SOL     OW 1413   2.574   0.444   0.365 -0.6001  0.1985 -0.3617
  210SOL    HW1 1414   2.483   0.449   0.335  0.2613  1.0268 -3.2722
  210SOL    HW2 1415   2.624   0.434   0.284  1.8374 -1.8037  1.2662
  211SOL     OW 1416   1.493   2.420   3.107  0.7830  0.0784  0.4920
  211SOL    HW1 1417   1.484   2.508   3.145 -0.8241  0.1378  0.0233
  211SOL    HW2 1418   1.404   2.393   3.086  1.4448 -0.6658 -1.6458
  212SOL     OW 1419   0.431   2.618   2.120 -0.4108 -0.3925 -0.6906
  212SOL    HW1 1420   0.344   2.652   2.096 -0.2792 -0.5005 -1.3524
  212SOL    HW2 1421   0.489   2.650   2.051  0.1905  0.1630  0.0610
  213SOL     OW 1422   2.275   1.716   0.847 -0.6378  0.1267 -0.4019
  213SOL    HW1 1423   2.348   1.751   0.795 -0.0732  0.7667  0.7776
  213SOL    HW2 1424   2.291   1.749   0.935 -2.7291  0.8246 -0.2476
  214SOL     OW 1425   0.840   1.269   1.583 -0.0673  0.1739  0.1560
  214SOL    HW1 1426   0.830   1.346   1.638 -0.8369 -0.3503  0.7646
  214SOL    HW2 1427   0.829   1.195   1.642  1.8707 -0.4534 -0.1704
  215SOL     OW 1428   2.182   2.191   2.265  0.7011  0.1373 -0.0630
  215SOL    HW1 1429   2.227   2.201   2.350 -0.1057 -0.0400  0.3918
  215SOL    HW2 1430   2.249   2.213   2.200  2.3049 -2.6659  0.4405
  216SOL     OW 1431   3.104   2.674   2.931  0.1331  0.2971  0.7190
  216SOL    HW1 1432   3.106   2.592   2.881 -0.7132  0.4618  0.3848
  216SOL    HW2 1433   3.051   2.653   3.008 -0.4553  0.6337  0.4167
  217SOL     OW 1434   0.490   0.313   2.735 -0.6705 -0.6937  0.0213
  217SOL    HW1 1435   0.527   0.320   2.823 -0.1610 -1.2671 -0.1326
  217SOL    HW2 1436   0.532   0.235   2.698  1.3692  1.1093 -1.7867
  218SOL     OW 1437   2.168   3.164   1.878 -0.1820  0.0880  0.0491
  218SOL    HW1 1438   2.122   3.176   1.794 -0.0817 -2.6221 -0.4606
  218SOL    HW2 1439   2.260   3.181   1.858 -0.4062  1.5675  0.1532
  219SOL     OW 1440   1.895   0.682   0.973 -0.2894  0.2229 -0.2780
  219SOL    HW1 1441   1.827   0.740   0.937  0.4181  0.6395 -0.9729
  219SOL    HW2 1442   1.977   0.724   0.948  0.2316 -0.7754 -0.2682
  220SOL     OW 1443   1.531   2.879   2.619  0.0581 -0.7958  0.3345
  220SOL    HW1 1444   1.626   2.881   2.629 -0.0345  0.0575  1.2145
  220SOL    HW2 1445   1.498   2.926   2.696 -1.1415 -2.3903  0.8492
  221SOL     OW 1446   1.147   1.704   1.674 -0.5979  0.6309 -0.0455
  221SOL    HW1 1447   1.194   1.743   1.600  0.5859 -1.2045 -0.3362
  221SOL    HW2 1448   1.187   1.741   1.751  0.5200  0.0178 -0.3147
  222SOL     OW 1449   3.303   0.850   1.490  0.0704 -0.0992 -0.6246
  222SOL    HW1 1450   3.319   0.846   1.396 -0.8019 -1.3884 -0.7496
  222SOL    HW2 1451   3.366   0.913   1.523  2.1622 -1.5085 -1.7115
  223SOL     OW 1452   1.519   2.087   2.835 -0.0548  0.3323  0.4866
  223SOL    HW1 1453   1.574   2.117   2.763  0.6353  0.7241  1.1533
  223SOL    HW2 1454   1.459   2.024   2.796 -1.2107  2.1957 -0.8836
  224SOL     OW 1455   0.862   3.225   2.850  0.2652  0.1124 -0.2625
  224SOL    HW1 1456   0.885   3.272   2.770 -0.7454  0.0239 -0.6288
  224SOL    HW2 1457   0.801   3.157   2.821 -0.8029  0.6257  0.6641
  225SOL     OW 1458   2.727   2.966   2.092 -0.6600 -0.3507  0.3010
  225SOL    HW1 1459   2.771   2.883   2.071  0.5294  0.5539 -1.0103
  225SOL    HW2 1460   2.780   3.003   2.163  0.4712  0.5148 -0.9529
  226SOL     OW 1461   0.536   1.682   3.295  0.4673 -0.0928  0.7039
  226SOL    HW1 1462   0.616   1.718   3.255 -0.9623  1.0365 -1.3089
  226SOL    HW2 1463   0.551   1.588   3.296  1.5890  0.0441 -0.2039
  227SOL     OW 1464   1.351   0.839   0.354  0.0636  0.1875 -0.1767
  227SOL    HW1 1465   1.275   0.864   0.301 -0.3032 -1.2212 -0.3706
  227SOL    HW2 1466   1.422   0.896   0.324 -1.0123  1.8957  0.3682
  228SOL     OW 1467   2.447   2.216   1.091  0.3937  0.1289  0.2428
  228SOL    HW1 1468   2.359   2.253   1.084  0.9132  1.2475 -0.7583
  228SOL    HW2 1469   2.441   2.132   1.047  0.2601  1.0716 -1.6491
  229SOL     OW 1470   0.872   2.187   0.167 -0.1449 -0.0436  0.1930
  229SOL    HW1 1471   0.874   2.092   0.154  0.0171 -0.1564  0.9991
  229SOL    HW2 1472   0.963   2.211   0.182 -0.3611 -0.0136  1.6321
  230SOL     OW 1473   0.632   0.869   0.878  0.1401  0.5578 -0.0215
  230SOL    HW1 1474   0.626   0.783   0.837  1.4924  1.5576 -2.5695
  230SOL    HW2 1475   0.714   0.866   0.926  0.1305  0.3761 -0.0144
  231SOL     OW 1476   1.104   0.188   3.352 -0.1185 -0.3940  0.1160
  231SOL    HW1 1477   1.094   0.243   3.431  0.6895  1.1193 -0.7800
  231SOL    HW2 1478   1.015   0.174   3.321 -0.3873 -0.2298  0.7974
  232SOL     OW 1479   2.123   1.589   0.402 -0.0650 -0.1923 -0.4708
  232SOL    HW1 1480   2.159   1.665   0.356 -1.9197  1.2330  0.3118
  232SOL    HW2 1481   2.195   1.559   0.457  1.1373  0.1212 -1.7921
  233SOL     OW 1482   2.193   3.214   2.165  0.1929 -0.3896  0.3851
  233SOL    HW1 1483   2.181   3.182   2.075  0.3298  1.0403 -0.1643
  233SOL    HW2 1484   2.183   3.309   2.158  0.3543 -0.2489  1.8671
  234SOL     OW 1485   3.367   2.221   2.683  0.1942  0.1292  0.3377
  234SOL    HW1 1486   3.318   2.139   2.683  2.5957 -1.4431  1.9061
  234SOL    HW2 1487   3.411   2.223   2.598 -1.1346  0.6815 -0.3682
  235SOL     OW 1488   1.419   1.903   2.479  0.0629 -0.1974 -0.4208
  235SOL    HW1 1489   1.371   1.925   2.399  0.0682 -0.0139 -0.3730
  235SOL    HW2 1490   1.498   1.860   2.448 -0.6247 -1.4808 -0.4716
  236SOL     OW 1491   1.649   0.819   0.891  0.2057 -0.2621 -0.0760
  236SOL    HW1 1492   1.677   0.759   0.822  0.6349  0.3224 -0.4223
  236SOL    HW2 1493   1.683   0.905   0.863  0.9720 -0.1274  1.1847
  237SOL     OW 1494   0.463   1.900   2.000 -0.3845 -0.4874 -0.1448
  237SOL    HW1 1495   0.529   1.939   2.056  1.1711 -1.2181 -1.3912
  237SOL    HW2 1496   0.380   1.934   2.033  0.7419  2.3810 -0.0314
  238SOL     OW 1497   0.709   0.240   2.884 -0.2193  0.2458  0.8630
  238SOL    HW1 1498   0.803   0.234   2.899  0.0839  1.3062 -0.4239
  238SOL    HW2 1499   0.678   0.150   2.890  1.2838 -0.4719 -1.0147
  239SOL     OW 1500   1.572   0.394   0.530 -0.2057  0.0305  0.4098
  239SOL    HW1 1501   1.514   0.320   0.546 -0.7234  0.3508  0.0712
  239SOL    HW2 1502   1.514   0.463   0.496  0.4320  0.2310 -0.3082
  240SOL     OW 1503   3.138   2.725   2.499 -0.4343 -0.2753 -0.5113
  240SOL    HW1 1504   3.148   2.779   2.577  0.3792  0.2552 -0.9799
  240SOL    HW2 1505   3.101   2.643   2.532 -0.2548  0.0041  0.4081
  241SOL     OW 1506   3.100   2.829   1.586  0.2034 -0.2830 -0.5710
  241SOL    HW1 1507   3.170   2.871   1.536 -0.0032  0.9393  0.1195
  241SOL    HW2 1508   3.097   2.879   1.668 -0.6235 -1.1399 -0.0654
  242SOL     OW 1509   3.240   2.357   1.635 -0.0659  0.1994  0.0769
  242SOL    HW1 1510   3.168   2.408   1.672  0.4429  2.4058 -1.7255
  242SOL    HW2 1511   3.199   2.307   1.565 -0.0989  0.3934 -0.0454
  243SOL     OW 1512   1.807   1.904   1.851 -0.2659 -0.0477 -0.0659
  243SOL    HW1 1513   1.847   1.818   1.836 -1.0370 -0.7489  1.6212
  243SOL    HW2 1514   1.806   1.945   1.765  3.7483 -0.0642 -0.3228
  244SOL     OW 1515   3.121   2.954   1.821 -0.1117 -0.2645 -0.1887
  244SOL    HW1 1516   3.107   3.045   1.847  0.4478 -0.3383  0.4105
  244SOL    HW2 1517   3.169   2.915   1.895 -0.6396 -1.1323 -0.2821
  245SOL     OW 1518   2.915   1.865   0.998  0.1574 -0.6794 -0.2410
  245SOL    HW1 1519   2.962   1.784   0.973 -1.5086 -1.8256  0.2027
  245SOL    HW2 1520   2.823   1.839   1.003 -0.2786  0.9591  1.1903
  246SOL     OW 1521   2.838   3.159   1.546  0.0395  0.1039 -0.1907
  246SOL    HW1 1522   2.825   3.154   1.641 -0.5930  1.0548 -0.2120
  246SOL    HW2 1523   2.906   3.094   1.528  1.3265  1.0102  1.1245
  247SOL     OW 1524   0.829   0.313   2.416 -0.2129 -0.1446  0.2951
  247SOL    HW1 1525   0.838   0.233   2.364 -2.7833 -0.2044 -0.2223
  247SOL    HW2 1526   0.892   0.374   2.378  0.0302 -1.1423 -0.9652
  248SOL     OW 1527   2.029   2.447   1.933  0.2082  0.7046  0.6264
  248SOL    HW1 1528   2.115   2.471   1.899 -0.0580  0.3870 -0.2964
  248SOL    HW2 1529   2.045   2.370   1.987  0.2807 -0.4311 -0.9521
  249SOL     OW 1530   0.737   0.500   3.222 -0.1018  0.3880  0.3980
  249SOL    HW1 1531   0.826   0.471   3.243 -0.3996 -1.5981 -0.7500
  249SOL    HW2 1532   0.747   0.554   3.143 -0.0032 -1.1345 -0.6818
  250SOL     OW 1533   2.618   1.377   0.919 -0.0290  0.1286  0.4166
  250SOL    HW1 1534   2.607   1.379   0.824  0.4698 -1.4358  0.2926
  250SOL    HW2 1535   2.556   1.309   0.948 -0.2579  0.6747  1.2246
  251SOL     OW 1536   2.355   2.317   1.537  0.2025  0.0171 -0.6511
  251SOL    HW1 1537   2.437   2.338   1.582 -1.1194  2.4196  0.8432
  251SOL    HW2 1538   2.338   2.394   1.483 -1.0660 -0.4617 -0.9633
  252SOL     OW 1539   0.758   1.278   0.424  0.3574 -0.0621 -0.1551
  252SOL    HW1 1540   0.708   1.224   0.486  2.4494 -0.4321  1.3348
  252SOL    HW2 1541   0.810   1.215   0.375  0.8627  0.4347 -0.2585
  253SOL     OW 1542   2.812   2.754   1.029  0.7125 -0.4752 -0.4797
  253SOL    HW1 1543   2.877   2.712   1.086  1.0970 -0.9242 -1.2340
  253SOL    HW2 1544   2.786   2.685   0.968 -2.5015 -1.1817  1.4261
  254SOL     OW 1545   3.195   1.811   1.455  0.2466 -0.1866 -0.4423
  254SOL    HW1 1546   3.100   1.803   1.462  0.2304 -1.7190 -1.7166
  254SOL    HW2 1547   3.210   1.835   1.364  1.1312 -2.6792 -1.0416
  255SOL     OW 1548   0.469   0.061   0.542  0.7562  0.0003  0.0651
  255SOL    HW1 1549   0.493   0.134   0.484  0.9182 -0.6095 -0.6515
  255SOL    HW2 1550   0.377   0.078   0.565  0.6197  0.1279 -0.5594
  256SOL     OW 1551   0.852   2.159   0.461  0.0568 -0.0613  0.8610
  256SOL    HW1 1552   0.916   2.094   0.491 -1.7844 -2.7738 -0.6505
  256SOL    HW2 1553   0.849   2.147   0.366 -1.5899  1.0696  0.7358
  257SOL     OW 1554   0.757   0.457   0.394  0.1286 -0.1165 -0.1071
  257SOL    HW1 1555   0.751   0.545   0.358  2.8773  1.0337  1.9167
  257SOL    HW2 1556   0.697   0.457   0.469  0.8700  0.4096  0.4985
  258SOL     OW 1557   2.371   3.204   1.680 -0.0787  0.7264  0.1957
  258SOL    HW1 1558   2.435   3.145   1.720 -1.3138 -1.4138 -0.8372
  258SOL    HW2 1559   2.404   3.217   1.590 -0.3398  0.8277  0.1141
  259SOL     OW 1560   2.884   1.380   0.965 -0.0692 -0.8558 -0.1405
  259SOL    HW1 1561   2.791   1.369   0.942  0.1717 -1.5095 -0.8320
  259SOL    HW2 1562   2.885   1.373   1.060 -0.8235 -0.1316 -0.0643
  260SOL     OW 1563   2.576   2.927   0.376 -0.2478 -0.3079  0.0711
  260SOL    HW1 1564   2.647   2.893   0.321 -0.5918 -0.8681 -0.0280
  260SOL    HW2 1565   2.555   3.013   0.338 -2.0509 -1.6168 -2.1384
  261SOL     OW 1566   1.522   2.439   2.370  0.0034 -0.5250  0.6824
  261SOL    HW1 1567   1.499   2.529   2.346  1.1684  0.2672  2.3584
  261SOL    HW2 1568   1.439   2.392   2.366 -0.6309  0.6080 -0.2444
  262SOL     OW 1569   2.997   3.067   2.597  0.3317 -0.4514  0.3449
  262SOL    HW1 1570   2.958   3.072   2.685 -0.9484 -0.5945 -0.1915
  262SOL    HW2 1571   3.005   2.973   2.580 -0.3999 -0.4353 -0.1023
  263SOL     OW 1572   1.162   0.445   1.808  0.4570 -0.5031  0.1740
  263SOL    HW1 1573   1.193   0.382   1.743 -2.3872 -0.6187 -1.2188
  263SOL    HW2 1574   1.138   0.392   1.884  0.4161 -0.7903 -0.0396
  264SOL     OW 1575   1.054   1.100   0.525 -0.2935 -0.5552  0.0158
  264SOL    HW1 1576   1.136   1.139   0.497  0.0892 -0.9597  0.5502
  264SOL    HW2 1577   0.998   1.103   0.447 -0.1455  0.6937 -0.0595
  265SOL     OW 1578   0.570   0.531   0.561  0.6688 -0.1681 -0.0715
  265SOL    HW1 1579   0.502   0.472   0.530 -0.4837  0.9981  0.1350
  265SOL    HW2 1580   0.525   0.615   0.573  2.0409  0.5122  0.5415
  266SOL     OW 1581   2.554   2.793   0.747  0.2432  0.5422  0.4654
  266SOL    HW1 1582   2.624   2.754   0.799 -1.8932 -0.8812  2.4179
  266SOL    HW2 1583   2.509   2.852   0.807 -1.1311  0.3297 -0.3254
  267SOL     OW 1584   3.005   2.488   2.620 -0.5101 -0.2078  0.1781
  267SOL    HW1 1585   2.964   2.402   2.613 -1.0243 -0.0311  0.8802
  267SOL    HW2 1586   2.931   2.549   2.619 -0.2320  0.1500  0.9602
  268SOL     OW 1587   2.175   1.544   1.225 -0.1593 -0.1382 -0.2602
  268SOL    HW1 1588   2.256   1.594   1.239  1.2921 -2.5954  0.8336
  268SOL    HW2 1589   2.183   1.509   1.137 -0.2929  0.0701 -0.3546
  269SOL     OW 1590   2.985   1.605   0.866  0.6639 -0.5689 -0.2295
  269SOL    HW1 1591   2.935   1.533   0.906  0.1679  0.0521  0.3084
  269SOL    HW2 1592   2.932   1.633   0.792  0.1586  0.1397  0.3860
  270SOL     OW 1593   0.996   0.040   1.514 -0.0432  0.1022  0.4847
  270SOL    HW1 1594   0.981   0.113   1.453 -1.8959 -0.5129  0.1205
  270SOL    HW2 1595   1.055   0.075   1.580 -0.5003  1.7845  0.0440
  271SOL     OW 1596   0.979   2.475   1.821 -0.0810 -0.1134  0.2106
  271SOL    HW1 1597   1.017   2.532   1.755  0.1280 -0.9927 -0.4439
  271SOL    HW2 1598   0.937   2.535   1.883 -0.5257  0.7092 -0.8566
  272SOL     OW 1599   0.196   2.215   2.874 -0.5411  0.1094  0.0487
  272SOL    HW1 1600   0.104   2.217   2.848 -0.8169  0.3795  1.0314
  272SOL    HW2 1601   0.195   2.221   2.969  0.4330 -1.5202  0.1928
  273SOL     OW 1602   2.984   2.670   1.265  0.0987 -0.1061  0.6125
  273SOL    HW1 1603   2.984   2.766   1.262 -0.9190 -0.0660  1.3097
  273SOL    HW2 1604   3.063   2.648   1.314  0.3532  0.3744  0.4303
  274SOL     OW 1605   3.375   3.231   2.522  0.1998 -0.2786  0.5705
  274SOL    HW1 1606   3.364   3.147   2.567 -0.8522  0.0431  0.9415
  274SOL    HW2 1607   3.373   3.209   2.429  3.1155 -1.0564  0.5704
  275SOL     OW 1608   1.909   3.378   1.881  0.0116  0.4648  0.4113
  275SOL    HW1 1609   1.977   3.394   1.816  0.2739 -0.6551  0.3994
  275SOL    HW2 1610   1.827   3.391   1.833  0.2066  0.8807  0.1843
  276SOL     OW 1611   2.245   2.495   1.329  0.1342  0.2206  0.0249
  276SOL    HW1 1612   2.323   2.540   1.297  0.8868 -0.9073  0.2115
  276SOL    HW2 1613   2.195   2.474   1.250  0.8050 -0.4257 -0.2483
  277SOL     OW 1614   1.685   2.188   2.639  0.1524  0.2138 -0.1243
  277SOL    HW1 1615   1.651   2.276   2.626  0.1828  0.2026 -0.2880
  277SOL    HW2 1616   1.722   2.164   2.554 -0.9553 -0.4324 -0.4378
  278SOL     OW 1617   1.775   0.149   2.181  0.1822 -0.5049  0.3799
  278SOL    HW1 1618   1.794   0.231   2.225 -0.1959 -0.4693  0.4829
  278SOL    HW2 1619   1.772   0.171   2.088  0.6348 -0.5128  0.3618
  279SOL     OW 1620   0.842   2.234   2.728  0.2989 -0.0536  0.4550
  279SOL    HW1 1621   0.904   2.169   2.761  1.2538  0.9512  0.7129
  279SOL    HW2 1622   0.889   2.276   2.655 -0.2878  0.3545  0.3101
  280SOL     OW 1623   2.756   2.292   2.174  0.2881  0.0838  0.0444
  280SOL    HW1 1624   2.693   2.334   2.116  2.0703  0.7620 -1.5132
  280SOL    HW2 1625   2.719   2.302   2.262 -1.5491  0.7729 -0.7628
  281SOL     OW 1626   0.565   2.276   1.760 -0.3587 -0.2579 -0.4907
  281SOL    HW1 1627   0.570   2.332   1.682 -1.4735 -0.1399 -0.4960
  281SOL    HW2 1628   0.496   2.212   1.740  2.3848 -3.1688 -1.4234
  282SOL     OW 1629   1.105   2.173   1.051  0.0720  0.1655  0.1137
  282SOL    HW1 1630   1.062   2.134   1.128 -0.2095  0.3254  0.0404
  282SOL    HW2 1631   1.129   2.261   1.080  0.5254  0.0076  0.2153
  283SOL     OW 1632   2.284   1.618   1.984  0.2040  0.2458  0.2916
  283SOL    HW1 1633   2.198   1.606   2.024  0.1639  3.1088  1.2709
  283SOL    HW2 1634   2.270   1.604   1.891 -1.7685  2.3843  0.1981
  284SOL     OW 1635   3.238   0.150   2.823  0.2998  0.6827 -0.2687
  284SOL    HW1 1636   3.330   0.160   2.847  0.9422 -1.4325 -1.5219
  284SOL    HW2 1637   3.239   0.133   2.728 -1.2743 -0.2861 -0.1630
  285SOL     OW 1638   0.182   2.950   2.299 -0.1310  0.0267 -0.5710
  285SOL    HW1 1639   0.219   2.899   2.227 -2.7985 -1.0653 -1.2998
  285SOL    HW2 1640   0.171   3.038   2.262  1.4606  0.3393 -0.3802
  286SOL     OW 1641   1.483   2.218   3.311 -0.1470 -0.0177  0.5614
  286SOL    HW1 1642   1.548   2.205   3.381 -1.0089  0.6313  1.5152
  286SOL    HW2 1643   1.502   2.305   3.276  0.6866 -0.5949 -0.4789
  287SOL     OW 1644   1.850   1.985   3.135 -0.4978  0.4143  0.2701
  287SOL    HW1 1645   1.942   2.011   3.139 -0.5725  1.2301 -1.9284
  287SOL    HW2 1646   1.803   2.064   3.106 -1.2512 -0.9914 -2.8433
  288SOL     OW 1647   1.232   0.927   1.102 -0.3638 -0.0633  0.1776
  288SOL    HW1 1648   1.162   0.989   1.122  0.0710  0.3179  0.5476
  288SOL    HW2 1649   1.239   0.928   1.006  0.7944  1.7907  0.2323
  289SOL     OW 1650   1.290   1.781   1.876  0.4565 -0.2174  0.1430
  289SOL    HW1 1651   1.300   1.735   1.960  0.1071  0.9354  0.8384
  289SOL    HW2 1652   1.379   1.801   1.848  0.8057 -3.1619 -1.2901
  290SOL     OW 1653   2.102   1.641   2.768 -0.1400  0.1738 -0.2548
  290SOL    HW1 1654   2.066   1.554   2.782  0.4796 -0.1992 -0.9022
  290SOL    HW2 1655   2.182   1.626   2.717 -0.8912  1.2089 -1.8482
  291SOL     OW 1656   2.758   3.235   3.085 -0.0069  0.0867 -0.3865
  291SOL    HW1 1657   2.848   3.243   3.117 -0.1078 -0.3327  0.0059
  291SOL    HW2 1658   2.755   3.293   3.008  1.6382 -2.6027 -2.6489
  292SOL     OW 1659   1.690   2.612   0.039  0.1193 -0.2383  0.3272
  292SOL    HW1 1660   1.663   2.700   0.015  0.2903 -0.5205 -0.9724
  292SOL    HW2 1661   1.609   2.561   0.041  0.2943 -0.7020 -1.8967
  293SOL     OW 1662   2.917   1.849   3.087 -0.3439 -0.4758  0.1510
  293SOL    HW1 1663   2.843   1.897   3.123  0.5312  1.1029 -0.0606
  293SOL    HW2 1664   2.878   1.774   3.041 -1.7593  0.0907  0.4017
  294SOL     OW 1665   2.716   0.983   0.294 -0.5151 -0.2313 -0.0781
  294SOL    HW1 1666   2.647   0.995   0.230 -1.2567  0.1801  0.7773
  294SOL    HW2 1667   2.777   1.055   0.278  0.1308 -1.0046 -1.3072
  295SOL     OW 1668   2.254   0.429   0.852  0.4199  0.0103 -0.0974
  295SOL    HW1 1669   2.199   0.472   0.916 -1.2036 -1.6685 -0.2739
  295SOL    HW2 1670   2.288   0.351   0.897  0.7231 -0.2220 -0.7093
  296SOL     OW 1671   1.842   2.682   1.591  0.0144  0.0211 -0.0136
  296SOL    HW1 1672   1.859   2.651   1.502 -0.8121 -0.1419 -0.1245
  296SOL    HW2 1673   1.747   2.670   1.602 -0.2994  2.2149  0.0479
  297SOL     OW 1674   1.480   0.577   0.181 -0.5728  0.0911  0.2627
  297SOL    HW1 1675   1.494   0.654   0.235 -0.3289 -0.0535  0.4067
  297SOL    HW2 1676   1.565   0.560   0.140  0.0185 -1.4211  1.9633
  298SOL     OW 1677   2.381   3.036   2.917  0.1220  0.3008 -0.0700
  298SOL    HW1 1678   2.373   3.094   2.993 -0.5509  0.8844 -0.5611
  298SOL    HW2 1679   2.319   3.073   2.854 -1.0054 -1.4842 -0.0755
  299SOL     OW 1680   2.663   2.335   2.415 -0.0563 -0.5470 -0.1694
  299SOL    HW1 1681   2.637   2.424   2.393  0.4619 -0.7959 -1.8959
  299SOL    HW2 1682   2.679   2.337   2.509  0.1100  1.2164 -0.2115
  300SOL     OW 1683   0.355   1.139   0.090  0.2611  0.1204 -0.4271
  300SOL    HW1 1684   0.323   1.083   0.019  0.4361 -1.8027  0.9280
  300SOL    HW2 1685   0.277   1.161   0.140  0.2795  0.4809 -0.5618
  301SOL     OW 1686   3.073   1.241   0.813  0.4769  0.2344 -0.0238
  301SOL    HW1 1687   3.015   1.306   0.853 -1.1988 -1.9685  1.3567
  301SOL    HW2 1688   3.121   1.203   0.886  1.9865  0.4046 -0.8958
  302SOL     OW 1689   3.070   0.944   0.771 -0.4205  0.0779 -0.4991
  302SOL    HW1 1690   3.020   1.015   0.731 -1.3440 -1.8465 -3.0510
  302SOL    HW2 1691   3.014   0.867   0.762  0.7426 -1.1059  1.7132
  303SOL     OW 1692   1.641   2.539   2.900  0.2841 -0.5702  0.4799
  303SOL    HW1 1693   1.694   2.598   2.953 -2.1017  1.1219  1.1311
  303SOL    HW2 1694   1.608   2.473   2.963  1.1064 -1.2747  0.1884
  304SOL     OW 1695   0.668   2.115   2.008 -0.4073  0.4050  0.8232
  304SOL    HW1 1696   0.744   2.082   1.961 -0.1892  1.6469  0.2646
  304SOL    HW2 1697   0.649   2.200   1.966  0.0321  1.7578  3.2005
  305SOL     OW 1698   1.057   2.833   3.223  0.2793  0.2003 -0.1531
  305SOL    HW1 1699   1.002   2.908   3.247  0.0913 -0.0458  0.2047
  305SOL    HW2 1700   1.065   2.783   3.304 -0.1130 -0.4910 -0.5279
  306SOL     OW 1701   3.256   2.802   1.995 -0.5337 -0.1402  0.2272
  306SOL    HW1 1702   3.214   2.717   1.985 -3.1078  1.0591 -0.1064
  306SOL    HW2 1703   3.296   2.798   2.082 -0.2606 -1.8019  0.0605
  307SOL     OW 1704   0.796   0.442   2.040 -0.5135 -0.5255  0.6474
  307SOL    HW1 1705   0.753   0.516   2.000  0.8364  1.3918  2.4815
  307SOL    HW2 1706   0.725   0.390   2.078 -1.5482 -0.7279 -1.4673
  308SOL     OW 1707   0.203   1.078   0.817 -0.8580 -0.6518  0.3576
  308SOL    HW1 1708   0.280   1.051   0.867 -0.2006  0.1258 -0.2239
  308SOL    HW2 1709   0.231   1.074   0.726 -0.7806  1.7270  0.2150
  309SOL     OW 1710   0.813   2.182   3.150  0.1091 -0.0975 -0.2134
  309SOL    HW1 1711   0.818   2.105   3.207 -0.9631 -0.6498 -0.8325
  309SOL    HW2 1712   0.895   2.181   3.101 -0.3729 -1.5242 -1.0436
  310SOL     OW 1713   0.012   1.893   2.450 -0.0237 -0.1284 -0.0328
  310SOL    HW1 1714  -0.083   1.881   2.441  0.0588 -1.5938  0.5947
  310SOL    HW2 1715   0.044   1.805   2.469  1.6691  0.0662 -1.8004
  311SOL     OW 1716   3.183   3.065   3.233  0.2214 -0.7765  0.0455
  311SOL    HW1 1717   3.240   3.130   3.192 -0.8316  0.1839  0.0483
  311SOL    HW2 1718   3.098   3.108   3.239 -0.3764 -1.9739  0.5427
  312SOL     OW 1719   1.804   2.948   2.703  0.6415  0.0099 -0.0785
  312SOL    HW1 1720   1.864   3.006   2.750 -0.0307  0.2186  0.5360
  312SOL    HW2 1721   1.862   2.888   2.655  1.3419  0.6087 -0.0080
  313SOL     OW 1722   2.285   2.868   1.405 -0.2115  0.2347  0.0147
  313SOL    HW1 1723   2.191   2.855   1.414  0.0409 -1.3238  1.0094
  313SOL    HW2 1724   2.309   2.819   1.327 -0.2203  0.5489 -0.1835
  314SOL     OW 1725   2.673   2.010   1.972  0.5062 -0.0465 -0.1431
  314SOL    HW1 1726   2.607   1.970   2.030  0.4638  2.2339  1.5118
  314SOL    HW2 1727   2.757   1.987   2.013  0.5350  0.5584  0.1372
  315SOL     OW 1728   2.445   2.662   1.259 -0.1676 -0.0225  0.1697
  315SOL    HW1 1729   2.458   2.717   1.181 -0.1667 -0.4316 -0.1244
  315SOL    HW2 1730   2.529   2.663   1.304 -0.2612  0.4819  0.3452
  316SOL     OW 1731   1.087   1.202   1.432 -0.7921 -0.3311 -0.0002
  316SOL    HW1 1732   0.996   1.181   1.453 -0.6366 -1.1648 -0.1455
  316SOL    HW2 1733   1.138   1.138   1.481 -0.3448 -0.9653 -1.2561
  317SOL     OW 1734   1.551   2.026   0.427  0.0289 -0.0131 -0.3877
  317SOL    HW1 1735   1.572   1.981   0.346 -1.6637  2.0846 -2.1009
  317SOL    HW2 1736   1.632   2.070   0.452  1.4087 -2.8722  0.7523
  318SOL     OW 1737   1.944   2.135   0.722  0.0556 -0.1167 -0.0191
  318SOL    HW1 1738   1.903   2.199   0.780  1.8582 -0.9632  2.3698
  318SOL    HW2 1739   2.030   2.171   0.703 -0.5853  0.2926 -2.5894
  319SOL     OW 1740   3.005   1.062   3.375  0.2429  0.2295 -0.1235
  319SOL    HW1 1741   2.979   0.982   3.329  0.3476 -0.2466  0.6353
  319SOL    HW2 1742   3.086   1.089   3.332 -0.5467  0.7585 -1.3536
  320SOL     OW 1743   1.734   0.043   0.466  0.3354 -0.4147  0.0072
  320SOL    HW1 1744   1.741  -0.010   0.387 -1.6679 -1.0102  0.1810
  320SOL    HW2 1745   1.740  -0.020   0.538  0.3185 -0.1072  0.2788
  321SOL     OW 1746   2.982   3.261   3.265 -0.2081  0.1937  0.2716
  321SOL    HW1 1747   3.022   3.326   3.323 -0.0759  0.1017  0.2826
  321SOL    HW2 1748   2.937   3.201   3.324  0.2025 -0.0892  0.3005
  322SOL     OW 1749   2.119   2.635   0.624  0.3895  0.2096  0.1786
  322SOL    HW1 1750   2.100   2.630   0.718 -0.0262  1.2003  0.1659
  322SOL    HW2 1751   2.050   2.692   0.589 -0.1526 -1.0884 -0.9393
  323SOL     OW 1752   0.238   2.501   2.769 -0.2698  0.2321 -0.1232
  323SOL    HW1 1753   0.217   2.411   2.794 -0.1821  0.4466  0.7395
  323SOL    HW2 1754   0.312   2.525   2.826 -1.0454  1.2528  0.4865
  324SOL     OW 1755   2.951   3.152   2.331 -0.0275 -0.1821 -0.5983
  324SOL    HW1 1756   3.032   3.112   2.297  0.0852 -1.2065  0.8091
  324SOL    HW2 1757   2.956   3.141   2.426 -1.7907 -0.1830 -0.4751
  325SOL     OW 1758   3.230   1.123   0.319 -0.3892 -0.1865 -0.7320
  325SOL    HW1 1759   3.277   1.071   0.384  0.1597  1.9256  0.6810
  325SOL    HW2 1760   3.299   1.160   0.263 -0.3944  1.6711  0.3875
  326SOL     OW 1761   2.580   2.597   2.911  0.8090 -0.7343 -0.2249
  326SOL    HW1 1762   2.568   2.652   2.835 -0.4295 -0.0588  0.4288
  326SOL    HW2 1763   2.650   2.536   2.886  0.9853 -0.0097 -1.5808
  327SOL     OW 1764   3.380   2.050   2.217  0.3103 -0.4889  0.9027
  327SOL    HW1 1765   3.374   2.004   2.301  0.0682 -0.1905  1.0523
  327SOL    HW2 1766   3.334   2.133   2.232  1.6202  0.2551  0.9481
  328SOL     OW 1767   0.588   0.295   3.138 -0.3436 -0.4538 -0.3840
  328SOL    HW1 1768   0.632   0.276   3.056  1.0499 -5.1852  1.1166
  328SOL    HW2 1769   0.635   0.369   3.175  0.7521  0.0134 -2.6123
  329SOL     OW 1770   0.302   0.353   0.812 -0.8839  0.0660 -0.4321
  329SOL    HW1 1771   0.259   0.424   0.764 -0.6766  0.8445  0.4897
  329SOL    HW2 1772   0.342   0.299   0.745 -0.6183  1.1095 -1.1366
  330SOL     OW 1773   0.537   0.653   1.202 -0.0491 -0.4448 -0.3737
  330SOL    HW1 1774   0.473   0.658   1.274  1.2445 -0.1467  0.7823
  330SOL    HW2 1775   0.485   0.671   1.123 -1.3798 -0.1363  0.5383
  331SOL     OW 1776   2.776   3.089   0.011 -0.0414  0.4848  0.0992
  331SOL    HW1 1777   2.838   3.019  -0.010  1.3034  1.5756  0.2492
  331SOL    HW2 1778   2.713   3.087  -0.061  0.8103  0.0381 -0.6566
  332SOL     OW 1779   3.213   2.242   2.311  0.1192 -0.3412 -0.6765
  332SOL    HW1 1780   3.140   2.212   2.365  0.6809 -1.8302 -0.6761
  332SOL    HW2 1781   3.172   2.294   2.242 -0.7295  0.5366  0.4470
  333SOL     OW 1782   3.189   3.067   2.254  0.4710  0.5511  0.4896
  333SOL    HW1 1783   3.279   3.089   2.232  1.0032  1.0104  2.8357
  333SOL    HW2 1784   3.191   2.973   2.274  0.7760  0.8225  1.8610
  334SOL     OW 1785   1.637   3.211   3.222  0.3051  0.1473 -0.6061
  334SOL    HW1 1786   1.703   3.162   3.172  0.3790 -1.1335  0.6733
  334SOL    HW2 1787   1.682   3.235   3.303 -0.5846 -0.1803  0.0066
  335SOL     OW 1788   1.105   0.660   0.840 -0.1369 -0.2593 -0.4790
  335SOL    HW1 1789   1.133   0.597   0.775 -0.7538  1.1792 -2.2291
  335SOL    HW2 1790   1.113   0.745   0.796  1.3270  0.9969  2.0004
  336SOL     OW 1791   0.878   1.915   0.207  0.2931 -0.0289  0.2304
  336SOL    HW1 1792   0.946   1.852   0.184 -0.6611 -0.7251 -0.8374
  336SOL    HW2 1793   0.840   1.882   0.289  1.3996  0.5267  0.9895
  337SOL     OW 1794   2.815   2.675   2.614 -1.1977 -0.2900 -0.1954
  337SOL    HW1 1795   2.825   2.740   2.545  0.4406 -1.9067 -1.5723
  337SOL    HW2 1796   2.750   2.714   2.674 -1.6045  1.7873 -1.8519
  338SOL     OW 1797   1.337   1.997   1.329  0.5300  0.9655 -0.6658
  338SOL    HW1 1798   1.267   1.996   1.265 -0.9199 -0.4313  0.8388
  338SOL    HW2 1799   1.387   1.917   1.310  0.7302  1.1031 -0.7172
  339SOL     OW 1800   2.181   1.939   2.002  0.3576 -0.0923  0.0032
  339SOL    HW1 1801   2.275   1.948   2.018  0.4497  1.1861 -1.1206
  339SOL    HW2 1802   2.153   1.871   2.063  1.6200  0.9797  1.8679
  340SOL     OW 1803   3.269   1.632   0.832 -0.3466  0.4404 -0.7330
  340SOL    HW1 1804   3.257   1.623   0.738 -0.1812 -0.4444 -0.6761
  340SOL    HW2 1805   3.183   1.609   0.869  0.1553 -1.3687 -0.5722
  341SOL     OW 1806   0.799   1.386   1.845 -0.5188 -0.0298 -0.3671
  341SOL    HW1 1807   0.825   1.419   1.931 -0.7033 -2.1909  0.5758
  341SOL    HW2 1808   0.826   1.455   1.784  1.2579  0.7874  1.2254
  342SOL     OW 1809   3.259   1.152   3.300 -0.2582  0.7769  0.1743
  342SOL    HW1 1810   3.273   1.148   3.206 -0.4595  0.4979  0.1544
  342SOL    HW2 1811   3.347   1.145   3.338 -0.1898  0.7609  0.0137
  343SOL     OW 1812   2.576   2.022   0.914 -0.4992 -0.1256 -0.4555
  343SOL    HW1 1813   2.655   2.071   0.893 -0.0568 -0.9970 -0.8268
  343SOL    HW2 1814   2.528   2.017   0.832 -0.7518  0.0473 -0.3211
  344SOL     OW 1815   2.352   2.707   0.059  0.5881 -0.2622  0.2963
  344SOL    HW1 1816   2.308   2.677   0.138 -1.2350  0.4408 -0.3999
  344SOL    HW2 1817   2.312   2.657  -0.012  0.8745  0.4297 -0.3712
  345SOL     OW 1818   2.463   1.920   2.148 -0.0781 -0.3469  0.5080
  345SOL    HW1 1819   2.459   1.825   2.163 -0.2030 -0.3925  0.1890
  345SOL    HW2 1820   2.508   1.954   2.226  1.2993 -0.8260 -0.0501
  346SOL     OW 1821   0.821   1.615   3.283  0.5531 -0.1502 -0.6207
  346SOL    HW1 1822   0.897   1.667   3.309 -0.3270  1.2509 -0.7086
  346SOL    HW2 1823   0.824   1.537   3.339  0.8216  0.9630  0.9865
  347SOL     OW 1824   0.225   0.334   2.703  0.4104 -0.1384  0.3558
  347SOL    HW1 1825   0.319   0.316   2.710  0.1143 -1.3101  1.7633
  347SOL    HW2 1826   0.185   0.276   2.768 -1.1497  1.5267  0.9316
  348SOL     OW 1827   0.085   1.237   0.173 -0.5045 -0.2576 -0.1682
  348SOL    HW1 1828   0.073   1.325   0.136 -1.1626 -0.1228  0.3358
  348SOL    HW2 1829   0.081   1.251   0.268 -1.0355 -0.8799 -0.0948
  349SOL     OW 1830   1.898   2.632   0.184  0.0605 -0.1076  0.5493
  349SOL    HW1 1831   1.885   2.725   0.206  0.2903 -0.1817  0.9930
  349SOL    HW2 1832   1.819   2.609   0.135  0.4776  0.6156 -0.5157
  350SOL     OW 1833   1.376   3.004   1.820 -0.5223  0.6922 -0.1575
  350SOL    HW1 1834   1.288   3.040   1.829 -0.4565  0.5615  1.1742
  350SOL    HW2 1835   1.362   2.917   1.781 -1.1274  0.0914  1.3199
  351SOL     OW 1836   1.231   2.397   1.557  0.9572  0.1361 -0.0924
  351SOL    HW1 1837   1.160   2.341   1.527  1.5352  0.1147 -1.5086
  351SOL    HW2 1838   1.282   2.342   1.616 -0.4085  0.2840  1.2888
  352SOL     OW 1839   1.819   1.962   1.333  0.3094 -0.2103  0.0675
  352SOL    HW1 1840   1.866   1.884   1.304 -1.1660 -0.6557 -1.2591
  352SOL    HW2 1841   1.801   2.010   1.253 -2.5084 -0.6734  0.3179
  353SOL     OW 1842   1.803   1.854   0.011 -0.2791  0.1870  0.1235
  353SOL    HW1 1843   1.711   1.825   0.009  0.3378 -1.9122 -1.2148
  353SOL    HW2 1844   1.812   1.910  -0.066  0.1876 -1.9873 -1.5025
  354SOL     OW 1845   3.025   0.070   0.101 -0.2746 -0.5096 -0.5936
  354SOL    HW1 1846   2.934   0.090   0.124 -0.5701 -1.7757 -0.6042
  354SOL    HW2 1847   3.076   0.138   0.146 -1.2476  0.6350 -1.1471
  355SOL     OW 1848   2.784   3.289   0.841 -0.0579  0.2460 -0.2978
  355SOL    HW1 1849   2.702   3.251   0.871  0.1004  0.6219  0.6309
  355SOL    HW2 1850   2.767   3.315   0.750 -0.6201 -0.6600 -0.4565
  356SOL     OW 1851   1.227   0.192   1.226 -0.1669 -0.7087 -0.1732
  356SOL    HW1 1852   1.271   0.265   1.270 -0.3276  0.6852 -2.2202
  356SOL    HW2 1853   1.290   0.120   1.232  1.5700  0.6443 -1.1982
  357SOL     OW 1854   1.614   2.729   1.993  0.3302  0.5108  0.1130
  357SOL    HW1 1855   1.697   2.697   1.956  0.1232 -2.6909  2.0031
  357SOL    HW2 1856   1.640   2.799   2.052  1.6132  0.2204 -0.0589
  358SOL     OW 1857   2.636   2.630   1.454 -0.0611  0.1775  0.3797
  358SOL    HW1 1858   2.700   2.690   1.494  1.0718 -0.3505 -0.5937
  358SOL    HW2 1859   2.654   2.546   1.495  0.1932 -0.0702 -0.2264
  359SOL     OW 1860   1.918   1.720   1.239  0.8196  0.1872 -0.5943
  359SOL    HW1 1861   1.848   1.700   1.177 -0.5716  0.7342  0.7408
  359SOL    HW2 1862   1.978   1.646   1.232 -1.2477 -1.6616  0.0967
  360SOL     OW 1863   0.489   0.384   1.069 -0.9041  0.0468  0.3857
  360SOL    HW1 1864   0.541   0.465   1.071 -0.9087  0.0956 -0.8583
  360SOL    HW2 1865   0.414   0.405   1.014 -0.7502 -0.8989 -0.1978
  361SOL     OW 1866   3.191   1.911   3.047  0.2670  0.0883  0.5317
  361SOL    HW1 1867   3.198   2.007   3.045 -2.2871  0.4192  2.5929
  361SOL    HW2 1868   3.097   1.893   3.049  0.6419 -2.5664 -1.0708
  362SOL     OW 1869   2.665   2.739   1.742  0.2206 -0.4273  0.4389
  362SOL    HW1 1870   2.583   2.767   1.703 -0.1072 -0.1583  1.3007
  362SOL    HW2 1871   2.732   2.773   1.683 -0.2966 -2.5017 -1.4654
  363SOL     OW 1872   3.302   2.842   2.289  0.6259  0.2783 -0.7549
  363SOL    HW1 1873   3.388   2.868   2.321  0.2184  0.8848 -0.1305
  363SOL    HW2 1874   3.258   2.805   2.366  0.7696 -1.1961 -1.3484
  364SOL     OW 1875   0.575   1.044   0.628  0.2673 -0.3241  0.1987
  364SOL    HW1 1876   0.624   1.076   0.704 -0.8826  1.0678  0.3862
  364SOL    HW2 1877   0.616   0.960   0.608  0.8907 -0.5287  2.0804
  365SOL     OW 1878   0.609   2.138   2.529  0.2512  0.2305  0.0884
  365SOL    HW1 1879   0.612   2.168   2.620  0.2132  0.3444  0.0524
  365SOL    HW2 1880   0.669   2.064   2.526 -0.6446 -0.5277  0.4851
  366SOL     OW 1881   0.413   1.096   1.293 -0.1315  0.0092  0.5000
  366SOL    HW1 1882   0.326   1.130   1.271 -0.3724 -0.5961  0.4941
  366SOL    HW2 1883   0.459   1.170   1.332 -0.7824  0.2321  0.8570
  367SOL     OW 1884   0.173   1.170   1.236  0.1973 -0.5102 -0.1095
  367SOL    HW1 1885   0.128   1.162   1.152 -1.3280  0.1832  0.5980
  367SOL    HW2 1886   0.158   1.261   1.262 -1.8119 -1.4305  2.2184
  368SOL     OW 1887   2.728   0.490   1.240 -0.1536  0.4188 -0.5855
  368SOL    HW1 1888   2.758   0.407   1.277  1.7124  0.3343 -2.1290
  368SOL    HW2 1889   2.655   0.466   1.182  1.0084 -0.3430 -1.7970
  369SOL     OW 1890   1.070   2.491   2.686  0.3509 -0.5431  0.4518
  369SOL    HW1 1891   1.046   2.518   2.775  0.9097  0.3959  0.3313
  369SOL    HW2 1892   1.130   2.560   2.656 -2.1070  0.7976 -1.7485
  370SOL     OW 1893   0.989   0.200   2.885 -0.3937  0.0646  0.7129
  370SOL    HW1 1894   0.983   0.143   2.963  2.0458  0.8271  1.5329
  370SOL    HW2 1895   1.078   0.188   2.853 -0.1501  2.5987  0.2598
  371SOL     OW 1896   0.470   1.891   0.895  0.1702 -0.7089 -0.6616
  371SOL    HW1 1897   0.395   1.833   0.906 -0.3710  0.1634  0.4500
  371SOL    HW2 1898   0.540   1.834   0.862 -0.0552 -2.2287  1.2691
  372SOL     OW 1899   1.565   1.862   1.108 -0.0863  0.0347  0.0240
  372SOL    HW1 1900   1.629   1.824   1.167  0.0572  3.4687  2.3827
  372SOL    HW2 1901   1.616   1.913   1.046 -0.3764  0.3582  0.0421
  373SOL     OW 1902   2.307   1.016   0.612  0.4829 -0.1985  0.1833
  373SOL    HW1 1903   2.402   1.021   0.597  0.6865  0.5822  1.6353
  373SOL    HW2 1904   2.285   0.925   0.590  1.2085  0.0772 -1.9846
  374SOL     OW 1905   2.085   2.882   0.300 -0.3653  0.1954  0.4596
  374SOL    HW1 1906   2.001   2.875   0.345  0.0668  0.3238  1.3172
  374SOL    HW2 1907   2.086   2.972   0.266  0.4791  1.1214  2.7022
  375SOL     OW 1908   0.454   0.950   1.539  0.2156  0.4513  0.2679
  375SOL    HW1 1909   0.499   1.028   1.570 -0.2876  1.2003 -0.8357
  375SOL    HW2 1910   0.420   0.974   1.453 -1.5189 -0.3830  0.6830
  376SOL     OW 1911   2.083   1.945   2.826 -0.2727  0.7448 -0.6186
  376SOL    HW1 1912   1.996   1.983   2.836 -0.4446 -0.0020  1.0347
  376SOL    HW2 1913   2.067   1.850   2.825  0.4826  0.6138 -0.7207
  377SOL     OW 1914   2.940   1.828   1.512  0.5784  0.0905 -0.3339
  377SOL    HW1 1915   2.881   1.829   1.437  0.3425 -1.8354 -0.2372
  377SOL    HW2 1916   2.892   1.875   1.580  0.7486  1.7615 -1.3169
  378SOL     OW 1917   0.555   1.661   1.559  0.3891 -0.1221  0.3728
  378SOL    HW1 1918   0.555   1.735   1.619  1.1038 -0.7389  1.1683
  378SOL    HW2 1919   0.647   1.640   1.547  0.2707  0.1688 -1.1981
  379SOL     OW 1920   0.291   0.196   3.093  0.6280  0.0453 -0.1694
  379SOL    HW1 1921   0.353   0.257   3.132  1.4769 -1.5762  1.1721
  379SOL    HW2 1922   0.343   0.118   3.073 -0.5171 -0.4659 -1.3100
  380SOL     OW 1923   0.346   1.669   1.809 -0.2833  0.3999 -0.4928
  380SOL    HW1 1924   0.266   1.660   1.860  0.3210  0.2565  0.4538
  380SOL    HW2 1925   0.413   1.695   1.872  1.2456 -2.9518 -0.5195
  381SOL     OW 1926   3.037   2.641   2.059 -0.0822 -0.4911  0.2573
  381SOL    HW1 1927   3.048   2.700   2.134  1.2608  0.9171 -0.9888
  381SOL    HW2 1928   2.955   2.669   2.018 -0.3754 -0.6994  0.6921
  382SOL     OW 1929   3.229   1.988   2.760 -0.4129  0.1519 -0.1081
  382SOL    HW1 1930   3.323   1.971   2.769 -0.2920 -1.6239 -3.3853
  382SOL    HW2 1931   3.187   1.911   2.800 -0.5483  1.0289  1.5188
  383SOL     OW 1932   2.939   0.959   1.227  0.0140  0.0231  0.0036
  383SOL    HW1 1933   2.875   0.890   1.211  0.7743 -0.5401 -0.6931
  383SOL    HW2 1934   2.972   0.942   1.315  0.8622 -1.0763 -0.5042
  384SOL     OW 1935   2.309   2.856   0.465  0.2796 -0.3595 -0.8006
  384SOL    HW1 1936   2.234   2.859   0.405 -0.1250  3.6406 -0.3737
  384SOL    HW2 1937   2.380   2.897   0.416  0.8186  0.1604  0.3854
  385SOL     OW 1938   0.320   3.262   2.374  0.0636 -0.2371  0.9159
  385SOL    HW1 1939   0.263   3.337   2.357 -1.7157 -1.4395  1.2511
  385SOL    HW2 1940   0.327   3.217   2.289  0.0950 -0.3598  0.9829
  386SOL     OW 1941   0.351   2.149   2.362 -0.2089 -0.4082 -0.5962
  386SOL    HW1 1942   0.405   2.182   2.434 -0.0405 -1.1175 -0.3934
  386SOL    HW2 1943   0.263   2.178   2.383 -0.0242  0.1610 -0.5742
  387SOL     OW 1944   0.920   1.177   0.781 -0.0634  0.1398  0.8316
  387SOL    HW1 1945   0.922   1.154   0.688 -0.0555  0.3264  0.7871
  387SOL    HW2 1946   0.831   1.211   0.795  0.4858  1.7346  0.5182
  388SOL     OW 1947   2.247   0.749   0.621  0.5319 -0.0242 -0.0369
  388SOL    HW1 1948   2.173   0.690   0.605  0.3651  0.4548 -1.1314
  388SOL    HW2 1949   2.307   0.698   0.676  0.4901 -1.3002 -1.1079
  389SOL     OW 1950   3.239   1.873   3.327 -0.3206 -0.3701  0.3295
  389SOL    HW1 1951   3.249   1.847   3.236 -0.0806  0.6106  0.0617
  389SOL    HW2 1952   3.297   1.949   3.337 -0.2447 -0.5358  1.3298
  390SOL     OW 1953   1.009   2.151   2.290 -0.6424  0.3413  0.2943
  390SOL    HW1 1954   0.990   2.224   2.349  1.3695  0.8408  0.3885
  390SOL    HW2 1955   1.019   2.192   2.204 -0.6274  0.0084  0.1367
  391SOL     OW 1956   3.233   0.929   1.168  0.0179 -0.3276 -0.1470
  391SOL    HW1 1957   3.255   0.998   1.231 -0.0462 -0.7195  0.3051
  391SOL    HW2 1958   3.167   0.969   1.111  0.5638  0.2540 -0.3905
  392SOL     OW 1959   1.718   2.792   1.245  0.2785  0.1132 -0.4824
  392SOL    HW1 1960   1.752   2.865   1.298 -1.6212 -1.1434  2.7354
  392SOL    HW2 1961   1.624   2.809   1.238  0.0014 -1.3963 -0.7349
  393SOL     OW 1962   2.036   1.620   3.097 -0.1637 -0.3972  0.0148
  393SOL    HW1 1963   2.093   1.600   3.023  0.4680  0.1638  0.3382
  393SOL    HW2 1964   1.954   1.649   3.057  1.0725  2.6573 -0.5735
  394SOL     OW 1965   2.010   0.658   0.500 -0.2519 -0.2662  0.1007
  394SOL    HW1 1966   1.992   0.640   0.407 -1.4177 -0.9809  0.4519
  394SOL    HW2 1967   2.039   0.574   0.535  4.5816  0.8312 -0.5204
  395SOL     OW 1968   0.635   1.050   0.189 -0.0246  0.1257  0.3266
  395SOL    HW1 1969   0.614   0.958   0.176  2.1551 -0.3344 -0.2860
  395SOL    HW2 1970   0.558   1.097   0.157  0.2363 -1.3779 -2.9558
  396SOL     OW 1971   1.642   2.193   0.960 -0.8608  0.2315 -0.4324
  396SOL    HW1 1972   1.689   2.110   0.951 -1.8094 -0.4497  0.6509
  396SOL    HW2 1973   1.711   2.257   0.979 -0.0045 -0.1017 -2.1764
  397SOL     OW 1974   2.166   3.118   2.619  0.8279  0.5195  0.0847
  397SOL    HW1 1975   2.237   3.166   2.662  0.2792  0.3657  1.2147
  397SOL    HW2 1976   2.095   3.118   2.683 -0.0886  0.4015 -0.8990
  398SOL     OW 1977   1.262   1.781   3.235 -0.0248 -0.1895 -0.2477
  398SOL    HW1 1978   1.302   1.701   3.203 -0.1119 -0.4652  0.3224
  398SOL    HW2 1979   1.302   1.851   3.183  0.0251 -0.5994 -0.7697
  399SOL     OW 1980   0.996   0.502   3.311 -0.6858 -0.3424 -0.2316
  399SOL    HW1 1981   1.028   0.506   3.401 -1.2286 -0.4639 -0.0297
  399SOL    HW2 1982   1.075   0.495   3.258 -0.1016  2.7713  0.0030
  400SOL     OW 1983   1.439   2.888   1.458  0.0902  0.2671 -0.3405
  400SOL    HW1 1984   1.381   2.899   1.533 -2.1853  0.1389 -1.9880
  400SOL    HW2 1985   1.449   2.793   1.448 -0.3787  0.2511 -0.7202
  401SOL     OW 1986   0.572   0.785   0.110 -0.5330 -0.0099  0.1723
  401SOL    HW1 1987   0.584   0.803   0.017  0.5871 -0.8025  0.1473
  401SOL    HW2 1988   0.645   0.728   0.133 -1.4687 -0.8119  1.2625
  402SOL     OW 1989   2.931   1.157   0.576  0.6814 -0.5646  0.2838
  402SOL    HW1 1990   2.919   1.213   0.500  0.5865  0.6111  1.1389
  402SOL    HW2 1991   3.010   1.191   0.619 -0.7354  0.5503  2.1586
  403SOL     OW 1992   1.121   3.216   2.996 -0.4922  0.3743 -0.4779
  403SOL    HW1 1993   1.145   3.124   2.982 -1.7341  0.1461 -1.2087
  403SOL    HW2 1994   1.037   3.226   2.952 -1.0668  1.5121  0.8024
  404SOL     OW 1995   2.915   2.460   1.115 -0.0020 -0.0535  0.1514
  404SOL    HW1 1996   2.978   2.501   1.174 -0.0127  1.1661 -0.6531
  404SOL    HW2 1997   2.869   2.397   1.169 -0.6781  1.7022  1.7025
  405SOL     OW 1998   1.985   0.058   0.045  0.1824  0.2027  0.2952
  405SOL    HW1 1999   2.013  -0.024   0.087  0.7313 -0.3417 -1.0458
  405SOL    HW2 2000   2.050   0.122   0.073 -1.0687  0.5893  2.5392
  406SOL     OW 2001   0.200   0.096   2.281  0.0739  0.0120 -0.6774
  406SOL    HW1 2002   0.138   0.088   2.209 -0.6619  0.2042 -0.0780
  406SOL    HW2 2003   0.168   0.170   2.333 -0.3152 -1.0703  0.6897
  407SOL     OW 2004   1.106   1.709   1.388 -0.0718  0.8502  0.0419
  407SOL    HW1 2005   1.152   1.684   1.308  3.0456  0.8355  1.6770
  407SOL    HW2 2006   1.061   1.629   1.415 -1.4920  0.9583 -1.8110
  408SOL     OW 2007   0.122   0.768   1.006 -0.1962 -0.2532 -0.0920
  408SOL    HW1 2008   0.040   0.768   0.957 -0.2508  0.5004 -0.0136
  408SOL    HW2 2009   0.129   0.680   1.042  0.0042 -0.9398 -1.7274
  409SOL     OW 2010   1.954   3.181   1.618 -0.6347  0.0038  0.2127
  409SOL    HW1 2011   1.955   3.100   1.568 -1.0760  0.1390 -0.0201
  409SOL    HW2 2012   1.881   3.171   1.679 -2.7341  1.4409 -1.8850
  410SOL     OW 2013   2.256   2.434   2.869  0.2048  0.2639 -0.4660
  410SOL    HW1 2014   2.206   2.354   2.849 -1.5613  1.0090  0.6868
  410SOL    HW2 2015   2.200   2.505   2.838  1.5039  1.0952 -0.9608
  411SOL     OW 2016   0.461   1.730   0.245  0.4259 -0.1352 -0.3154
  411SOL    HW1 2017   0.400   1.777   0.188  1.5072  0.8874 -0.6694
  411SOL    HW2 2018   0.515   1.679   0.186  1.6089  0.9938 -0.2674
  412SOL     OW 2019   2.996   1.740   2.712  0.2388  0.2320  0.7076
  412SOL    HW1 2020   3.059   1.669   2.721  0.7075  0.3972 -0.9117
  412SOL    HW2 2021   2.935   1.727   2.784 -0.5918 -2.7472 -0.3941
  413SOL     OW 2022   2.415   1.388   0.736 -0.1360 -0.0154 -0.4627
  413SOL    HW1 2023   2.466   1.307   0.727  0.7481  0.3708  0.8705
  413SOL    HW2 2024   2.336   1.361   0.782  0.3276 -0.0672  0.3149
  414SOL     OW 2025   1.778   2.888   0.203 -0.1292 -0.8395  0.0947
  414SOL    HW1 2026   1.683   2.882   0.188 -0.0992  0.6810 -0.8414
  414SOL    HW2 2027   1.811   2.936   0.128  1.0731  0.6065  1.4903
  415SOL     OW 2028   1.729   3.069   1.019 -0.2475  0.1255  0.1946
  415SOL    HW1 2029   1.653   3.019   1.049  0.0072  0.0017  0.6379
  415SOL    HW2 2030   1.730   3.147   1.075 -0.7669  0.7428 -0.6287
  416SOL     OW 2031   1.383   0.420   1.091 -0.3408  0.6033  0.2864
  416SOL    HW1 2032   1.429   0.497   1.059  0.8901 -0.0164  0.5300
  416SOL    HW2 2033   1.334   0.451   1.168  0.0764  1.1497  0.3370
  417SOL     OW 2034   1.415   0.134   0.493 -0.0395 -0.4102 -0.6793
  417SOL    HW1 2035   1.479   0.108   0.426  1.4058  2.1352 -0.4392
  417SOL    HW2 2036   1.331   0.134   0.448  0.8875  1.1353 -2.5361
  418SOL     OW 2037   0.407   0.323   1.887 -0.0388 -0.1825  0.7900
  418SOL    HW1 2038   0.334   0.339   1.828  0.5233  0.9194  0.3560
  418SOL    HW2 2039   0.379   0.251   1.943 -1.3446  0.0644  0.4645
  419SOL     OW 2040   2.927   2.937   1.253  0.0463 -0.4243 -1.0752
  419SOL    HW1 2041   3.011   2.956   1.211  0.6509  2.0807  0.9699
  419SOL    HW2 2042   2.865   2.994   1.208 -0.0125 -0.3791 -0.9383
  420SOL     OW 2043   1.041   2.596   1.599 -0.2307  0.1428 -0.3850
  420SOL    HW1 2044   1.107   2.528   1.612 -2.1373 -1.4897  1.3267
  420SOL    HW2 2045   0.982   2.560   1.533 -0.6084  0.6501 -0.3306
  421SOL     OW 2046   1.808   1.937   1.003 -0.0191  0.1249  0.2476
  421SOL    HW1 2047   1.886   1.971   1.046  0.5106  0.3749 -0.8664
  421SOL    HW2 2048   1.842   1.880   0.934 -0.8464 -0.5024  0.3386
  422SOL     OW 2049   2.848   0.228   1.284 -0.1194 -0.1790 -0.5930
  422SOL    HW1 2050   2.894   0.149   1.311  2.2570  1.9199  1.9903
  422SOL    HW2 2051   2.897   0.260   1.208  1.0078  0.5238  0.4016
  423SOL     OW 2052   1.690   2.812   2.953  0.1250 -0.3053  0.7878
  423SOL    HW1 2053   1.597   2.832   2.950  0.0091 -0.9531 -1.2964
  423SOL    HW2 2054   1.724   2.844   2.869  1.8934  0.3607  1.7008
  424SOL     OW 2055   1.269   2.780   1.666 -0.3485  0.1880 -0.1235
  424SOL    HW1 2056   1.309   2.714   1.609 -0.4952 -0.7525  0.8229
  424SOL    HW2 2057   1.179   2.786   1.634 -0.3729 -0.1817 -0.1345
  425SOL     OW 2058   0.166   3.065   1.485  0.4164  0.4922 -0.4043
  425SOL    HW1 2059   0.130   3.153   1.498 -0.6171  0.1181 -0.6503
  425SOL    HW2 2060   0.201   3.041   1.570 -2.9840 -0.4712  0.8957
  426SOL     OW 2061   0.965   1.683   0.889  0.2529 -0.3725 -0.2213
  426SOL    HW1 2062   1.008   1.602   0.916  1.2328 -0.0816 -0.8807
  426SOL    HW2 2063   0.991   1.695   0.798  2.2137  1.9723  0.5293
  427SOL     OW 2064   1.267   2.317   2.395  0.3358  0.4349  0.0075
  427SOL    HW1 2065   1.189   2.345   2.443 -0.7020 -1.0108 -0.7801
  427SOL    HW2 2066   1.245   2.331   2.303  0.1358 -1.9311 -0.3668
  428SOL     OW 2067   2.518   1.758   2.718 -0.6535  0.1317  0.4130
  428SOL    HW1 2068   2.532   1.733   2.809 -1.7328 -1.9081  0.0820
  428SOL    HW2 2069   2.462   1.836   2.723 -0.1879  0.4086  1.4953
  429SOL     OW 2070   1.090   0.202   2.245  0.3461  0.0238  1.1122
  429SOL    HW1 2071   1.110   0.193   2.338  0.6262 -2.3252  0.8740
  429SOL    HW2 2072   1.121   0.121   2.206  0.4294  1.0490 -1.0866
  430SOL     OW 2073   0.418   0.389   1.540 -0.3497 -0.0544  0.2507
  430SOL    HW1 2074   0.509   0.397   1.566 -0.8126  2.0715  1.4339
  430SOL    HW2 2075   0.399   0.471   1.494 -1.9575  0.0372  1.0274
  431SOL     OW 2076   1.424   1.534   3.218  0.5272  0.2640 -0.0344
  431SOL    HW1 2077   1.506   1.550   3.173  2.1748 -1.4580  2.1062
  431SOL    HW2 2078   1.405   1.441   3.202 -1.5496  0.8369 -1.2444
  432SOL     OW 2079   3.306   3.240   1.375  0.1550 -0.0857  0.3633
  432SOL    HW1 2080   3.379   3.201   1.326  1.0712  0.3214  1.3592
  432SOL    HW2 2081   3.349   3.293   1.443 -1.0805 -0.4871  1.4798
  433SOL     OW 2082   3.039   0.181   2.634 -0.1634 -0.5168  0.4028
  433SOL    HW1 2083   3.060   0.226   2.716  0.0227 -0.6211  0.4130
  433SOL    HW2 2084   3.013   0.093   2.661  0.1161 -0.6216  0.3348
  434SOL     OW 2085   1.529   3.297   1.723 -0.1777  0.2781  0.5120
  434SOL    HW1 2086   1.572   3.214   1.742  0.3626  0.4052 -0.0863
  434SOL    HW2 2087   1.500   3.329   1.808 -2.7542 -1.7391  0.4966
  435SOL     OW 2088   0.099   1.082   1.500  0.2000  0.6826 -0.2537
  435SOL    HW1 2089   0.144   1.097   1.584 -0.3641  2.1068 -0.1681
  435SOL    HW2 2090   0.165   1.103   1.434  0.1688  1.1542 -0.1417
  436SOL     OW 2091   3.343   0.227   3.270  0.0760  0.5986  0.2451
  436SOL    HW1 2092   3.367   0.308   3.225 -0.1574  0.9553  0.7523
  436SOL    HW2 2093   3.266   0.196   3.222  0.0494  0.7801  0.1659
  437SOL     OW 2094   3.307   2.337   1.886  0.2505  0.2986 -0.5704
  437SOL    HW1 2095   3.281   2.333   1.794  0.0011  0.6148 -0.5143
  437SOL    HW2 2096   3.243   2.282   1.931 -0.0394  0.6989 -0.4945
  438SOL     OW 2097   2.072   3.028   0.696  0.0667  0.4560  0.1027
  438SOL    HW1 2098   2.054   3.115   0.660 -0.4127  1.3589  2.3800
  438SOL    HW2 2099   2.002   2.973   0.662 -0.9567  1.5135  0.4351
  439SOL     OW 2100   0.741   1.148   1.087  0.2658  0.2085 -0.3438
  439SOL    HW1 2101   0.732   1.079   1.153 -2.4693  1.4154  0.6896
  439SOL    HW2 2102   0.742   1.102   1.003  0.9012 -1.1986  0.4125
  440SOL     OW 2103   1.061   1.341   0.959  0.2363 -0.5748 -0.2108
  440SOL    HW1 2104   1.026   1.266   0.911 -0.8412 -0.6809  0.7158
  440SOL    HW2 2105   1.129   1.304   1.015 -2.2070 -1.4397  2.4023
  441SOL     OW 2106   2.951   0.792   3.264  0.5504  0.4311 -0.3851
  441SOL    HW1 2107   2.879   0.753   3.215  0.6227  0.8740 -0.8546
  441SOL    HW2 2108   2.949   0.747   3.349  1.3703 -1.4130 -1.2952
  442SOL     OW 2109   2.319   1.451   0.992  0.4273 -0.0559  0.3610
  442SOL    HW1 2110   2.298   1.501   0.914 -0.3519  1.2527  1.3741
  442SOL    HW2 2111   2.411   1.471   1.010  0.6185 -0.3903 -0.2142
  443SOL     OW 2112   0.192   0.316   1.686 -0.0112  0.2841  0.2732
  443SOL    HW1 2113   0.269   0.335   1.632 -0.5120  0.8828 -0.2470
  443SOL    HW2 2114   0.117   0.334   1.628 -0.5381 -0.5470  0.6885
  444SOL     OW 2115   0.773   2.418   2.221  0.1499 -0.1662 -0.1245
  444SOL    HW1 2116   0.694   2.365   2.210 -0.0010 -0.3858  1.6402
  444SOL    HW2 2117   0.746   2.491   2.277  0.8146  0.6919 -0.8999
  445SOL     OW 2118   3.002   2.217   1.742 -0.0220  0.1014 -0.0694
  445SOL    HW1 2119   3.007   2.130   1.783  0.6008 -0.3823 -1.1525
  445SOL    HW2 2120   2.943   2.206   1.668  0.7232  0.3854 -0.7239
  446SOL     OW 2121   1.202   1.105   0.264  0.1242 -0.1682  0.2073
  446SOL    HW1 2122   1.198   1.195   0.232 -1.4789 -0.3039 -0.0581
  446SOL    HW2 2123   1.245   1.111   0.349  0.4256  0.7788 -0.0029
  447SOL     OW 2124   1.886   2.604   1.344  0.2566  0.3696  0.1187
  447SOL    HW1 2125   1.895   2.527   1.288 -0.1124  0.5243 -0.1615
  447SOL    HW2 2126   1.819   2.657   1.301  0.5814  0.9002  0.2533
  448SOL     OW 2127   1.669   2.183   3.048 -0.2494 -0.1672 -0.4626
  448SOL    HW1 2128   1.637   2.271   3.068  2.0980  0.8757 -0.8475
  448SOL    HW2 2129   1.611   2.151   2.979 -2.5785  0.0722  1.2737
  449SOL     OW 2130   0.508   2.356   2.101  0.0779 -0.8596 -0.0457
  449SOL    HW1 2131   0.455   2.321   2.172  1.6740  0.4301  1.9014
  449SOL    HW2 2132   0.485   2.449   2.098  0.3501 -0.8151 -0.9334
  450SOL     OW 2133   2.902   1.011   2.967 -0.5146 -0.1985 -0.6974
  450SOL    HW1 2134   2.942   0.942   2.913 -1.7670  0.6624 -2.8697
  450SOL    HW2 2135   2.843   0.964   3.026  0.9522 -1.1838  0.0591
  451SOL     OW 2136   1.927   2.909   1.740  0.6851  0.4693 -0.0794
  451SOL    HW1 2137   1.954   2.863   1.820 -0.1089 -2.3536 -1.2818
  451SOL    HW2 2138   1.909   2.838   1.678  3.3056  2.5127 -3.5064
  452SOL     OW 2139   0.697   0.855   0.470 -0.4307  0.1428 -0.1445
  452SOL    HW1 2140   0.738   0.805   0.540 -0.1125  1.4208  0.6177
  452SOL    HW2 2141   0.766   0.867   0.405 -0.3131  0.1923 -0.0090
  453SOL     OW 2142   2.095   0.418   0.584 -0.9351 -0.4016  0.3025
  453SOL    HW1 2143   2.027   0.359   0.553  0.2358 -0.8566 -1.5679
  453SOL    HW2 2144   2.121   0.382   0.669 -1.3686 -1.6203 -0.0609
  454SOL     OW 2145   1.589   0.269   0.974  0.3316 -0.1609 -0.0664
  454SOL    HW1 2146   1.641   0.342   0.938 -0.3576  0.7186  0.6660
  454SOL    HW2 2147   1.520   0.312   1.023  1.3807 -1.2893  2.5785
  455SOL     OW 2148   0.078   1.866   3.089 -0.2714  0.0766  0.0050
  455SOL    HW1 2149  -0.014   1.874   3.064 -0.3568 -0.0772  0.2638
  455SOL    HW2 2150   0.127   1.876   3.007 -0.4799  0.9117 -0.0274
  456SOL     OW 2151   0.330   0.198   1.188  0.2496 -0.2217  0.2044
  456SOL    HW1 2152   0.385   0.272   1.161  0.5529 -1.1300 -1.8658
  456SOL    HW2 2153   0.271   0.235   1.254  0.8066  1.7162 -0.3163
  457SOL     OW 2154   1.979   2.311   2.541  0.1610  0.2755 -0.2822
  457SOL    HW1 2155   1.917   2.363   2.592 -0.7703  0.0729 -1.1779
  457SOL    HW2 2156   1.935   2.296   2.457  0.8384 -1.0594 -0.4283
  458SOL     OW 2157   2.539   2.190   1.348  0.2374  0.2984 -0.4401
  458SOL    HW1 2158   2.482   2.135   1.400  0.8340  0.5603  0.5153
  458SOL    HW2 2159   2.491   2.205   1.266 -0.4599 -0.5861 -0.1974
  459SOL     OW 2160   2.011   1.953   0.385 -0.0194  0.3915 -0.2078
  459SOL    HW1 2161   2.053   1.973   0.469  0.2841  0.9564 -0.4852
  459SOL    HW2 2162   2.082   1.953   0.321 -0.0952 -1.0659 -0.3251
  460SOL     OW 2163   0.973   0.269   1.333  0.1782  0.2172  0.1076
  460SOL    HW1 2164   0.909   0.236   1.269  1.0249 -1.1774 -0.0592
  460SOL    HW2 2165   1.058   0.249   1.294  0.7205 -0.6238  1.6348
  461SOL     OW 2166   0.379   0.854   0.333 -0.5720 -0.0806 -0.1108
  461SOL    HW1 2167   0.390   0.859   0.238 -0.8009  0.9531 -0.1007
  461SOL    HW2 2168   0.463   0.825   0.366  0.0961  1.3114 -0.5060
  462SOL     OW 2169   0.818   0.203   0.377 -0.5448  0.2226 -0.0487
  462SOL    HW1 2170   0.882   0.200   0.306 -0.2864 -2.2288  0.2013
  462SOL    HW2 2171   0.795   0.296   0.385  1.2929  0.8806 -1.6282
  463SOL     OW 2172   2.628   2.947   2.807 -0.7074 -0.5116 -0.1074
  463SOL    HW1 2173   2.587   2.925   2.724  0.2702  0.6719 -0.9478
  463SOL    HW2 2174   2.555   2.961   2.867 -1.4698 -0.2906 -1.0557
  464SOL     OW 2175   0.455   3.349   2.613  0.8357  0.6169  0.0065
  464SOL    HW1 2176   0.408   3.306   2.542 -1.9737  3.3032  0.0261
  464SOL    HW2 2177   0.515   3.409   2.569  2.4990 -0.9811 -0.0080
  465SOL     OW 2178   0.125   2.340   1.698  0.2238  0.3251  0.6607
  465SOL    HW1 2179   0.031   2.332   1.683  0.5813 -2.4198 -0.8447
  465SOL    HW2 2180   0.136   2.319   1.791 -0.5283 -1.1843  0.4362
  466SOL     OW 2181   3.248   3.267   2.906 -0.2218  0.4350  0.4360
  466SOL    HW1 2182   3.253   3.283   3.000  0.0318  1.7307  0.2204
  466SOL    HW2 2183   3.203   3.344   2.871 -0.9464 -0.3557 -0.4274
  467SOL     OW 2184   3.334   3.019   2.841  0.2843 -0.2254 -0.1012
  467SOL    HW1 2185   3.389   2.988   2.912  0.4624 -1.4323 -0.7457
  467SOL    HW2 2186   3.313   3.110   2.865  2.6220  0.3086  0.1094
  468SOL     OW 2187   3.165   3.370   1.180 -0.4697 -0.8648  0.0837
  468SOL    HW1 2188   3.225   3.357   1.253  0.0705  0.4486 -0.0896
  468SOL    HW2 2189   3.087   3.320   1.204 -0.8102  0.5644  2.2248
  469SOL     OW 2190   1.728   0.285   0.028 -0.2986 -0.0724 -0.2853
  469SOL    HW1 2191   1.822   0.277   0.041 -0.2357  2.2800  1.1672
  469SOL    HW2 2192   1.692   0.292   0.116 -1.6568  0.6886 -0.8731
  470SOL     OW 2193   1.109   1.881   1.067 -0.1533  0.6165  0.3865
  470SOL    HW1 2194   1.053   1.832   1.007  0.2677  1.1740 -0.4765
  470SOL    HW2 2195   1.099   1.973   1.041  0.8051  0.7681  0.5029
  471SOL     OW 2196   0.489   1.590   0.557  0.0168 -0.0746 -0.4591
  471SOL    HW1 2197   0.520   1.561   0.643  0.4235  0.2101 -0.5074
  471SOL    HW2 2198   0.431   1.519   0.527 -1.0157  0.3168  0.5320
  472SOL     OW 2199   0.326   1.408   0.387  0.8935  0.1581 -0.0669
  472SOL    HW1 2200   0.333   1.339   0.453  2.5439 -0.0793 -0.4574
  472SOL    HW2 2201   0.232   1.411   0.367  0.6746 -1.4684  0.4930
  473SOL     OW 2202   1.041   2.225   1.489 -0.0290 -0.2054  0.6278
  473SOL    HW1 2203   1.080   2.184   1.567  0.6376  0.7569  0.8361
  473SOL    HW2 2204   0.947   2.215   1.501  0.0550  0.0988  1.6738
  474SOL     OW 2205   3.247   2.616   1.363 -0.1015  0.7136 -0.6748
  474SOL    HW1 2206   3.198   2.627   1.445  0.7811 -0.8665  0.1124
  474SOL    HW2 2207   3.317   2.681   1.368 -0.6090  1.2590 -0.6165
  475SOL     OW 2208   3.033   0.677   1.002 -0.0605 -0.6650  0.2454
  475SOL    HW1 2209   3.044   0.620   1.078 -1.0774  0.7025  1.4659
  475SOL    HW2 2210   2.960   0.735   1.025  1.0814  1.2991 -0.8186
  476SOL     OW 2211   3.285   0.100   2.555  0.0675  0.1116 -0.1300
  476SOL    HW1 2212   3.296   0.007   2.535  1.4623  0.5856 -1.8277
  476SOL    HW2 2213   3.191   0.115   2.543 -0.4933 -1.4056  1.9215
  477SOL     OW 2214   0.698   1.886   1.100 -0.3770  0.1276  0.4492
  477SOL    HW1 2215   0.692   1.817   1.166 -1.1790  0.5510  0.8315
  477SOL    HW2 2216   0.723   1.840   1.020  1.0452 -0.3328  1.1262
  478SOL     OW 2217   2.513   2.027   3.013 -0.0112  0.3875  0.4906
  478SOL    HW1 2218   2.486   2.110   3.052  2.0346  0.9736  0.8093
  478SOL    HW2 2219   2.447   2.009   2.946 -0.9969  1.7913  1.0319
  479SOL     OW 2220   2.009   2.168   0.010  0.1301 -0.2691 -0.0566
  479SOL    HW1 2221   2.039   2.208  -0.072  1.2757 -0.9307  0.0245
  479SOL    HW2 2222   2.003   2.242   0.071 -0.9721  0.2719 -0.7768
  480SOL     OW 2223   2.277   0.430   0.382 -0.1023 -0.1278 -0.7934
  480SOL    HW1 2224   2.240   0.433   0.471  1.2859  0.4039 -0.1986
  480SOL    HW2 2225   2.222   0.368   0.335 -0.1919 -1.3068  0.7783
  481SOL     OW 2226   2.959   1.121   0.262  0.7195 -0.3251  0.7448
  481SOL    HW1 2227   2.959   1.089   0.171  1.6617 -1.2782  1.0664
  481SOL    HW2 2228   3.047   1.105   0.293  0.0601 -1.1961  2.2528
  482SOL     OW 2229   1.047   1.106   1.173 -0.3144 -0.0506  0.4372
  482SOL    HW1 2230   0.988   1.164   1.125  0.6300  1.3750  0.9331
  482SOL    HW2 2231   1.078   1.158   1.247 -0.0813 -1.4823  1.4039
  483SOL     OW 2232   2.160   2.183   2.696  0.7609  0.5802  0.1750
  483SOL    HW1 2233   2.095   2.240   2.655  0.5715  0.8059  0.7797
  483SOL    HW2 2234   2.108   2.113   2.736  0.9513  0.2941 -0.0829
  484SOL     OW 2235   0.425   0.391   2.427  0.3710  0.3894  0.1348
  484SOL    HW1 2236   0.474   0.410   2.507  1.5728 -0.5180 -0.3553
  484SOL    HW2 2237   0.371   0.469   2.413  2.1186  1.7101  0.3905
  485SOL     OW 2238   2.785   2.193   1.553  0.2159  0.2259 -0.2775
  485SOL    HW1 2239   2.750   2.158   1.471 -1.1862 -0.2343  0.4744
  485SOL    HW2 2240   2.717   2.253   1.584  0.7314  0.4027  0.5348
  486SOL     OW 2241   3.304   0.286   0.555 -0.0182 -0.0998  0.2420
  486SOL    HW1 2242   3.317   0.366   0.504  0.6555 -0.5612 -0.3377
  486SOL    HW2 2243   3.291   0.316   0.645  0.6996  0.6386  0.1082
  487SOL     OW 2244   2.912   0.793   0.297 -0.5473  0.0728  0.2164
  487SOL    HW1 2245   3.000   0.801   0.335 -0.0930  0.7176 -0.9127
  487SOL    HW2 2246   2.867   0.874   0.322 -0.1140  0.6808 -0.9046
  488SOL     OW 2247   0.955   0.955   0.026 -0.4329 -0.1658  0.0112
  488SOL    HW1 2248   0.989   1.040  -0.004 -3.1704  1.0901  0.1404
  488SOL    HW2 2249   0.973   0.895  -0.046 -0.0404  0.9835 -0.8829
  489SOL     OW 2250   0.825   2.946   0.189  0.9235  0.3876 -0.0940
  489SOL    HW1 2251   0.788   2.863   0.160 -2.1951  1.9111 -0.8204
  489SOL    HW2 2252   0.895   2.964   0.126  0.1701 -0.6299 -1.2707
  490SOL     OW 2253   2.320   2.979   2.249  0.0823 -0.2401  0.1321
  490SOL    HW1 2254   2.241   3.033   2.253  0.3582  0.3028 -1.2822
  490SOL    HW2 2255   2.340   2.971   2.156  1.8663 -0.1269  0.4637
  491SOL     OW 2256   2.092   3.114   3.107 -0.0292 -0.0439 -0.8856
  491SOL    HW1 2257   2.154   3.059   3.155 -0.0375  0.9153  0.2788
  491SOL    HW2 2258   2.134   3.200   3.105 -0.9164  0.3966 -0.8708
  492SOL     OW 2259   3.154   1.783   2.444  0.1111  0.0961  0.3819
  492SOL    HW1 2260   3.110   1.793   2.529 -2.5649 -2.1617 -0.5846
  492SOL    HW2 2261   3.082   1.780   2.381  2.0262  1.5615 -2.0175
  493SOL     OW 2262   0.175   3.208   2.959 -0.0242  0.4543 -0.3363
  493SOL    HW1 2263   0.193   3.139   2.895 -2.0171  0.3005 -0.7784
  493SOL    HW2 2264   0.082   3.227   2.949 -0.0844  1.4014  1.5803
  494SOL     OW 2265   1.788   2.350   2.342  0.1271 -0.1618 -0.4337
  494SOL    HW1 2266   1.699   2.381   2.323  0.6720  0.6807 -1.7016
  494SOL    HW2 2267   1.845   2.417   2.305  1.3071  0.2824  2.0006
  495SOL     OW 2268   2.736   1.852   1.335  0.1505  0.4754  0.1611
  495SOL    HW1 2269   2.681   1.824   1.408  0.0287 -2.3386 -0.8763
  495SOL    HW2 2270   2.676   1.855   1.260  1.0526 -1.1046 -0.6688
  496SOL     OW 2271   1.673   2.501   1.097  0.4748 -0.3732  0.1799
  496SOL    HW1 2272   1.685   2.573   1.035 -0.1392  2.6599  3.2603
  496SOL    HW2 2273   1.580   2.502   1.118  0.6165 -1.4850  0.9428
  497SOL     OW 2274   2.139   0.054   1.722  0.0897  0.0536  0.5216
  497SOL    HW1 2275   2.188   0.118   1.670  0.2272 -0.5306 -0.0877
  497SOL    HW2 2276   2.194  -0.024   1.721 -0.9974 -0.7239 -0.4656
  498SOL     OW 2277   2.561   1.736   3.041  0.4919 -0.0235 -0.3342
  498SOL    HW1 2278   2.467   1.731   3.057  0.4274  0.6145 -0.4928
  498SOL    HW2 2279   2.580   1.829   3.036  0.6567 -0.1091 -2.9951
  499SOL     OW 2280   1.048   0.275   0.226  0.0071 -0.8900 -0.0324
  499SOL    HW1 2281   1.093   0.196   0.256  0.3975 -0.5945  0.1704
  499SOL    HW2 2282   1.056   0.337   0.299  1.4719  0.0336 -0.9284
  500SOL     OW 2283   1.513   0.053   2.967 -0.2048  0.2088 -0.3520
  500SOL    HW1 2284   1.539   0.104   3.043 -1.0743  1.1503 -0.6621
  500SOL    HW2 2285   1.590   0.054   2.910 -0.1038  0.9485 -0.2203
  501SOL     OW 2286   0.632   0.102   1.453  0.5559 -0.0119  0.0801
  501SOL    HW1 2287   0.698   0.109   1.384  0.7858  0.7197  0.3662
  501SOL    HW2 2288   0.574   0.032   1.423  1.7765 -1.0654  0.0976
  502SOL     OW 2289   2.354   1.965   2.779 -0.3106  0.6050 -0.0742
  502SOL    HW1 2290   2.330   2.033   2.716 -0.8862 -0.8776 -1.5242
  502SOL    HW2 2291   2.271   1.930   2.809 -0.0231 -0.0125  0.0190
  503SOL     OW 2292   2.374   1.958   0.700 -0.0620  0.5951 -0.0879
  503SOL    HW1 2293   2.279   1.951   0.693  0.0768 -0.2324 -1.5462
  503SOL    HW2 2294   2.407   1.905   0.628  1.5344  0.0740  0.9769
  504SOL     OW 2295   2.195   2.041   1.399  0.1323  0.1193 -0.0421
  504SOL    HW1 2296   2.250   2.016   1.474  0.8379 -0.1472 -0.6335
  504SOL    HW2 2297   2.141   2.113   1.432  2.4160  1.9472 -0.0457
  505SOL     OW 2298   2.248   2.579   0.287 -0.6136  0.3547 -0.2432
  505SOL    HW1 2299   2.235   2.662   0.333  0.0497  0.7517 -0.7435
  505SOL    HW2 2300   2.336   2.552   0.311 -0.3716  0.4153 -1.0292
  506SOL     OW 2301   1.417   3.265   1.997 -0.3470 -0.0848 -0.0298
  506SOL    HW1 2302   1.337   3.294   2.040 -0.7487  0.5079 -1.1609
  506SOL    HW2 2303   1.392   3.186   1.950 -0.4457  0.4494 -0.9042
  507SOL     OW 2304   0.413   0.132   2.078 -0.6796 -0.5557 -1.0523
  507SOL    HW1 2305   0.481   0.196   2.096 -0.3821 -0.5562 -2.1499
  507SOL    HW2 2306   0.349   0.145   2.149 -0.7447  1.1157 -1.3721
  508SOL     OW 2307   1.465   2.655   2.207 -0.1399 -0.0198 -0.1688
  508SOL    HW1 2308   1.471   2.743   2.245 -1.0519  0.4416 -1.0611
  508SOL    HW2 2309   1.525   2.656   2.133  0.3848 -0.3916  0.2387
  509SOL     OW 2310   2.179   1.411   0.168  0.2712 -0.0073  0.1600
  509SOL    HW1 2311   2.224   1.408   0.252  1.5833 -0.2864 -0.5401
  509SOL    HW2 2312   2.168   1.504   0.150 -1.4665  0.0683  1.3705
  510SOL     OW 2313   2.984   2.213   2.455 -0.6390  0.0932 -0.2189
  510SOL    HW1 2314   2.945   2.151   2.392 -1.2780  0.7906 -0.5367
  510SOL    HW2 2315   2.971   2.171   2.540 -1.5116 -0.0022 -0.3815
  511SOL     OW 2316   0.454   2.640   2.396  0.3098  0.0262  0.0839
  511SOL    HW1 2317   0.440   2.555   2.439 -1.8134 -0.3380 -1.1951
  511SOL    HW2 2318   0.409   2.632   2.312  2.1041  1.6350 -1.1070
  512SOL     OW 2319   1.767   2.152   0.516 -0.5416 -0.2049 -0.3998
  512SOL    HW1 2320   1.709   2.226   0.535 -0.9482 -1.0001  1.6449
  512SOL    HW2 2321   1.823   2.146   0.593 -0.7332 -2.2248 -0.3870
  513SOL     OW 2322   3.061   1.170   1.096  0.0090 -0.3174  0.4072
  513SOL    HW1 2323   3.133   1.188   1.156 -0.5492  0.3489  0.8974
  513SOL    HW2 2324   3.010   1.101   1.140  1.1120 -1.8565 -0.6057
  514SOL     OW 2325   2.520   3.283   1.011 -0.3830  0.0105  0.1120
  514SOL    HW1 2326   2.452   3.269   1.077 -0.6992 -0.1289 -0.2348
  514SOL    HW2 2327   2.573   3.354   1.045 -0.6434  0.0510  0.4386
  515SOL     OW 2328   0.648   2.557   1.832  0.1479 -0.4685 -0.4649
  515SOL    HW1 2329   0.726   2.578   1.883 -0.0484  2.1514 -1.0769
  515SOL    HW2 2330   0.607   2.484   1.879  1.6132 -0.2196  1.3116
  516SOL     OW 2331   2.676   0.405   0.099  0.2971 -0.4900  0.0306
  516SOL    HW1 2332   2.698   0.347   0.026 -2.4534  1.1391 -2.2412
  516SOL    HW2 2333   2.753   0.461   0.109  1.3555 -1.7979 -0.4460
  517SOL     OW 2334   3.321   0.459   0.785  0.0308  0.0382  0.3275
  517SOL    HW1 2335   3.381   0.500   0.723  0.2916  0.9743  1.1826
  517SOL    HW2 2336   3.370   0.452   0.867 -1.5338  2.4809  1.5843
  518SOL     OW 2337   1.741   3.085   1.797 -0.2288 -0.0122  0.3933
  518SOL    HW1 2338   1.738   3.089   1.893 -1.1350  0.1584  0.3689
  518SOL    HW2 2339   1.800   3.013   1.778 -0.7305 -0.6254  1.0990
  519SOL     OW 2340   2.690   1.936   2.577  0.0549 -0.1217  0.2237
  519SOL    HW1 2341   2.646   1.859   2.614  0.2791  0.3075  1.4288
  519SOL    HW2 2342   2.629   1.969   2.511  1.5186 -3.5201 -3.2467
  520SOL     OW 2343   1.734   0.469   0.854  0.5282  0.0729 -0.0018
  520SOL    HW1 2344   1.775   0.531   0.914  1.9352 -0.4106 -0.4352
  520SOL    HW2 2345   1.753   0.503   0.767  1.7580 -1.1830 -0.2687
  521SOL     OW 2346   0.609   0.162   2.471  0.4898 -0.1499  0.2013
  521SOL    HW1 2347   0.534   0.208   2.433  0.0186 -1.0613 -0.0018
  521SOL    HW2 2348   0.681   0.225   2.466 -0.0921  0.4933 -0.2365
  522SOL     OW 2349   0.808   3.017   2.300 -0.2515 -0.0312  0.0776
  522SOL    HW1 2350   0.774   3.099   2.262  0.7270 -0.6596 -2.3358
  522SOL    HW2 2351   0.760   3.007   2.382 -1.7868  1.9756 -0.4935
  523SOL     OW 2352   0.889   3.069   1.869 -0.1444 -0.8157 -0.2429
  523SOL    HW1 2353   0.811   3.070   1.925 -0.7818  0.4147 -1.0982
  523SOL    HW2 2354   0.872   3.001   1.805  0.2175 -1.6537  0.5299
  524SOL     OW 2355   2.608   2.454   1.649  0.0175 -0.2955 -0.4936
  524SOL    HW1 2356   2.635   2.418   1.734 -2.7929  0.0597  0.6602
  524SOL    HW2 2357   2.612   2.549   1.662 -0.3416 -0.2423 -0.7770
  525SOL     OW 2358   2.602   3.056   3.175  0.4380 -0.3896 -0.3824
  525SOL    HW1 2359   2.637   2.987   3.119  1.7101  1.0428 -1.4378
  525SOL    HW2 2360   2.645   3.136   3.144 -0.6255  0.8122  1.1029
  526SOL     OW 2361   1.884   1.314   0.552 -0.4142 -0.5265  0.7399
  526SOL    HW1 2362   1.904   1.294   0.644  1.1378  0.5840  0.6811
  526SOL    HW2 2363   1.877   1.409   0.550  1.3266 -0.3823 -0.5931
  527SOL     OW 2364   2.048   0.960   0.703 -0.2808 -0.0093 -0.4076
  527SOL    HW1 2365   2.098   0.902   0.646 -0.2932 -0.6773  0.2518
  527SOL    HW2 2366   2.073   0.935   0.792  1.5326  2.5450 -0.0719
  528SOL     OW 2367   3.241   2.048   1.976  0.2060 -0.1818  0.5400
  528SOL    HW1 2368   3.301   2.018   1.908 -0.0311 -0.3935  0.4212
  528SOL    HW2 2369   3.292   2.040   2.057  0.3575 -0.3072  0.4346
  529SOL     OW 2370   1.051   2.011   3.337 -0.1406  0.3308 -0.0244
  529SOL    HW1 2371   1.056   1.933   3.392 -0.4493  0.9636  0.9259
  529SOL    HW2 2372   1.017   1.979   3.253  1.9386 -0.9307 -0.4507
  530SOL     OW 2373   0.069   3.195   2.176 -0.0605 -0.2874  0.4676
  530SOL    HW1 2374   0.141   3.165   2.119  1.0886  0.0782  1.6762
  530SOL    HW2 2375   0.034   3.272   2.131  0.5873 -0.2171  0.0640
  531SOL     OW 2376   2.382   2.513   0.830 -0.2484  0.3144 -0.0307
  531SOL    HW1 2377   2.461   2.470   0.862  0.6642  3.7044  2.8781
  531SOL    HW2 2378   2.314   2.490   0.894  0.3006  3.0021  1.6945
  532SOL     OW 2379   2.706   2.241   2.689  0.4911  0.5837 -0.5082
  532SOL    HW1 2380   2.636   2.176   2.701  0.8009  0.2279 -0.6317
  532SOL    HW2 2381   2.779   2.191   2.653  0.8130  0.9587 -0.3708
  533SOL     OW 2382   1.601   1.513   0.661  0.1256 -0.1154 -0.3251
  533SOL    HW1 2383   1.663   1.538   0.593 -0.8007  0.5037 -0.9610
  533SOL    HW2 2384   1.539   1.585   0.665  0.4379  0.0959  1.5417
  534SOL     OW 2385   2.844   3.099   2.836  0.2278 -0.1165 -0.0054
  534SOL    HW1 2386   2.764   3.072   2.791  0.6383  0.2706 -0.9884
  534SOL    HW2 2387   2.858   3.032   2.903  0.2363 -1.3568 -1.2119
  535SOL     OW 2388   2.401   2.740   1.609 -0.0247  0.6734  0.4186
  535SOL    HW1 2389   2.335   2.787   1.557 -0.7485 -1.0059 -0.2732
  535SOL    HW2 2390   2.444   2.683   1.545  0.3715 -0.0660  1.3305
  536SOL     OW 2391   1.417   2.901   2.957  0.6821 -0.3610  0.0393
  536SOL    HW1 2392   1.432   2.996   2.962  1.2207 -0.3126 -1.8425
  536SOL    HW2 2393   1.322   2.893   2.947  0.7238  0.0748 -0.8879
  537SOL     OW 2394   2.829   3.136   1.067 -0.4865 -0.3888 -0.1431
  537SOL    HW1 2395   2.915   3.110   1.033 -0.1544  1.0125 -0.4269
  537SOL    HW2 2396   2.799   3.204   1.007 -1.9014 -1.0205 -0.1645
  538SOL     OW 2397   2.364   1.842   0.004  0.2087  0.4580 -0.0246
  538SOL    HW1 2398   2.449   1.807   0.031 -0.9978 -2.2741  0.5724
  538SOL    HW2 2399   2.303   1.809   0.070 -1.5615  0.8375 -1.4074
  539SOL     OW 2400   1.948   1.000   0.093 -0.0668  0.1439 -0.1235
  539SOL    HW1 2401   1.861   0.966   0.114  0.4415 -0.6071  0.8782
  539SOL    HW2 2402   1.955   1.080   0.144  0.0482 -0.1236  0.2908
  540SOL     OW 2403   3.059   0.550   0.757 -0.3802  0.4295  0.3544
  540SOL    HW1 2404   3.057   0.601   0.838 -0.5432 -0.4914  0.9480
  540SOL    HW2 2405   3.151   0.524   0.747 -0.2466  1.0287 -0.0898
  541SOL     OW 2406   3.287   1.156   1.320  0.2877  0.6791  0.1891
  541SOL    HW1 2407   3.260   1.228   1.377  0.4934  1.5987 -0.8366
  541SOL    HW2 2408   3.354   1.110   1.370 -0.8574  0.3143  1.4454
  542SOL     OW 2409   2.718   1.972   3.205 -0.2383  0.3180  0.0467
  542SOL    HW1 2410   2.670   1.976   3.122 -2.0634  1.2816  1.0775
  542SOL    HW2 2411   2.661   1.921   3.263 -0.1843  1.6903  1.3768
  543SOL     OW 2412   1.871   0.299   1.210 -0.1719 -0.2055 -0.0466
  543SOL    HW1 2413   1.785   0.255   1.212 -0.3687  0.2016  1.1765
  543SOL    HW2 2414   1.931   0.238   1.251  0.4800 -1.1127 -2.1767
  544SOL     OW 2415   2.191   1.206   0.459 -0.6951 -0.1743  0.4402
  544SOL    HW1 2416   2.100   1.181   0.440 -0.7933  0.3390  0.1972
  544SOL    HW2 2417   2.222   1.140   0.520 -0.8557 -1.0235 -0.3704
  545SOL     OW 2418   1.964   2.528   2.239  0.2859 -0.4177 -0.2518
  545SOL    HW1 2419   1.975   2.615   2.200  3.5994 -0.1242  0.9432
  545SOL    HW2 2420   1.993   2.467   2.171 -1.0836 -0.5618 -0.7391
  546SOL     OW 2421   0.443   1.021   0.985 -0.3494  0.5895  0.6231
  546SOL    HW1 2422   0.440   0.997   1.078  1.0161  2.1796  1.1395
  546SOL    HW2 2423   0.510   0.965   0.947  0.1521  0.9641  0.9492
  547SOL     OW 2424   0.709   1.750   0.839 -0.1829 -0.0251  0.2164
  547SOL    HW1 2425   0.741   1.817   0.779 -1.0400  0.4679  0.2807
  547SOL    HW2 2426   0.787   1.717   0.883  0.3522  0.2411 -0.5215
  548SOL     OW 2427   0.591   1.854   1.759  0.4782 -0.5667  0.3315
  548SOL    HW1 2428   0.679   1.860   1.795  0.4671 -1.2200  0.4901
  548SOL    HW2 2429   0.533   1.861   1.835  0.3908 -0.0947  0.2228
  549SOL     OW 2430   2.333   2.225   2.486  0.1982 -0.7329 -0.0026
  549SOL    HW1 2431   2.265   2.193   2.546  0.4844 -0.1551  0.6438
  549SOL    HW2 2432   2.332   2.320   2.498  1.4268 -0.7549  0.3440
  550SOL     OW 2433   1.165   3.325   2.096  0.4607  0.0376 -0.1166
  550SOL    HW1 2434   1.124   3.290   2.017  0.5136 -0.2205 -0.0325
  550SOL    HW2 2435   1.123   3.278   2.168  0.8404 -0.1676 -0.0260
  551SOL     OW 2436   2.875   0.580   0.123 -0.2138 -0.3149 -0.0772
  551SOL    HW1 2437   2.920   0.514   0.175 -0.2314 -1.1812 -1.1262
  551SOL    HW2 2438   2.884   0.661   0.174  0.9577 -0.8414  0.5957
  552SOL     OW 2439   1.325   1.207   0.507 -0.3767 -0.0166  0.1595
  552SOL    HW1 2440   1.363   1.198   0.594  0.5099 -0.9633 -0.3045
  552SOL    HW2 2441   1.332   1.301   0.488 -1.1933  0.3129  1.3577
  553SOL     OW 2442   1.142   3.144   1.809  0.1536 -0.2587  0.7338
  553SOL    HW1 2443   1.133   3.129   1.715  0.3808 -1.3886  0.8858
  553SOL    HW2 2444   1.058   3.118   1.846  0.0345  0.2662  0.8439
  554SOL     OW 2445   0.324   1.267   0.620  0.2591 -0.0748  0.2859
  554SOL    HW1 2446   0.395   1.304   0.672  0.3899  0.8379 -0.5146
  554SOL    HW2 2447   0.245   1.310   0.653  0.0866 -0.9641  1.0608
  555SOL     OW 2448   0.457   2.071   1.610  0.0477  0.4225 -0.4037
  555SOL    HW1 2449   0.464   1.986   1.653  0.1045  0.0952 -1.0492
  555SOL    HW2 2450   0.430   2.051   1.520 -0.1956  1.1021 -0.4904
  556SOL     OW 2451   0.615   2.093   0.246 -0.0199 -0.1204  0.1130
  556SOL    HW1 2452   0.597   2.031   0.176  2.4015 -1.4000  0.5405
  556SOL    HW2 2453   0.581   2.051   0.325  0.3694 -0.2587  0.2061
  557SOL     OW 2454   0.794   0.271   0.080  0.1838 -0.0025 -0.8015
  557SOL    HW1 2455   0.878   0.272   0.126 -0.4705  0.8107  0.4115
  557SOL    HW2 2456   0.734   0.318   0.138 -1.0838 -0.4489 -1.7139
  558SOL     OW 2457   0.110   3.331   1.554 -0.0050 -0.0422 -0.2120
  558SOL    HW1 2458   0.169   3.376   1.492  1.3284 -0.8662  0.4165
  558SOL    HW2 2459   0.165   3.313   1.630 -2.1704  3.2296  2.4229
  559SOL     OW 2460   0.309   1.256   1.668  0.4269  0.1579 -0.1965
  559SOL    HW1 2461   0.399   1.257   1.698  0.1371 -1.1743  0.8172
  559SOL    HW2 2462   0.304   1.326   1.603  1.6406  1.6494  1.2515
  560SOL     OW 2463   2.993   0.354   0.286 -0.2973  0.3516 -0.3092
  560SOL    HW1 2464   2.980   0.389   0.374  1.5444  3.7406 -1.1925
  560SOL    HW2 2465   3.068   0.294   0.295 -0.1897  0.5942  0.4662
  561SOL     OW 2466   1.318   1.976   0.117  0.4209  0.2680  0.2460
  561SOL    HW1 2467   1.413   1.962   0.115  0.3814 -0.4263  1.6876
  561SOL    HW2 2468   1.288   1.920   0.188 -0.8700  1.7598  0.9161
  562SOL     OW 2469   1.726   2.154   1.969  0.0431  0.6999 -0.5405
  562SOL    HW1 2470   1.802   2.170   2.025 -0.1767  0.8215 -0.2777
  562SOL    HW2 2471   1.750   2.076   1.919 -0.3676 -0.3175  0.8039
  563SOL     OW 2472   0.685   1.276   0.811 -0.5583 -0.1455 -0.3174
  563SOL    HW1 2473   0.605   1.265   0.863 -0.2410  1.6176  0.6426
  563SOL    HW2 2474   0.675   1.362   0.770  0.3981 -0.3546 -1.0155
  564SOL     OW 2475   1.091   2.786   1.889 -0.0316  0.0800  0.0427
  564SOL    HW1 2476   1.163   2.785   1.825  0.9099  0.7024  1.0519
  564SOL    HW2 2477   1.012   2.786   1.836  0.6877 -1.4100 -1.1026
  565SOL     OW 2478   1.239   1.666   2.121 -0.2041 -0.0438  0.5826
  565SOL    HW1 2479   1.206   1.606   2.187  2.5950 -1.6481  0.6680
  565SOL    HW2 2480   1.160   1.709   2.087 -2.0086 -1.3236  2.8227
  566SOL     OW 2481   0.144   0.182   1.002 -0.4845 -0.7689  0.3237
  566SOL    HW1 2482   0.237   0.195   1.018 -0.0011 -0.5911 -2.2316
  566SOL    HW2 2483   0.119   0.254   0.943 -1.2374 -2.9039 -2.1864
  567SOL     OW 2484   0.117   0.161   2.893 -0.7793  0.3261  0.0251
  567SOL    HW1 2485   0.168   0.155   2.974  0.4626 -0.9848 -0.7964
  567SOL    HW2 2486   0.139   0.081   2.845  0.3558  2.0627 -2.6165
  568SOL     OW 2487   3.051   3.167   1.998 -0.2384 -0.2270  0.0889
  568SOL    HW1 2488   3.094   3.155   2.083 -1.2755 -0.0252  0.6632
  568SOL    HW2 2489   3.049   3.262   1.985 -0.8125 -0.2136  0.2406
  569SOL     OW 2490   0.969   0.589   1.049 -0.2518 -0.1590  0.3921
  569SOL    HW1 2491   1.033   0.583   1.120  1.5300  2.4964 -0.8304
  569SOL    HW2 2492   1.020   0.611   0.971 -2.5075  0.9092 -0.9124
  570SOL     OW 2493   1.691   2.922   2.190 -0.5852 -0.2019  0.7129
  570SOL    HW1 2494   1.722   3.006   2.157  0.3538 -0.8834 -0.1902
  570SOL    HW2 2495   1.617   2.945   2.247  0.1846  1.3041  1.1846
  571SOL     OW 2496   2.833   0.186   0.875 -0.4852 -0.2363 -0.2778
  571SOL    HW1 2497   2.902   0.157   0.815  0.3817  0.0009  0.5796
  571SOL    HW2 2498   2.823   0.114   0.937  0.6773  0.6515  1.0081
  572SOL     OW 2499   0.630   2.954   2.509  0.1923  0.4940 -1.0678
  572SOL    HW1 2500   0.610   2.861   2.520 -0.5195  0.6842 -0.6578
  572SOL    HW2 2501   0.544   2.997   2.513  0.7310  1.6282  3.1767
  573SOL     OW 2502   1.853   1.576   0.488 -0.0514  0.4769 -0.1558
  573SOL    HW1 2503   1.943   1.585   0.457  0.8249  2.0122  2.4935
  573SOL    HW2 2504   1.825   1.666   0.505 -1.8670 -0.0176 -0.3254
  574SOL     OW 2505   0.871   2.862   2.106 -0.3075 -0.3317  0.1835
  574SOL    HW1 2506   0.948   2.889   2.056 -1.2978 -0.9459 -1.7592
  574SOL    HW2 2507   0.862   2.930   2.173  0.8105  0.7869 -0.7386
  575SOL     OW 2508   0.476   3.131   1.659 -0.0582  0.0690 -0.7448
  575SOL    HW1 2509   0.391   3.118   1.702  0.5651  1.5713  1.1025
  575SOL    HW2 2510   0.479   3.225   1.640  0.6527 -0.1935 -2.0405
  576SOL     OW 2511   0.879   1.935   2.249  0.0081 -0.4572  0.0259
  576SOL    HW1 2512   0.909   2.024   2.234  0.7882 -0.1357  2.8372
  576SOL    HW2 2513   0.784   1.938   2.236  0.2589  0.2662 -1.8390
  577SOL     OW 2514   3.133   0.125   3.108  0.2330 -0.0312  0.9002
  577SOL    HW1 2515   3.176   0.127   3.023 -0.0306  2.0370  0.7640
  577SOL    HW2 2516   3.048   0.167   3.093  0.6851  1.5553  2.3996
  578SOL     OW 2517   0.852   1.404   1.139  0.1446 -0.2960 -0.0027
  578SOL    HW1 2518   0.805   1.321   1.127 -0.7613  0.3939 -1.6975
  578SOL    HW2 2519   0.929   1.396   1.082 -0.1385  0.1296 -0.4633
  579SOL     OW 2520   0.968   1.463   1.365  0.3509  0.1305 -0.0018
  579SOL    HW1 2521   0.952   1.389   1.424 -0.0490 -1.2505 -1.7752
  579SOL    HW2 2522   0.907   1.450   1.292 -0.5888  2.8887  0.1779
  580SOL     OW 2523   0.987   2.385   2.453  0.6369 -0.6342 -0.1709
  580SOL    HW1 2524   1.000   2.399   2.547  1.3801 -0.0371 -0.3484
  580SOL    HW2 2525   1.001   2.472   2.414  0.0675 -0.8222 -0.8046
  581SOL     OW 2526   2.276   0.594   1.146 -0.0462 -0.2344 -0.0293
  581SOL    HW1 2527   2.336   0.523   1.169 -0.8044 -1.0011 -0.4001
  581SOL    HW2 2528   2.189   0.555   1.152 -0.4641  0.6314 -0.3671
  582SOL     OW 2529   3.280   2.195   3.087  0.5882 -0.5993 -0.4896
  582SOL    HW1 2530   3.359   2.249   3.079  0.9454 -1.1179 -0.5419
  582SOL    HW2 2531   3.259   2.198   3.181 -0.5080  1.1647 -0.7574
  583SOL     OW 2532   3.012   2.772   2.285  0.2709 -0.4246  0.4117
  583SOL    HW1 2533   3.076   2.752   2.352  0.3448 -0.1717  0.4192
  583SOL    HW2 2534   2.939   2.813   2.332  1.1360  1.5739  0.1351
  584SOL     OW 2535   0.678   1.467   0.263  0.0356  0.0266  0.1728
  584SOL    HW1 2536   0.704   1.398   0.324  0.3274 -0.5820 -0.6164
  584SOL    HW2 2537   0.586   1.449   0.243 -0.2355  0.5813  0.8824
  585SOL     OW 2538   1.049   1.727   0.032 -0.2872  0.0055 -0.0214
  585SOL    HW1 2539   1.123   1.741  -0.026 -1.1848 -4.5007 -2.7089
  585SOL    HW2 2540   1.084   1.678   0.106 -0.2224 -0.2382 -0.2134
  586SOL     OW 2541   1.340   1.495   0.422  0.2153 -0.2012 -0.0914
  586SOL    HW1 2542   1.335   1.541   0.339  1.0571  1.1696  0.5791
  586SOL    HW2 2543   1.373   1.561   0.484 -0.0491 -1.2798  1.2451
  587SOL     OW 2544   1.379   3.170   2.968 -0.1808  0.3252 -0.0359
  587SOL    HW1 2545   1.438   3.245   2.972 -0.2629  0.4434 -0.8399
  587SOL    HW2 2546   1.294   3.205   2.996  0.0223  0.2527  0.7067
  588SOL     OW 2547   2.794   2.271   1.283  0.0158 -0.1453 -0.0074
  588SOL    HW1 2548   2.830   2.184   1.265  0.1307  0.2329 -1.8380
  588SOL    HW2 2549   2.705   2.254   1.314  1.4493 -1.0671  4.1256
  589SOL     OW 2550   0.028   0.764   0.638 -0.9962 -0.0239  0.0279
  589SOL    HW1 2551  -0.011   0.765   0.726 -2.1521  0.3637 -0.4712
  589SOL    HW2 2552   0.027   0.855   0.610 -0.5634 -0.1375 -0.3613
  590SOL     OW 2553   2.797   2.876   2.438  0.0653  0.2428  0.3275
  590SOL    HW1 2554   2.705   2.865   2.416  0.5042  0.4659 -1.9172
  590SOL    HW2 2555   2.824   2.954   2.390  1.4054  0.2504  1.0348
  591SOL     OW 2556   1.993   2.284   0.404 -0.0157 -0.8241  0.5479
  591SOL    HW1 2557   1.980   2.278   0.309 -1.6375 -0.5750  0.7158
  591SOL    HW2 2558   1.932   2.219   0.439 -2.1201  1.5313  1.5320
  592SOL     OW 2559   0.465   2.244   2.786  0.3127 -0.0464  0.0756
  592SOL    HW1 2560   0.501   2.253   2.874 -1.4480  1.7644  0.7021
  592SOL    HW2 2561   0.378   2.206   2.800  0.2261 -0.2461 -0.9357
  593SOL     OW 2562   2.274   0.205   1.078 -0.2953 -0.1888 -0.3568
  593SOL    HW1 2563   2.243   0.151   1.005 -0.5077  0.8453 -1.0604
  593SOL    HW2 2564   2.201   0.206   1.139  0.3348 -2.0817  0.4912
  594SOL     OW 2565   2.043   0.475   1.050  0.2712  0.0030  0.0591
  594SOL    HW1 2566   1.977   0.422   1.096  1.2833 -1.2765  0.0914
  594SOL    HW2 2567   1.997   0.556   1.026 -0.4580  0.4698  2.7678
  595SOL     OW 2568   1.679   3.025   1.532  0.4813 -0.4626 -0.4463
  595SOL    HW1 2569   1.595   2.985   1.508  0.1389  0.3277 -0.5712
  595SOL    HW2 2570   1.677   3.032   1.627 -0.4378  1.3502 -0.5605
  596SOL     OW 2571   1.880   1.916   2.300  0.1390 -0.0723  0.0913
  596SOL    HW1 2572   1.938   1.947   2.369 -0.0177 -1.3482  0.8256
  596SOL    HW2 2573   1.855   1.995   2.252  1.2058  0.6827  0.7469
  597SOL     OW 2574   2.838   2.813   1.521  0.0765  0.2808  0.1332
  597SOL    HW1 2575   2.823   2.854   1.436 -0.9829  2.6037  1.3570
  597SOL    HW2 2576   2.932   2.825   1.538  0.1525  0.4313 -0.3897
  598SOL     OW 2577   1.365   2.546   2.871  0.2576 -0.0664 -0.2224
  598SOL    HW1 2578   1.456   2.570   2.889 -0.2463  2.0354 -0.2128
  598SOL    HW2 2579   1.369   2.490   2.794  1.7663 -2.4801  1.4532
  599SOL     OW 2580   2.786   1.555   0.311 -0.0143  0.0368 -0.7945
  599SOL    HW1 2581   2.865   1.503   0.327  1.1530  1.7339 -0.6979
  599SOL    HW2 2582   2.717   1.491   0.296  0.8357 -1.5718  1.5823
  600SOL     OW 2583   2.928   2.041   1.258  1.0479 -0.1044 -0.1698
  600SOL    HW1 2584   2.996   1.987   1.218 -0.4516 -1.4793 -0.9938
  600SOL    HW2 2585   2.873   1.979   1.306  0.5378  1.0034  0.7353
  601SOL     OW 2586   1.778   1.832   0.519  0.1007  0.4006  0.1569
  601SOL    HW1 2587   1.730   1.914   0.528 -1.0803 -0.2249 -0.2930
  601SOL    HW2 2588   1.845   1.851   0.453 -2.5075  0.0337 -2.7886
  602SOL     OW 2589   2.653   2.667   3.207 -0.2792  0.2202 -0.4839
  602SOL    HW1 2590   2.559   2.678   3.225 -0.3083 -0.9789  0.2303
  602SOL    HW2 2591   2.674   2.738   3.147 -1.0198  2.2609  1.5103
  603SOL     OW 2592   2.802   1.080   0.845  1.0586  0.0866  0.0893
  603SOL    HW1 2593   2.817   1.004   0.789  0.8457 -0.0358  0.1979
  603SOL    HW2 2594   2.844   1.152   0.799 -1.7878  0.6626 -1.8862
  604SOL     OW 2595   2.036   0.380   0.125  0.2616  0.4934 -0.4077
  604SOL    HW1 2596   2.063   0.322   0.197 -0.7997  1.2805  0.6554
  604SOL    HW2 2597   2.100   0.362   0.056  0.7043 -1.0384  0.3368
  605SOL     OW 2598   0.710   3.211   2.154 -0.5414 -0.1783  0.0184
  605SOL    HW1 2599   0.697   3.303   2.130  2.5249 -0.0059 -1.4192
  605SOL    HW2 2600   0.681   3.162   2.077  0.2782 -0.2328 -0.2614
  606SOL     OW 2601   2.212   1.799   0.217  0.6903  0.2277 -0.2774
  606SOL    HW1 2602   2.146   1.764   0.157  0.3849 -0.0138  0.1941
  606SOL    HW2 2603   2.202   1.894   0.210  0.5066  0.1961 -0.4496
  607SOL     OW 2604   1.405   2.532   1.122 -0.6109  0.2771  0.0272
  607SOL    HW1 2605   1.379   2.541   1.213  0.0691  0.5201  0.2031
  607SOL    HW2 2606   1.336   2.480   1.082 -0.6386 -0.3047  0.8091
  608SOL     OW 2607   2.129   2.661   3.101 -0.3950 -0.7375  1.2614
  608SOL    HW1 2608   2.088   2.659   3.188 -1.0658 -1.1614  0.9419
  608SOL    HW2 2609   2.222   2.646   3.119 -0.4308 -0.2159  1.9560
  609SOL     OW 2610   1.722   0.854   0.169  0.4980 -0.4285 -0.0743
  609SOL    HW1 2611   1.716   0.807   0.253  1.1121  0.1832  0.3228
  609SOL    HW2 2612   1.695   0.789   0.104 -2.3099 -0.2438  0.7715
  610SOL     OW 2613   0.044   1.369   0.390 -0.3747 -0.3580  0.8648
  610SOL    HW1 2614  -0.003   1.321   0.457  0.2164 -0.3731  1.2720
  610SOL    HW2 2615  -0.011   1.445   0.372 -1.5841 -1.4269 -0.1708
  611SOL     OW 2616   1.856   2.117   0.226 -0.4577 -0.2747  0.0153
  611SOL    HW1 2617   1.895   2.090   0.143  3.8545  1.2218  1.2438
  611SOL    HW2 2618   1.898   2.060   0.291  0.1472  1.7910  1.5339
  612SOL     OW 2619   0.525   3.097   2.958 -0.4445  0.5011 -0.1773
  612SOL    HW1 2620   0.441   3.090   2.912  0.8045  0.0134 -2.5404
  612SOL    HW2 2621   0.553   3.006   2.969  0.6655  0.6969 -1.2190
  613SOL     OW 2622   2.398   2.600   3.090 -0.2677 -0.8187  0.5525
  613SOL    HW1 2623   2.465   2.621   3.024 -1.0670  1.4512  0.3677
  613SOL    HW2 2624   2.353   2.523   3.055  0.8390 -1.0795 -0.3742
  614SOL     OW 2625   2.775   1.915   1.721 -0.2736 -0.6662  0.4463
  614SOL    HW1 2626   2.718   1.971   1.773 -0.4379 -0.6383  0.2360
  614SOL    HW2 2627   2.860   1.920   1.765 -0.4680 -0.8202  0.8412
  615SOL     OW 2628   1.362   0.339   0.277 -0.4564  0.1058  0.0391
  615SOL    HW1 2629   1.400   0.425   0.262 -0.0374  0.6130  3.2436
  615SOL    HW2 2630   1.268   0.353   0.273 -0.3830  0.5998 -0.0405
  616SOL     OW 2631   1.592   2.576   1.697 -0.2744  0.1040 -0.3690
  616SOL    HW1 2632   1.563   2.633   1.768 -0.8234 -0.3461 -0.2231
  616SOL    HW2 2633   1.646   2.510   1.741  0.6367  0.6899 -0.5813
  617SOL     OW 2634   2.646   1.793   0.051 -0.0375  0.0436 -0.5681
  617SOL    HW1 2635   2.658   1.833   0.137 -0.7293 -2.5933  0.8568
  617SOL    HW2 2636   2.734   1.770   0.022  0.1684  0.5997 -0.3831
  618SOL     OW 2637   2.811   3.171   1.855 -0.5767  0.0119  0.4411
  618SOL    HW1 2638   2.766   3.111   1.914 -0.7645 -2.3160 -1.9135
  618SOL    HW2 2639   2.901   3.175   1.888 -1.0249 -0.0569  1.7019
  619SOL     OW 2640   3.311   3.303   3.186  0.9193  0.3009 -0.4141
  619SOL    HW1 2641   3.366   3.303   3.264 -0.8779 -3.6713  1.1721
  619SOL    HW2 2642   3.256   3.380   3.194  4.2502  2.9104 -0.6997
  620SOL     OW 2643   2.036   1.739   1.480 -0.8497 -0.0940 -0.2210
  620SOL    HW1 2644   1.996   1.739   1.393 -1.4544  2.7048 -0.0126
  620SOL    HW2 2645   2.130   1.728   1.462 -0.9140  0.9057 -1.2899
  621SOL     OW 2646   0.442   1.388   0.123 -0.5787  0.2032  0.0870
  621SOL    HW1 2647   0.381   1.414   0.191 -2.0102 -0.9305 -0.7212
  621SOL    HW2 2648   0.415   1.300   0.098  0.2127  0.3877 -1.5997
  622SOL     OW 2649   0.623   1.616   1.202 -0.2309 -0.0854 -0.2775
  622SOL    HW1 2650   0.549   1.571   1.160 -1.0339 -1.0849  2.0475
  622SOL    HW2 2651   0.690   1.549   1.211 -0.5172 -0.2268  1.0295
  623SOL     OW 2652   1.929   1.965   1.622 -0.0467  0.0769 -0.1044
  623SOL    HW1 2653   1.904   1.883   1.579  2.4689 -0.1883 -1.2189
  623SOL    HW2 2654   1.941   2.027   1.550  0.2135  0.8269  0.5703
  624SOL     OW 2655   0.278   2.204   3.128 -0.3143 -0.8115  0.5804
  624SOL    HW1 2656   0.373   2.208   3.125 -0.2405 -1.8685  1.2586
  624SOL    HW2 2657   0.250   2.296   3.131  0.5823 -0.3975 -1.6621
  625SOL     OW 2658   3.244   1.562   0.362 -0.0693  0.1081  0.1548
  625SOL    HW1 2659   3.252   1.611   0.280  0.7720 -0.2111  0.0310
  625SOL    HW2 2660   3.187   1.615   0.417 -0.2894  0.5381 -0.4837
  626SOL     OW 2661   3.355   2.601   1.785  0.4549  0.0215 -0.1359
  626SOL    HW1 2662   3.263   2.575   1.790  0.3606  0.2498 -0.5950
  626SOL    HW2 2663   3.403   2.518   1.783  0.2930 -0.0955  0.5878
  627SOL     OW 2664   0.734   1.014   1.668 -0.1757 -0.3669 -0.4018
  627SOL    HW1 2665   0.728   0.944   1.733 -1.2908 -0.0454 -0.1409
  627SOL    HW2 2666   0.798   0.982   1.604  2.8105  0.3090  2.0273
  628SOL     OW 2667   3.073   0.058   1.473  0.1400 -0.0919  0.2142
  628SOL    HW1 2668   2.996   0.003   1.459 -0.6923  1.0402  0.2031
  628SOL    HW2 2669   3.121   0.014   1.544 -1.0329 -0.2803  0.9175
  629SOL     OW 2670   2.854   1.376   1.242  0.3059  0.3645 -0.2497
  629SOL    HW1 2671   2.769   1.333   1.233  0.3314  0.4203 -0.7807
  629SOL    HW2 2672   2.911   1.309   1.279 -0.5254  0.9912  2.3992
  630SOL     OW 2673   2.824   0.879   0.662  0.0182  0.1729  0.3380
  630SOL    HW1 2674   2.835   0.952   0.602  0.2271  0.0126  0.1781
  630SOL    HW2 2675   2.754   0.826   0.623  0.9027 -0.5193 -0.3613
  631SOL     OW 2676   3.329   2.908   1.443  0.1029  0.2527 -0.3478
  631SOL    HW1 2677   3.402   2.888   1.384  0.2101  1.2621 -0.5686
  631SOL    HW2 2678   3.371   2.949   1.519 -0.1181 -0.3214  0.0951
  632SOL     OW 2679   1.206   2.618   2.094 -0.5517  0.3842  0.6778
  632SOL    HW1 2680   1.284   2.658   2.131  0.1118 -0.3403  0.1182
  632SOL    HW2 2681   1.169   2.684   2.036 -0.4568  0.7967  1.0882
  633SOL     OW 2682   3.227   1.406   1.466  0.0879  0.6051 -0.5038
  633SOL    HW1 2683   3.166   1.399   1.539  1.1077  0.0765  0.3287
  633SOL    HW2 2684   3.269   1.491   1.477  0.3826  0.4409 -0.3669
  634SOL     OW 2685   2.112   0.196   1.325 -0.5500 -0.3822 -0.4030
  634SOL    HW1 2686   2.134   0.243   1.406  0.3736  1.3198 -1.5839
  634SOL    HW2 2687   2.100   0.105   1.353  0.4293  0.0260  1.5349
  635SOL     OW 2688   0.387   0.721   1.005  0.1399 -0.0340 -0.2812
  635SOL    HW1 2689   0.296   0.751   1.006 -0.7581 -2.5418 -0.0625
  635SOL    HW2 2690   0.407   0.712   0.911  0.4237  1.1808 -0.3486
  636SOL     OW 2691   1.410   2.515   0.018  0.0453 -0.3809 -0.0983
  636SOL    HW1 2692   1.408   2.587  -0.044 -2.0777 -0.1161  0.1921
  636SOL    HW2 2693   1.354   2.448  -0.022 -0.0118 -0.8592  0.7576
  637SOL     OW 2694   1.089   0.058   1.816  0.2534 -0.0861 -0.1292
  637SOL    HW1 2695   1.119  -0.033   1.813  1.3461  0.2715 -0.7454
  637SOL    HW2 2696   1.160   0.104   1.860  0.4314  0.7272 -1.2448
  638SOL     OW 2697   0.556   0.683   1.494 -0.0991 -0.3038  0.8551
  638SOL    HW1 2698   0.573   0.702   1.586  0.5871  2.0914  0.3008
  638SOL    HW2 2699   0.642   0.665   1.456 -0.0924  0.7948  0.2962
  639SOL     OW 2700   0.719   2.696   0.047  0.6300 -0.9202 -0.2512
  639SOL    HW1 2701   0.626   2.702   0.068  1.0559  1.0379  1.3429
  639SOL    HW2 2702   0.753   2.629   0.107  0.5377 -0.4707  0.3078
  640SOL     OW 2703   2.166   0.056   3.124  0.5759  0.8047  0.1928
  640SOL    HW1 2704   2.073   0.073   3.138  0.6313  1.0652  0.2429
  640SOL    HW2 2705   2.206   0.064   3.211  0.2169 -2.1755  0.7464
  641SOL     OW 2706   0.986   1.735   0.622  0.0314  0.0047  0.6597
  641SOL    HW1 2707   1.010   1.652   0.580  1.3343  1.5386 -1.8727
  641SOL    HW2 2708   0.909   1.764   0.574 -0.4553  0.2779  1.5778
  642SOL     OW 2709   0.123   2.487   2.039  0.0487 -0.0718 -0.4645
  642SOL    HW1 2710   0.049   2.441   1.999  0.5089 -0.0580 -1.3716
  642SOL    HW2 2711   0.194   2.422   2.040 -0.7120 -1.0606  3.0727
  643SOL     OW 2712   1.624   1.950   1.597  0.3054 -0.3227 -0.3889
  643SOL    HW1 2713   1.631   2.046   1.594  0.5314 -0.2732  1.0707
  643SOL    HW2 2714   1.683   1.920   1.528  1.5027  0.5683  0.1973
  644SOL     OW 2715   0.794   0.664   0.110 -0.6444  0.0416 -0.3051
  644SOL    HW1 2716   0.838   0.737   0.066 -0.4768  0.9552  1.3048
  644SOL    HW2 2717   0.808   0.589   0.052  1.8415  0.5918 -0.5365
  645SOL     OW 2718   0.771   0.638   1.340  0.1367  0.1567 -1.0707
  645SOL    HW1 2719   0.804   0.560   1.384  1.0099  1.6857  1.2207
  645SOL    HW2 2720   0.705   0.606   1.278  0.0253 -2.3044  0.2154
  646SOL     OW 2721   0.112   1.936   2.738  0.1535  0.0804 -0.0585
  646SOL    HW1 2722   0.107   1.913   2.645 -0.4449  1.0335 -0.2740
  646SOL    HW2 2723   0.176   2.007   2.742 -0.8606  1.0138  0.0440
  647SOL     OW 2724   0.954   1.486   0.495 -0.3236 -0.4211  0.2047
  647SOL    HW1 2725   0.878   1.429   0.499 -0.5200 -0.2373 -0.7284
  647SOL    HW2 2726   1.024   1.432   0.458  0.2669 -0.8436  1.8274
  648SOL     OW 2727   1.035   2.813   2.698 -0.5686 -0.7721 -0.0060
  648SOL    HW1 2728   1.050   2.852   2.612  1.4338 -2.2005 -0.3718
  648SOL    HW2 2729   0.957   2.759   2.687  0.3893 -1.9387 -1.3227
  649SOL     OW 2730   1.695   2.301   1.356 -0.0722 -0.2727  0.1077
  649SOL    HW1 2731   1.665   2.329   1.270  0.8854 -0.5486 -0.3335
  649SOL    HW2 2732   1.790   2.291   1.347  0.0565 -0.2503  1.2105
  650SOL     OW 2733   2.950   1.790   0.305 -0.2583 -0.6463  0.0959
  650SOL    HW1 2734   2.889   1.717   0.296 -0.9535 -0.1858  0.9865
  650SOL    HW2 2735   2.976   1.810   0.214 -1.7931 -0.5494 -0.3465
  651SOL     OW 2736   2.596   1.639   0.972  0.6916  0.1140 -0.1398
  651SOL    HW1 2737   2.623   1.547   0.973  0.1042 -0.0605 -0.1942
  651SOL    HW2 2738   2.600   1.664   0.880  1.5999  0.3731 -0.0419
  652SOL     OW 2739   0.558   3.375   2.882 -0.0686  0.0906  0.5166
  652SOL    HW1 2740   0.495   3.318   2.926  1.1220 -1.0755  0.7745
  652SOL    HW2 2741   0.544   3.358   2.789 -0.3685  0.0956  0.5599
  653SOL     OW 2742   3.319   1.711   0.154 -0.7470 -0.1610  0.0924
  653SOL    HW1 2743   3.391   1.753   0.202 -0.6749 -1.5441  1.2647
  653SOL    HW2 2744   3.307   1.766   0.076 -0.2950  1.6747  1.2538
  654SOL     OW 2745   2.582   1.835   1.551 -0.2721  0.1922  1.0032
  654SOL    HW1 2746   2.519   1.906   1.540  0.3202  0.4518 -1.1609
  654SOL    HW2 2747   2.653   1.874   1.603  0.3828  1.4632 -0.7518
  655SOL     OW 2748   3.023   2.365   2.124 -0.9385  0.4766 -0.3459
  655SOL    HW1 2749   2.931   2.340   2.116 -1.0001  0.4461  0.3734
  655SOL    HW2 2750   3.023   2.459   2.108 -0.9194  0.2884 -1.5355
  656SOL     OW 2751   1.624   2.209   1.595 -0.2033 -0.4650  0.1097
  656SOL    HW1 2752   1.644   2.229   1.504  2.3692 -1.8909  0.2868
  656SOL    HW2 2753   1.682   2.266   1.645  2.9394 -3.7836  0.6669
  657SOL     OW 2754   1.070   3.152   2.542  0.0841  0.1928  0.3325
  657SOL    HW1 2755   1.142   3.132   2.602  1.8071  2.7059 -0.7340
  657SOL    HW2 2756   1.013   3.211   2.591 -1.3130 -1.6903  1.1285
  658SOL     OW 2757   0.282   2.733   2.630 -0.4910  0.0586 -0.0271
  658SOL    HW1 2758   0.355   2.729   2.569 -1.1164  1.7290 -0.9646
  658SOL    HW2 2759   0.280   2.647   2.671 -0.1171 -1.2096 -2.4800
  659SOL     OW 2760   2.615   2.058   0.377  0.5852  0.1836  0.2858
  659SOL    HW1 2761   2.664   2.134   0.408 -0.5930  1.0819  0.0215
  659SOL    HW2 2762   2.542   2.095   0.327 -0.4667 -1.0817  0.8100
  660SOL     OW 2763   3.208   3.325   1.676 -0.2306 -0.0763 -0.0244
  660SOL    HW1 2764   3.170   3.354   1.759  0.3314 -0.1416  0.2590
  660SOL    HW2 2765   3.302   3.317   1.694 -0.3477 -2.0770 -0.0784
  661SOL     OW 2766   0.143   2.645   1.561 -0.1209  0.4307  0.1060
  661SOL    HW1 2767   0.163   2.559   1.525 -0.5329  0.6494 -0.6871
  661SOL    HW2 2768   0.072   2.630   1.623  0.1137  0.1394  0.3054
  662SOL     OW 2769   1.757   3.210   0.070 -0.0508  0.3964  0.0537
  662SOL    HW1 2770   1.703   3.183   0.144 -0.1776  1.7933  0.4996
  662SOL    HW2 2771   1.845   3.217   0.104 -0.0480  0.6951 -0.0086
  663SOL     OW 2772   1.078   0.155   0.997  0.1460  0.2817  0.1770
  663SOL    HW1 2773   1.114   0.202   0.922 -1.4157 -0.2723 -0.9923
  663SOL    HW2 2774   1.135   0.178   1.070  2.3951 -0.0209 -1.3820
  664SOL     OW 2775   0.554   1.508   0.797  0.1717 -0.1616 -0.2317
  664SOL    HW1 2776   0.590   1.594   0.820  3.0908 -1.0535 -1.1016
  664SOL    HW2 2777   0.505   1.481   0.875  0.9838  1.3522  0.8610
  665SOL     OW 2778   1.363   2.230   1.728 -0.1303 -0.0891 -0.0872
  665SOL    HW1 2779   1.438   2.233   1.669 -0.0891  0.2715 -0.0143
  665SOL    HW2 2780   1.399   2.200   1.811 -0.3541 -1.6007 -0.5022
  666SOL     OW 2781   0.359   1.473   1.527 -0.1577 -0.2559 -0.4672
  666SOL    HW1 2782   0.426   1.530   1.490 -2.1908  1.1729 -2.1810
  666SOL    HW2 2783   0.338   1.511   1.612  0.3679 -0.0081 -0.4502
  667SOL     OW 2784   1.201   0.546   0.117 -0.5353  0.2052 -0.2228
  667SOL    HW1 2785   1.291   0.513   0.109 -0.0865 -0.8074  5.1569
  667SOL    HW2 2786   1.209   0.640   0.099  1.7853  0.2292  0.5507
  668SOL     OW 2787   0.577   1.217   1.760 -0.5381  0.4671  0.3272
  668SOL    HW1 2788   0.652   1.263   1.797 -0.6720  0.1015  1.0629
  668SOL    HW2 2789   0.614   1.139   1.719 -0.6291 -0.3687  1.7757
  669SOL     OW 2790   1.780   1.029   0.724  0.0737 -0.2733 -0.3295
  669SOL    HW1 2791   1.745   1.046   0.636  0.5136  0.5837 -0.3492
  669SOL    HW2 2792   1.875   1.024   0.711  0.1406 -0.1300  0.0963
  670SOL     OW 2793   0.202   3.106   1.754  0.3756 -0.1044  0.1329
  670SOL    HW1 2794   0.185   3.022   1.797 -2.4068  0.5226  0.4453
  670SOL    HW2 2795   0.180   3.171   1.821  2.3962  0.9265 -0.1335
  671SOL     OW 2796   1.474   1.974   0.722 -0.8072 -0.3829  0.7282
  671SOL    HW1 2797   1.482   1.955   0.629  1.1259 -0.9691  0.9766
  671SOL    HW2 2798   1.462   2.069   0.726 -2.0239 -0.4758 -0.1369
  672SOL     OW 2799   0.267   2.054   2.139 -0.7298  0.5728 -0.1808
  672SOL    HW1 2800   0.301   2.102   2.215  0.2849 -0.4894  0.0526
  672SOL    HW2 2801   0.177   2.031   2.164 -0.2205 -0.2607  0.9580
  673SOL     OW 2802   2.652   3.029   1.369 -0.1481 -0.4430 -0.3835
  673SOL    HW1 2803   2.595   3.103   1.389 -0.6109 -0.9377  0.1434
  673SOL    HW2 2804   2.726   3.039   1.430  0.8973  0.7961 -1.7758
  674SOL     OW 2805   1.902   0.369   2.213  0.3528  0.0486  0.6422
  674SOL    HW1 2806   1.930   0.417   2.292 -3.1607  3.1103  0.3211
  674SOL    HW2 2807   1.895   0.437   2.146  3.1163 -2.4221 -2.5229
  675SOL     OW 2808   1.558   1.010   0.286  0.4261 -0.5490 -0.0556
  675SOL    HW1 2809   1.628   0.951   0.260 -0.8015 -2.6249  1.0744
  675SOL    HW2 2810   1.594   1.060   0.360  0.8260 -1.3752  0.3164
  676SOL     OW 2811   2.968   2.085   2.709  0.1949 -0.1176 -0.3879
  676SOL    HW1 2812   3.055   2.044   2.703 -0.1944 -0.9300 -0.5662
  676SOL    HW2 2813   2.908   2.011   2.721 -0.2649  0.5699  1.9763
  677SOL     OW 2814   0.005   1.631   1.415 -0.3241 -0.3271  0.0384
  677SOL    HW1 2815   0.082   1.666   1.460  0.0548  0.3248 -1.0863
  677SOL    HW2 2816  -0.061   1.700   1.423 -0.7700 -0.8261  0.8767
  678SOL     OW 2817   2.101   2.052   3.119  0.6750  0.4782  0.1117
  678SOL    HW1 2818   2.149   2.102   3.185  1.8182  0.8171 -0.9563
  678SOL    HW2 2819   2.142   2.075   3.036  0.3830 -1.2592 -0.5568
  679SOL     OW 2820   3.244   1.428   1.148 -0.2974  0.6110 -0.2922
  679SOL    HW1 2821   3.157   1.389   1.138  0.3066 -1.2999  1.2136
  679SOL    HW2 2822   3.242   1.468   1.235  0.5637 -0.2017  0.1203
  680SOL     OW 2823   2.770   2.417   2.891  0.2067  0.3557  0.2296
  680SOL    HW1 2824   2.811   2.352   2.949 -1.0401  0.6054  1.4261
  680SOL    HW2 2825   2.753   2.369   2.810  1.4882 -0.1465  0.2325
  681SOL     OW 2826   1.236   1.951   2.260 -0.0338 -0.3854  0.5203
  681SOL    HW1 2827   1.192   2.033   2.237  1.1650  0.4561  1.0841
  681SOL    HW2 2828   1.256   1.910   2.175  0.6303  0.6289  0.1578
  682SOL     OW 2829   0.788   3.240   1.555 -0.3315  0.5886 -0.2939
  682SOL    HW1 2830   0.874   3.277   1.576  1.5949 -3.0348 -0.8729
  682SOL    HW2 2831   0.733   3.315   1.535  3.0157  3.0633 -1.0166
  683SOL     OW 2832   1.227   0.212   1.611 -0.5205  0.2588  0.2930
  683SOL    HW1 2833   1.254   0.120   1.600 -0.9176  0.0646  0.8789
  683SOL    HW2 2834   1.267   0.257   1.537  1.9270  0.1170  1.4308
  684SOL     OW 2835   1.787   2.359   1.786 -0.6631  0.1412 -0.1452
  684SOL    HW1 2836   1.856   2.389   1.845  0.2230  0.6193 -1.3921
  684SOL    HW2 2837   1.743   2.289   1.834 -0.0575  0.6073  1.1278
  685SOL     OW 2838   1.956   2.792   2.175 -0.9717  0.3879  0.3167
  685SOL    HW1 2839   2.034   2.843   2.151 -0.5708 -0.9892 -1.6092
  685SOL    HW2 2840   1.883   2.839   2.136 -0.9720  1.0237  1.0651
  686SOL     OW 2841   0.187   0.420   1.277  0.3647 -0.1578 -0.4527
  686SOL    HW1 2842   0.120   0.401   1.343 -0.0094 -0.6496 -0.9559
  686SOL    HW2 2843   0.230   0.500   1.308  0.4902 -0.6161  0.5954
  687SOL     OW 2844   2.090   3.378   1.017 -0.1174 -0.5155  0.3247
  687SOL    HW1 2845   2.063   3.292   0.985 -2.2224 -0.3808  1.5580
  687SOL    HW2 2846   2.026   3.439   0.979  0.6818  0.3791  0.3627
  688SOL     OW 2847   3.352   0.531   0.421  0.2930  0.6551 -0.0945
  688SOL    HW1 2848   3.437   0.542   0.379 -0.6879 -1.2141 -2.8762
  688SOL    HW2 2849   3.303   0.609   0.396  0.3381  0.4498 -0.8591
  689SOL     OW 2850   3.178   0.233   1.305  0.0398 -0.6363 -0.4378
  689SOL    HW1 2851   3.149   0.156   1.353  0.1974 -0.3308  0.1625
  689SOL    HW2 2852   3.189   0.203   1.215  0.0081 -1.2883 -0.2281
  690SOL     OW 2853   0.656   0.956   1.264 -0.0896 -0.4698  0.1503
  690SOL    HW1 2854   0.651   0.860   1.256  1.0684 -0.4135 -2.0705
  690SOL    HW2 2855   0.571   0.981   1.300 -0.3826 -2.3369  0.8986
  691SOL     OW 2856   1.982   1.336   0.897  0.0040  0.6517  0.1178
  691SOL    HW1 2857   2.076   1.316   0.898 -0.0825  0.0335 -1.2195
  691SOL    HW2 2858   1.974   1.412   0.840 -0.3881  0.1075 -0.5732
  692SOL     OW 2859   0.277   1.719   1.028  0.3565  0.2625 -0.2755
  692SOL    HW1 2860   0.328   1.639   1.041 -0.4873 -0.4346 -1.1080
  692SOL    HW2 2861   0.188   1.694   1.052 -0.1236  0.6156 -1.6231
  693SOL     OW 2862   1.100   1.517   2.297  0.0701 -0.0387 -0.1819
  693SOL    HW1 2863   1.069   1.585   2.356  0.3083  0.9402 -1.1443
  693SOL    HW2 2864   1.035   1.447   2.306  0.1145  0.0717  1.2241
  694SOL     OW 2865   0.849   1.390   0.056  0.2101  0.3938  0.1110
  694SOL    HW1 2866   0.811   1.446   0.124 -1.3406  0.4335 -0.7298
  694SOL    HW2 2867   0.806   1.305   0.068 -0.8017  0.6562 -1.3369
  695SOL     OW 2868   0.618   3.092   1.924 -0.0406  0.2388 -0.2379
  695SOL    HW1 2869   0.624   3.126   1.835  0.0866  2.7960  0.6648
  695SOL    HW2 2870   0.598   2.999   1.913 -0.4757  0.5739 -2.9072
  696SOL     OW 2871   1.249   3.084   2.722 -0.6150 -0.3245  0.3663
  696SOL    HW1 2872   1.281   3.118   2.806  0.3010 -0.6050  0.1374
  696SOL    HW2 2873   1.235   2.990   2.738  0.7284 -0.6205 -0.1237
  697SOL     OW 2874   2.311   1.772   1.296 -0.2937 -0.1813  0.2607
  697SOL    HW1 2875   2.381   1.802   1.238  1.4622 -0.9202  1.8890
  697SOL    HW2 2876   2.280   1.852   1.339  0.3050  0.0344  0.2980
  698SOL     OW 2877   3.105   2.368   2.977  0.1268 -0.1700 -0.0124
  698SOL    HW1 2878   3.079   2.364   2.885  1.5804  0.7218 -0.4869
  698SOL    HW2 2879   3.143   2.282   2.995 -0.7600 -0.5788 -0.0370
  699SOL     OW 2880   1.990   3.119   0.957  0.7316 -1.0419 -0.3764
  699SOL    HW1 2881   1.998   3.072   0.874  1.3063  0.2448 -1.0840
  699SOL    HW2 2882   1.898   3.108   0.982 -0.6869  2.0365 -3.4192
  700SOL     OW 2883   2.097   1.885   0.687 -0.2269  0.1467  0.5192
  700SOL    HW1 2884   2.043   1.958   0.718  0.2262 -0.1273  2.0780
  700SOL    HW2 2885   2.062   1.809   0.734  2.1726  0.1423  2.4800
  701SOL     OW 2886   2.077   2.329   3.191 -0.1103  0.6039  0.3085
  701SOL    HW1 2887   2.107   2.419   3.204 -0.0335  0.8123 -1.0717
  701SOL    HW2 2888   2.025   2.334   3.110  0.3040 -0.6779 -0.0475
  702SOL     OW 2889   0.091   2.067   3.294 -0.0624  0.5493  0.0838
  702SOL    HW1 2890   0.089   2.002   3.224 -0.2162  0.6648 -0.0182
  702SOL    HW2 2891   0.123   2.147   3.253 -0.6447  0.7579  0.0283
  703SOL     OW 2892   0.018   0.062   2.085 -0.1665 -0.5861  0.0644
  703SOL    HW1 2893  -0.070   0.096   2.099 -0.0868 -0.6891  0.8389
  703SOL    HW2 2894   0.063   0.130   2.035 -0.5757 -0.3813 -0.0267
  704SOL     OW 2895   1.004   0.675   1.845 -0.2209  0.0541  1.1573
  704SOL    HW1 2896   1.064   0.601   1.850 -3.4985 -2.9185  1.0220
  704SOL    HW2 2897   1.041   0.732   1.778  1.4932 -2.4947 -0.2395
  705SOL     OW 2898   2.966   1.853   0.024  0.0030  0.3410 -0.0252
  705SOL    HW1 2899   3.061   1.862   0.015  0.0459 -0.8418 -1.0541
  705SOL    HW2 2900   2.931   1.876  -0.062 -0.7954  2.1108  0.7149
  706SOL     OW 2901   0.800   1.769   0.428 -0.1469 -0.0029  0.3974
  706SOL    HW1 2902   0.805   1.682   0.390 -0.0868 -0.2210  0.8929
  706SOL    HW2 2903   0.707   1.792   0.425  0.0510  0.7384 -1.5199
  707SOL     OW 2904   2.608   2.339   0.934  0.2795 -0.4489  0.3223
  707SOL    HW1 2905   2.700   2.328   0.957  0.2498 -1.3093  0.0714
  707SOL    HW2 2906   2.560   2.299   1.006 -0.0346  2.5634  1.9467
  708SOL     OW 2907   3.040   0.035   1.906 -0.2168 -0.0581 -0.4174
  708SOL    HW1 2908   2.957   0.051   1.950 -1.2113  1.6176 -2.7322
  708SOL    HW2 2909   3.099   0.102   1.941  0.1564 -1.0731  1.0171
  709SOL     OW 2910   3.290   0.642   1.190 -0.2758  0.0131  0.1776
  709SOL    HW1 2911   3.284   0.737   1.197 -0.3977  0.0215 -0.0209
  709SOL    HW2 2912   3.221   0.609   1.248 -0.6524  0.0613 -0.2297
  710SOL     OW 2913   0.125   2.284   2.421  0.0908  0.0504 -0.1369
  710SOL    HW1 2914   0.145   2.375   2.446  0.1554 -0.7166  3.1027
  710SOL    HW2 2915   0.038   2.289   2.382  1.0979  1.7531 -2.3892
  711SOL     OW 2916   1.884   1.742   0.784 -0.0972 -0.2896 -0.8267
  711SOL    HW1 2917   1.856   1.767   0.695 -0.0060  0.7003 -0.5875
  711SOL    HW2 2918   1.932   1.661   0.771 -2.1170 -1.4678 -1.3852
  712SOL     OW 2919   2.117   2.817   2.465 -0.9008  0.1277 -0.0182
  712SOL    HW1 2920   2.113   2.819   2.369 -3.1319 -2.4163 -0.0828
  712SOL    HW2 2921   2.123   2.910   2.490 -0.5785  0.8813 -2.5844
  713SOL     OW 2922   0.904   0.727   0.631  0.6712 -0.6978  0.1448
  713SOL    HW1 2923   0.973   0.789   0.656 -1.8217  1.4657  2.2444
  713SOL    HW2 2924   0.866   0.697   0.713 -0.8744 -1.8590 -0.9180
  714SOL     OW 2925   2.066   2.679   3.362  0.6953 -0.1678  0.3248
  714SOL    HW1 2926   2.039   2.653   3.450 -0.8796  1.6743  0.4435
  714SOL    HW2 2927   2.076   2.774   3.367 -3.2056  0.5907 -2.3171
  715SOL     OW 2928   1.842   0.304   0.557  0.2637  0.1828  0.4900
  715SOL    HW1 2929   1.760   0.353   0.567  1.1519  1.5028  1.5143
  715SOL    HW2 2930   1.813   0.214   0.538 -1.4291  0.4781  1.4322
  716SOL     OW 2931   3.133   2.875   2.729  0.2627  0.2609 -0.3775
  716SOL    HW1 2932   3.208   2.923   2.764 -0.8313  1.8919 -0.1538
  716SOL    HW2 2933   3.114   2.809   2.796 -0.4383  1.9052  1.1008
  717SOL     OW 2934   1.504   1.729   2.923 -0.1461 -0.1564 -0.4562
  717SOL    HW1 2935   1.544   1.693   2.844  1.8150  1.6630 -0.4034
  717SOL    HW2 2936   1.526   1.667   2.992  1.3457  0.0437 -0.7214
  718SOL     OW 2937   1.329   2.408   2.151  0.2682 -0.1505  0.3366
  718SOL    HW1 2938   1.389   2.477   2.178 -0.9177  0.2571  2.0698
  718SOL    HW2 2939   1.258   2.453   2.107  0.6613 -0.5396 -0.7526
  719SOL     OW 2940   1.033   1.833   2.020 -0.8405 -0.6164  0.1484
  719SOL    HW1 2941   1.093   1.906   2.004  1.4081 -2.5980 -1.1988
  719SOL    HW2 2942   0.978   1.863   2.092  0.1779  2.2458 -0.1092
  720SOL     OW 2943   2.841   0.414   0.685  0.4199  0.1630  0.1501
  720SOL    HW1 2944   2.815   0.356   0.757  0.0177 -0.1882 -0.2677
  720SOL    HW2 2945   2.914   0.465   0.720 -0.2288  0.5050  1.0446
  721SOL     OW 2946   0.776   1.944   3.306  0.2876 -0.0216 -0.7454
  721SOL    HW1 2947   0.800   1.862   3.262 -1.1644 -1.0673  0.3490
  721SOL    HW2 2948   0.791   1.927   3.399 -0.7865  0.6771 -0.4293
  722SOL     OW 2949   1.654   1.161   0.471 -0.3275  0.5143  0.1046
  722SOL    HW1 2950   1.734   1.209   0.494 -1.0737  1.6401  0.4619
  722SOL    HW2 2951   1.593   1.182   0.542 -0.3017 -2.0572  0.9930
  723SOL     OW 2952   2.176   2.068   0.212  0.4570  0.0753  0.5330
  723SOL    HW1 2953   2.245   2.132   0.228 -0.6469  1.2371  0.8171
  723SOL    HW2 2954   2.133   2.098   0.132 -1.0789  0.6412  1.5236
  724SOL     OW 2955   0.710   2.686   2.341  0.5761  0.3454  0.1760
  724SOL    HW1 2956   0.751   2.743   2.275  0.3937 -0.2696 -0.4826
  724SOL    HW2 2957   0.619   2.715   2.345 -0.0909 -1.2890 -1.7774
  725SOL     OW 2958   1.460   0.151   0.106  0.4692  0.5178  0.2488
  725SOL    HW1 2959   1.553   0.145   0.130  0.1777 -1.0808  1.1122
  725SOL    HW2 2960   1.426   0.221   0.163  0.9594  0.5325  0.5361
  726SOL     OW 2961   2.228   2.828   0.842  0.0047  0.0625 -0.0916
  726SOL    HW1 2962   2.273   2.895   0.894  0.3378 -0.3781  0.1861
  726SOL    HW2 2963   2.158   2.877   0.797 -1.9576  0.0805  2.7096
  727SOL     OW 2964   2.405   2.247   2.084 -0.4572 -0.1761  0.1259
  727SOL    HW1 2965   2.437   2.249   1.994 -1.2973 -1.1180 -0.2090
  727SOL    HW2 2966   2.442   2.168   2.122 -2.0824 -1.1360 -0.1842
  728SOL     OW 2967   2.035   2.824   1.355  0.2438  0.4856  0.1506
  728SOL    HW1 2968   1.981   2.745   1.348  1.6224 -0.5948  1.1658
  728SOL    HW2 2969   1.974   2.895   1.337 -0.5796 -0.8679 -3.0928
  729SOL     OW 2970   1.410   2.226   0.821 -0.2912  0.1782 -0.3599
  729SOL    HW1 2971   1.335   2.227   0.880 -0.2485  1.3158 -0.2942
  729SOL    HW2 2972   1.484   2.200   0.876 -0.4320  0.2498 -0.1373
  730SOL     OW 2973   1.478   1.719   2.248 -0.2599  0.4100  0.0957
  730SOL    HW1 2974   1.392   1.711   2.207 -0.9403 -0.6459  1.6466
  730SOL    HW2 2975   1.538   1.682   2.184 -1.0414  0.4485 -0.6867
  731SOL     OW 2976   3.342   1.969   1.734  0.2809 -0.2115  0.1168
  731SOL    HW1 2977   3.401   1.927   1.672  0.9563  0.7740  0.0644
  731SOL    HW2 2978   3.257   1.968   1.691 -0.1961 -3.1855  0.8826
  732SOL     OW 2979   1.151   1.356   0.150  0.3283 -0.1753  0.3963
  732SOL    HW1 2980   1.064   1.387   0.125  0.0140 -0.5489  1.0091
  732SOL    HW2 2981   1.205   1.434   0.151  0.4428 -0.1751 -1.7733
  733SOL     OW 2982   2.454   1.664   2.224  0.3695  0.3822  0.1505
  733SOL    HW1 2983   2.401   1.645   2.147  0.4887 -0.8406  0.3453
  733SOL    HW2 2984   2.476   1.578   2.260  1.7738  0.8780  0.5602
  734SOL     OW 2985   0.797   2.403   3.325  0.2178 -0.2380  0.4117
  734SOL    HW1 2986   0.829   2.333   3.268 -1.7441 -1.2657  0.4851
  734SOL    HW2 2987   0.737   2.453   3.270  1.3102  1.2297  0.4720
  735SOL     OW 2988   1.544   1.762   3.370 -0.3796 -0.1928 -0.1211
  735SOL    HW1 2989   1.545   1.667   3.360 -1.2302 -0.1714 -0.4665
  735SOL    HW2 2990   1.477   1.792   3.309  0.5908  0.7195 -0.7725
  736SOL     OW 2991   1.494   2.681   3.194 -0.2936 -0.2358 -0.2854
  736SOL    HW1 2992   1.440   2.722   3.126  0.1089 -0.2853 -0.6454
  736SOL    HW2 2993   1.568   2.741   3.205  0.2125 -0.7712 -0.6960
  737SOL     OW 2994   2.423   1.180   0.313  0.3064 -0.2614  0.6388
  737SOL    HW1 2995   2.398   1.108   0.255 -0.1141  1.1161 -0.9531
  737SOL    HW2 2996   2.340   1.215   0.346  0.3330  1.1751 -0.7356
  738SOL     OW 2997   1.387   3.370   3.287 -0.2205  0.1539  0.1124
  738SOL    HW1 2998   1.434   3.453   3.298  0.3641 -0.2443  0.6933
  738SOL    HW2 2999   1.452   3.311   3.248  0.1035 -0.6919  1.8397
  739SOL     OW 3000   1.461   0.710   1.072 -0.2589  0.5724 -0.0146
  739SOL    HW1 3001   1.538   0.733   1.020 -0.2020  0.0569 -0.1622
  739SOL    HW2 3002   1.409   0.790   1.073 -0.3874  0.5229 -1.0834
  740SOL     OW 3003   1.426   2.197   1.992  0.0360  0.0522  0.2481
  740SOL    HW1 3004   1.406   2.245   2.072 -0.9459  1.4284 -0.7809
  740SOL    HW2 3005   1.521   2.187   1.993  0.1099  0.7067  1.2015
  741SOL     OW 3006   3.128   0.745   0.464  0.2600 -0.0588  0.2975
  741SOL    HW1 3007   3.112   0.679   0.531  1.6538 -0.9717 -0.2183
  741SOL    HW2 3008   3.204   0.793   0.495  0.7787 -0.3420 -0.4966
  742SOL     OW 3009   0.829   1.771   1.468  0.0826 -0.0304 -0.1096
  742SOL    HW1 3010   0.908   1.805   1.426 -1.3812  1.9286 -1.4740
  742SOL    HW2 3011   0.758   1.793   1.407 -1.3513 -3.5452  0.0612
  743SOL     OW 3012   2.242   1.749   2.397 -0.2122  0.3978  0.7663
  743SOL    HW1 3013   2.171   1.766   2.335 -1.4627 -1.4428  1.6192
  743SOL    HW2 3014   2.314   1.717   2.343 -0.9055 -0.1414  0.1458
  744SOL     OW 3015   0.664   0.610   0.808  0.0707  0.6576 -0.6970
  744SOL    HW1 3016   0.724   0.553   0.856  1.7137  1.8467 -1.2291
  744SOL    HW2 3017   0.617   0.551   0.749  0.0958 -0.4189  0.3215
  745SOL     OW 3018   2.583   0.772   0.861 -0.2115  0.2506  0.1625
  745SOL    HW1 3019   2.676   0.781   0.842  0.5915 -2.0137  2.4689
  745SOL    HW2 3020   2.556   0.694   0.814 -1.3676  1.6483 -1.6071
  746SOL     OW 3021   2.988   3.336   2.765  0.8627 -0.4154  0.4990
  746SOL    HW1 3022   3.068   3.307   2.722  1.5945 -0.6917  1.9882
  746SOL    HW2 3023   2.947   3.255   2.797  1.1881 -0.0983  1.7493
  747SOL     OW 3024   1.717   3.313   0.730 -0.1714 -0.5378  0.0874
  747SOL    HW1 3025   1.661   3.235   0.737 -2.3231  0.9131 -0.1475
  747SOL    HW2 3026   1.699   3.363   0.809  1.2519 -0.2573  0.2691
  748SOL     OW 3027   0.814   2.674   2.613 -0.1777 -0.2358 -0.2812
  748SOL    HW1 3028   0.795   2.595   2.665  0.1028  0.3967  0.8011
  748SOL    HW2 3029   0.805   2.645   2.522  1.0182 -1.8180  0.0508
  749SOL     OW 3030   1.603   1.639   2.023 -0.4438  0.1999  0.2440
  749SOL    HW1 3031   1.593   1.706   1.955  0.9147 -0.2406 -0.4290
  749SOL    HW2 3032   1.556   1.563   1.988 -0.3539  0.2004  0.1199
  750SOL     OW 3033   1.890   0.179   0.911  0.3371  0.4332 -0.0411
  750SOL    HW1 3034   1.915   0.248   0.849  1.3484 -0.2817 -0.4534
  750SOL    HW2 3035   1.828   0.222   0.970  1.1944  1.7856 -0.0875
  751SOL     OW 3036   0.257   2.267   1.926 -0.0992  0.2860  0.5878
  751SOL    HW1 3037   0.258   2.172   1.913  0.4416  0.4496 -0.6919
  751SOL    HW2 3038   0.342   2.287   1.964  0.0754  0.3348  0.1791
  752SOL     OW 3039   2.896   2.582   3.089 -0.0794  0.1150 -0.4412
  752SOL    HW1 3040   2.864   2.511   3.033 -0.1805  0.8808 -1.3849
  752SOL    HW2 3041   2.821   2.604   3.144  0.0405 -0.6882  0.0616
  753SOL     OW 3042   1.646   2.874   3.327  0.1190 -0.6835 -0.5554
  753SOL    HW1 3043   1.709   2.927   3.278 -1.3601 -0.0557 -1.8600
  753SOL    HW2 3044   1.562   2.917   3.312 -0.7943 -2.1151  0.2440
  754SOL     OW 3045   0.548   2.263   3.065  0.7826  0.5120 -0.6632
  754SOL    HW1 3046   0.635   2.239   3.098  0.0628 -0.0606  0.9428
  754SOL    HW2 3047   0.536   2.353   3.095  0.5319  0.3376 -0.2358
  755SOL     OW 3048   1.517   1.255   0.696 -0.0880  0.2508 -0.7529
  755SOL    HW1 3049   1.540   1.346   0.677  2.6936 -0.0814  0.5092
  755SOL    HW2 3050   1.563   1.236   0.778 -2.6892 -1.5723  0.4173
  756SOL     OW 3051   1.674   1.559   3.118  0.5475  0.2649 -0.0864
  756SOL    HW1 3052   1.725   1.618   3.063 -0.5988  0.4050 -1.0402
  756SOL    HW2 3053   1.735   1.490   3.142  1.1525  0.3438 -1.3321
  757SOL     OW 3054   1.946   1.236   0.271  0.4760 -0.4784 -0.4104
  757SOL    HW1 3055   2.007   1.310   0.278 -1.3074  1.1389 -0.9500
  757SOL    HW2 3056   1.901   1.235   0.355  1.2300 -1.6913  0.0015
  758SOL     OW 3057   0.729   2.198   1.447 -0.1403 -0.2710  0.0056
  758SOL    HW1 3058   0.675   2.156   1.380  2.6572 -2.1017 -1.2686
  758SOL    HW2 3059   0.695   2.164   1.530 -2.1336  0.1645 -0.5779
  759SOL     OW 3060   0.353   3.039   2.503  0.3379  0.6981  0.5860
  759SOL    HW1 3061   0.278   2.981   2.489  1.4506 -0.8435  0.6481
  759SOL    HW2 3062   0.340   3.112   2.442 -0.5407 -0.2109 -0.3532
  760SOL     OW 3063   1.670   0.282   0.286  0.0624  0.1710 -0.1390
  760SOL    HW1 3064   1.660   0.347   0.356 -1.4683 -0.3602  0.1726
  760SOL    HW2 3065   1.688   0.200   0.331 -2.0365 -0.3999 -0.2534
  761SOL     OW 3066   2.488   1.818   0.474 -0.1064  0.4922  0.3024
  761SOL    HW1 3067   2.466   1.739   0.424  0.5641 -0.2731  1.1779
  761SOL    HW2 3068   2.513   1.882   0.408  0.0445 -0.2648 -0.3886
  762SOL     OW 3069   2.265   2.496   2.496  0.5307  0.2024  0.3599
  762SOL    HW1 3070   2.221   2.543   2.566  0.1035 -0.1182  0.3071
  762SOL    HW2 3071   2.196   2.473   2.435  0.7484 -0.4148  0.3418
  763SOL     OW 3072   3.142   1.779   0.510 -0.4191  0.3313  0.5859
  763SOL    HW1 3073   3.081   1.806   0.441  2.1212  3.3113 -0.7831
  763SOL    HW2 3074   3.103   1.811   0.591 -1.1457  1.3933 -0.1475
  764SOL     OW 3075   2.979   1.369   0.381 -0.5030 -0.3480 -0.2792
  764SOL    HW1 3076   2.992   1.287   0.332  0.7866 -1.3021  1.5205
  764SOL    HW2 3077   3.063   1.414   0.374 -0.6876  0.0603  0.1174
  765SOL     OW 3078   0.411   1.484   1.071 -0.1564 -0.9086  0.2279
  765SOL    HW1 3079   0.364   1.454   1.149  0.8871 -1.8455  0.5207
  765SOL    HW2 3080   0.399   1.414   1.007 -1.4045  0.0630 -0.6503
  766SOL     OW 3081   2.732   2.706   1.997 -0.7968 -0.5003 -0.1017
  766SOL    HW1 3082   2.729   2.722   1.903 -1.5257  0.5603  0.0769
  766SOL    HW2 3083   2.644   2.726   2.028  0.1190  2.0911  1.2009
  767SOL     OW 3084   2.503   2.737   2.647  0.2183  0.1252 -0.0787
  767SOL    HW1 3085   2.519   2.758   2.555 -0.0155 -0.8517 -0.3525
  767SOL    HW2 3086   2.410   2.713   2.650  0.7590 -2.1655 -0.0652
  768SOL     OW 3087   3.061   2.592   1.660 -0.1684  0.7065 -0.0205
  768SOL    HW1 3088   3.072   2.680   1.624  0.4039  1.7777  2.5226
  768SOL    HW2 3089   2.995   2.551   1.603 -0.6876  2.8818 -1.1045
  769SOL     OW 3090   2.010   3.043   2.845 -0.1285  0.0084  0.2809
  769SOL    HW1 3091   2.026   3.100   2.920  0.2796 -1.1206  1.0761
  769SOL    HW2 3092   2.034   2.956   2.875 -1.8357 -0.7994 -0.5098
  770SOL     OW 3093   2.833   2.454   1.870 -0.6697  0.2925  0.4924
  770SOL    HW1 3094   2.849   2.520   1.936 -0.6258  0.6208  0.1583
  770SOL    HW2 3095   2.905   2.464   1.808 -0.1929 -0.6344  0.8799
  771SOL     OW 3096   2.640   0.773   0.492  0.5016 -0.4749 -0.0536
  771SOL    HW1 3097   2.650   0.684   0.457  1.3015 -0.5782  0.4099
  771SOL    HW2 3098   2.650   0.830   0.416 -2.4289 -0.8120 -0.8202
  772SOL     OW 3099   0.020   1.668   1.096  0.2729  0.5089  0.2202
  772SOL    HW1 3100  -0.030   1.593   1.065  0.1063 -0.3316  2.3909
  772SOL    HW2 3101  -0.045   1.730   1.127  0.4950 -0.1331  2.0531
  773SOL     OW 3102   1.190   0.366   0.884 -0.3789 -0.6839  0.1840
  773SOL    HW1 3103   1.267   0.322   0.848  0.2232  0.8065 -0.4415
  773SOL    HW2 3104   1.219   0.400   0.968 -0.8819 -1.5752  0.7288
  774SOL     OW 3105   1.038   2.631   2.356 -0.2531  0.7524  0.2462
  774SOL    HW1 3106   1.113   2.612   2.300  0.2030 -0.8475  1.3282
  774SOL    HW2 3107   1.053   2.720   2.387  1.0943  0.5356  0.2791
  775SOL     OW 3108   3.091   0.489   1.298 -0.2521 -0.0768 -0.1337
  775SOL    HW1 3109   3.115   0.397   1.305 -0.3089 -0.0700  0.1633
  775SOL    HW2 3110   3.002   0.487   1.262 -0.3125 -0.1428  0.0187
  776SOL     OW 3111   2.524   2.835   2.390 -0.2745 -0.1153 -0.0306
  776SOL    HW1 3112   2.524   2.757   2.336  2.6635  0.6936 -1.3704
  776SOL    HW2 3113   2.460   2.893   2.348 -0.2210 -0.6349 -0.8517
  777SOL     OW 3114   0.001   0.391   1.510  0.1690 -0.0532 -0.1732
  777SOL    HW1 3115  -0.080   0.345   1.489 -0.0643  0.5559 -0.6608
  777SOL    HW2 3116  -0.027   0.473   1.550  0.4810  0.6664 -1.3547
  778SOL     OW 3117   2.133   2.523   1.576 -0.1169 -1.0376 -0.2236
  778SOL    HW1 3118   2.155   2.492   1.488  0.7876 -0.9673 -0.0328
  778SOL    HW2 3119   2.064   2.588   1.562  0.2569 -0.7782 -0.9092
  779SOL     OW 3120   2.544   3.201   0.601 -0.2401  0.0166  0.1911
  779SOL    HW1 3121   2.587   3.116   0.605 -1.5852 -0.7896 -1.4782
  779SOL    HW2 3122   2.462   3.185   0.555 -0.9218  2.0697  0.5793
  780SOL     OW 3123   1.429   2.604   1.478  0.3214 -0.3490 -0.7428
  780SOL    HW1 3124   1.502   2.592   1.540 -2.1047  2.7041  3.1717
  780SOL    HW2 3125   1.367   2.534   1.500 -0.3135  0.4222 -0.0181
  781SOL     OW 3126   2.403   1.097   1.014  0.2228  0.0280  0.0344
  781SOL    HW1 3127   2.456   1.108   1.093  0.8689  2.2425 -0.6505
  781SOL    HW2 3128   2.397   1.002   1.003  1.9390 -0.3122  1.5359
  782SOL     OW 3129   1.434   3.030   3.305 -0.0578  0.1384 -0.1683
  782SOL    HW1 3130   1.498   3.101   3.294  0.4396 -0.3708 -0.5725
  782SOL    HW2 3131   1.351   3.070   3.278  0.2891  0.4451 -0.8240
  783SOL     OW 3132   0.185   2.550   2.326  0.0707 -0.0868 -0.1470
  783SOL    HW1 3133   0.173   2.643   2.343  0.8600  0.4831 -2.3459
  783SOL    HW2 3134   0.120   2.528   2.259 -1.5253 -1.6904  1.7815
  784SOL     OW 3135   2.389   0.830   1.029 -0.7396  0.4536 -0.1024
  784SOL    HW1 3136   2.366   0.748   1.072 -0.3101  0.2068 -0.3387
  784SOL    HW2 3137   2.465   0.808   0.974  0.5741  1.4328  1.2563
  785SOL     OW 3138   3.183   0.282   1.031  0.1427 -0.4136 -0.1048
  785SOL    HW1 3139   3.168   0.228   0.953  1.4268  0.2282 -0.8296
  785SOL    HW2 3140   3.269   0.321   1.017  0.8395 -1.0341  2.1007
  786SOL     OW 3141   0.392   2.725   1.723 -0.5134  0.5270 -0.3316
  786SOL    HW1 3142   0.353   2.780   1.655  1.7744 -0.5433 -2.6843
  786SOL    HW2 3143   0.368   2.636   1.699 -0.6750  0.1956  0.9944
  787SOL     OW 3144   1.399   2.657   2.528 -0.2015 -0.0573 -0.0536
  787SOL    HW1 3145   1.452   2.705   2.592  0.7130 -1.3853  0.2298
  787SOL    HW2 3146   1.427   2.566   2.537 -0.4657 -0.3759 -1.9486
  788SOL     OW 3147   0.451   0.507   0.257  0.3905 -0.2091  0.0667
  788SOL    HW1 3148   0.516   0.559   0.211 -0.9691  0.8364 -0.7463
  788SOL    HW2 3149   0.477   0.416   0.242  1.1460  0.1735 -0.9950
  789SOL     OW 3150   2.061   1.737   2.186  0.1304  0.5045  0.1812
  789SOL    HW1 3151   2.007   1.682   2.129 -1.0246  0.2915  1.4329
  789SOL    HW2 3152   1.998   1.796   2.229  1.0773  1.2479  0.5843
  790SOL     OW 3153   3.162   2.212   1.403 -0.2129 -0.0937  0.0606
  790SOL    HW1 3154   3.093   2.148   1.390 -1.5781  0.8899  1.9154
  790SOL    HW2 3155   3.164   2.262   1.321 -1.1648 -0.6270 -0.3041
  791SOL     OW 3156   2.838   2.253   3.147 -0.3251  0.1805  0.2517
  791SOL    HW1 3157   2.810   2.162   3.161  0.8386  0.1004  2.3222
  791SOL    HW2 3158   2.809   2.300   3.225  1.4178  1.0245  0.4297
  792SOL     OW 3159   0.937   3.373   2.618  0.3210  0.3549  0.2952
  792SOL    HW1 3160   0.878   3.386   2.543 -0.0316  1.5932  0.7597
  792SOL    HW2 3161   0.986   3.455   2.623  0.7144  0.0759  1.1080
  793SOL     OW 3162   2.537   2.514   0.088  0.2308 -0.1734 -0.3382
  793SOL    HW1 3163   2.548   2.485  -0.002  1.8214 -1.3171  0.1730
  793SOL    HW2 3164   2.488   2.596   0.081 -1.1239 -1.0413 -2.1041
  794SOL     OW 3165   0.569   0.374   2.195 -0.3997 -0.2248 -0.2982
  794SOL    HW1 3166   0.504   0.346   2.260 -1.8607 -0.0248 -1.5990
  794SOL    HW2 3167   0.551   0.467   2.182  0.5871 -0.0173 -0.2092
  795SOL     OW 3168   1.159   0.479   0.391 -0.3123  0.1500 -0.7690
  795SOL    HW1 3169   1.074   0.501   0.429  0.3699 -1.1937  1.7875
  795SOL    HW2 3170   1.167   0.537   0.315 -3.4020  0.4279 -1.0206
  796SOL     OW 3171   2.031   1.722   0.016  0.0390 -0.7319  0.0205
  796SOL    HW1 3172   1.945   1.764   0.020  0.2862 -0.2059 -0.1319
  796SOL    HW2 3173   2.049   1.715  -0.078  1.0426  1.0054  0.0403
  797SOL     OW 3174   0.177   0.539   0.636 -0.3433  0.4591  0.2007
  797SOL    HW1 3175   0.172   0.489   0.555 -1.3082  1.4284 -0.3739
  797SOL    HW2 3176   0.121   0.615   0.620  0.6610  1.4497  1.2299
  798SOL     OW 3177   2.398   1.528   0.481 -0.3868  0.0712  0.0005
  798SOL    HW1 3178   2.469   1.480   0.439 -1.0019 -1.4474  0.6367
  798SOL    HW2 3179   2.386   1.485   0.565 -2.1414  0.1994 -0.1418
  799SOL     OW 3180   0.724   0.779   1.817  0.1502 -0.2080 -0.0709
  799SOL    HW1 3181   0.809   0.760   1.857 -0.3828  0.1501  1.3118
  799SOL    HW2 3182   0.669   0.706   1.844 -0.4261  0.4289  0.5259
  800SOL     OW 3183   1.279   1.898   2.980 -0.0711  0.6974 -0.2136
  800SOL    HW1 3184   1.369   1.875   3.005 -0.3606 -0.4184 -0.1563
  800SOL    HW2 3185   1.283   1.908   2.885  0.1235  0.7015 -0.2062
  801SOL     OW 3186   1.979   1.656   1.730  0.4601 -0.0753 -0.0039
  801SOL    HW1 3187   2.059   1.608   1.753  0.1832 -0.5363  0.0232
  801SOL    HW2 3188   1.992   1.682   1.639  0.7471  0.0747  0.0776
  802SOL     OW 3189   1.146   2.922   2.972 -0.3246  0.2085  0.1272
  802SOL    HW1 3190   1.090   2.865   2.920  0.4799 -0.4798 -0.0030
  802SOL    HW2 3191   1.141   2.887   3.060  0.0604  0.0193  0.0749
  803SOL     OW 3192   1.260   1.839   0.797 -0.3161  0.0765  0.3442
  803SOL    HW1 3193   1.279   1.801   0.883 -1.9147 -1.4895  0.0880
  803SOL    HW2 3194   1.338   1.889   0.774 -0.0487  0.9880  2.9294
  804SOL     OW 3195   1.166   2.129   1.982 -0.2581 -0.9213 -0.5768
  804SOL    HW1 3196   1.115   2.205   2.008  0.6544 -0.5784  0.3043
  804SOL    HW2 3197   1.257   2.159   1.984  0.0558 -1.7621 -1.1955
  805SOL     OW 3198   0.237   0.756   1.666 -0.0915  0.1182 -0.3186
  805SOL    HW1 3199   0.307   0.816   1.639 -0.7914  0.0585 -2.4648
  805SOL    HW2 3200   0.256   0.737   1.758  3.5789 -1.0833 -1.1463
  806SOL     OW 3201   2.827   2.817   3.362  0.4615  0.6640  0.3938
  806SOL    HW1 3202   2.785   2.752   3.306  0.4532 -0.2519  1.4372
  806SOL    HW2 3203   2.807   2.790   3.451  0.2059  2.2816  0.8667
  807SOL     OW 3204   1.385   1.059   3.361 -0.4099  0.1638  0.0707
  807SOL    HW1 3205   1.422   1.146   3.346 -0.4099  0.2006  0.2851
  807SOL    HW2 3206   1.434   1.024   3.435 -0.0034 -0.2606 -0.3873
  808SOL     OW 3207   0.088   2.876   1.819 -0.0955  0.7646  0.2055
  808SOL    HW1 3208   0.101   2.814   1.747  2.2570  0.7465  0.5532
  808SOL    HW2 3209   0.010   2.845   1.864  0.8560 -1.8341  0.2316
  809SOL     OW 3210   0.939   1.576   2.052 -0.6262 -0.9060  0.1229
  809SOL    HW1 3211   0.949   1.649   1.991 -0.0082 -0.2959  0.9296
  809SOL    HW2 3212   0.983   1.606   2.132  2.4062 -3.3516 -0.4545
  810SOL     OW 3213   0.178   1.710   3.296  0.4718 -0.4477  0.1501
  810SOL    HW1 3214   0.268   1.697   3.267  0.6906  0.5418  0.3785
  810SOL    HW2 3215   0.146   1.784   3.244 -0.4809 -1.2844 -0.5008
  811SOL     OW 3216   1.975   2.138   2.091 -0.0126  0.2025 -0.3132
  811SOL    HW1 3217   2.001   2.067   2.033 -0.7933  0.8759 -1.5351
  811SOL    HW2 3218   2.049   2.148   2.151  0.0330 -1.7255 -0.0006
  812SOL     OW 3219   1.673   1.759   2.425 -0.2195  0.2780 -0.0385
  812SOL    HW1 3220   1.619   1.729   2.352 -0.4609  2.2747 -0.7204
  812SOL    HW2 3221   1.743   1.810   2.383 -1.2216  2.7574  1.1569
  813SOL     OW 3222   2.061   0.088   2.168 -0.1094  0.4752  0.4034
  813SOL    HW1 3223   2.032   0.057   2.082  1.0368  2.7463 -0.9210
  813SOL    HW2 3224   1.980   0.106   2.216 -0.7771 -0.2194 -0.4337
  814SOL     OW 3225   2.855   1.978   0.493  0.3358 -0.2132  0.4123
  814SOL    HW1 3226   2.762   1.972   0.472 -0.3430  0.4662  2.8535
  814SOL    HW2 3227   2.900   1.970   0.409 -1.9945  1.2822 -1.0812
  815SOL     OW 3228   3.331   1.077   0.907  0.7027  0.5368 -0.8393
  815SOL    HW1 3229   3.275   1.000   0.899  2.3284 -0.9412  1.0029
  815SOL    HW2 3230   3.418   1.046   0.886  1.3854  1.9115 -0.2063
  816SOL     OW 3231   0.693   0.402   1.590 -0.3249  0.1469  0.5102
  816SOL    HW1 3232   0.782   0.394   1.625  0.4781  1.4441 -1.1083
  816SOL    HW2 3233   0.685   0.331   1.527 -0.7149 -0.4229  1.1969
  817SOL     OW 3234   3.272   0.790   0.869  0.6244 -0.8336  0.1530
  817SOL    HW1 3235   3.203   0.836   0.821  1.2309 -0.8680 -0.7743
  817SOL    HW2 3236   3.231   0.764   0.952  0.5883  2.5104  1.3252
  818SOL     OW 3237   1.793   0.716   0.655  0.2379 -0.0589 -0.2700
  818SOL    HW1 3238   1.799   0.811   0.645 -1.3385 -0.0142 -1.1350
  818SOL    HW2 3239   1.878   0.683   0.627 -0.3979  0.8687 -3.7789
  819SOL     OW 3240   0.995   2.316   2.076 -0.2065 -0.1955 -0.0120
  819SOL    HW1 3241   1.001   2.355   1.989  0.4246 -2.2007 -0.9185
  819SOL    HW2 3242   0.916   2.354   2.114 -1.1363 -0.1242 -1.9012
  820SOL     OW 3243   2.520   0.371   1.094  0.4525 -0.8054  0.4746
  820SOL    HW1 3244   2.516   0.354   1.000  0.1349 -1.6032  0.6180
  820SOL    HW2 3245   2.455   0.311   1.132 -0.2254  0.2837  1.1035
  821SOL     OW 3246   1.583   0.196   3.196  0.1879  0.5796  0.0401
  821SOL    HW1 3247   1.592   0.256   3.123  0.6600  0.2528 -0.1747
  821SOL    HW2 3248   1.631   0.237   3.268  3.5198 -1.0867 -1.0552
  822SOL     OW 3249   1.135   2.349   1.267  0.3416  0.8918  0.0252
  822SOL    HW1 3250   1.227   2.333   1.289 -0.0183 -0.6037  0.5150
  822SOL    HW2 3251   1.086   2.310   1.338 -0.7026  0.9553 -0.6423
  823SOL     OW 3252   2.398   2.966   0.083  0.5838  0.3337  0.4386
  823SOL    HW1 3253   2.346   2.886   0.089 -0.2039  0.8684  0.8739
  823SOL    HW2 3254   2.411   2.979  -0.011  2.0407 -1.1154  0.3864
  824SOL     OW 3255   2.331   3.353   3.341 -0.1476 -0.1442 -0.7670
  824SOL    HW1 3256   2.409   3.403   3.368 -1.3911  1.9424 -0.7773
  824SOL    HW2 3257   2.306   3.304   3.419  1.0505 -0.6923 -0.7050
  825SOL     OW 3258   2.780   0.022   0.268  0.7665 -0.8521  0.5949
  825SOL    HW1 3259   2.824   0.096   0.310  1.7167 -0.2664 -1.3321
  825SOL    HW2 3260   2.688   0.046   0.269  1.2407  1.6040 -2.1395
  826SOL     OW 3261   2.736   2.867   3.036  0.2661 -0.5315  0.3056
  826SOL    HW1 3262   2.715   2.878   2.943  1.3526 -0.7388  0.0171
  826SOL    HW2 3263   2.827   2.896   3.043  0.4061 -1.1504  1.1746
  827SOL     OW 3264   1.330   1.580   0.141 -0.2097 -0.5389 -0.0587
  827SOL    HW1 3265   1.417   1.541   0.138  1.0915  2.0239  1.2506
  827SOL    HW2 3266   1.324   1.631   0.060 -0.1952 -0.1620  0.1748
  828SOL     OW 3267   1.068   2.021   2.564  0.0965  0.6483  0.1383
  828SOL    HW1 3268   0.984   1.981   2.588 -0.0238  0.7951 -0.0270
  828SOL    HW2 3269   1.057   2.045   2.471  0.1707  1.0448  0.2288
  829SOL     OW 3270   0.613   2.033   2.251  0.2045  0.0131 -0.3088
  829SOL    HW1 3271   0.571   2.096   2.310  1.0767 -0.1183  0.4635
  829SOL    HW2 3272   0.622   2.081   2.168 -1.0978  0.1711 -0.3784
  830SOL     OW 3273   2.893   1.814   2.354  0.5608  0.1307  0.3242
  830SOL    HW1 3274   2.829   1.838   2.421 -2.3082  0.4376 -2.3385
  830SOL    HW2 3275   2.929   1.897   2.323  0.8881  0.0729  0.5438
  831SOL     OW 3276   0.104   1.492   0.093 -0.1796 -0.5106  0.5360
  831SOL    HW1 3277   0.043   1.536   0.151 -1.1935  0.7589 -1.3656
  831SOL    HW2 3278   0.134   1.561   0.033  2.4985 -1.2646  0.8422
  832SOL     OW 3279   2.858   1.725   0.650  0.9755 -0.1449  0.6582
  832SOL    HW1 3280   2.870   1.798   0.589  1.6916 -1.1772 -0.5132
  832SOL    HW2 3281   2.775   1.684   0.623  1.2310 -0.5279  0.4303
  833SOL     OW 3282   0.588   0.530   1.822  0.3113  0.1093  0.0600
  833SOL    HW1 3283   0.632   0.488   1.749 -1.9692 -1.7051 -0.3649
  833SOL    HW2 3284   0.531   0.463   1.859 -1.5519  2.0625  1.0189
  834SOL     OW 3285   0.445   1.780   1.312 -0.2973  0.2424 -0.5827
  834SOL    HW1 3286   0.517   1.731   1.273  0.0780  0.9201 -0.7495
  834SOL    HW2 3287   0.437   1.745   1.401  0.3988  0.3357 -0.4795
  835NA      NA 3288   1.629   2.874   0.865  0.0511  0.0133  0.0754
  836NA      NA 3289   0.973   2.960   1.023  0.2314 -0.3031 -0.4102
  837NA      NA 3290   0.638   2.790   1.193  0.4069 -0.1183  0.1917
  838NA      NA 3291   0.003   2.462   0.023 -0.8231  0.2019 -0.0279
  839NA      NA 3292   0.952   0.050   0.571 -0.4642  0.1620  0.3398
  840NA      NA 3293   3.037   2.581   0.477  0.3700 -0.0289  0.0975
  841NA      NA 3294   0.640   0.130   3.308 -0.0821  0.1431 -0.2873
  842NA      NA 3295   0.310   2.314   1.056 -0.0379 -0.1920 -0.4306
  843NA      NA 3296   0.309   2.140   0.367 -0.2719  0.0263 -0.2099
  844NA      NA 3297   0.326   1.760   0.458 -0.4375 -0.3846 -0.8126
  845NA      NA 3298   1.297   2.930   0.177  0.3324 -0.3558  0.1817
  846NA      NA 3299   0.993   2.378   0.459 -0.1084  0.3420  0.6062
  847NA      NA 3300   0.306   2.946   0.178 -0.2285 -0.6702  0.3870
  848NA      NA 3301   3.029   2.453   0.898  0.6118 -0.2461 -0.1469
  849NA      NA 3302   2.694   2.780   0.555 -0.0088 -0.0475 -0.2543
  850NA      NA 3303   0.976   3.260   3.261 -0.2727  0.1922  0.0298
  851NA      NA 3304   0.647   0.003   0.316 -0.1271 -0.3844 -0.2660
  852NA      NA 3305   0.289   2.698   3.228  0.0477 -0.3951  0.1924
  853NA      NA 3306   1.278   2.989   1.256  0.5749 -0.1476  0.4918
  854NA      NA 3307   3.332   3.168   0.264  0.1430  0.2028 -0.5126
  855NA      NA 3308   0.653   2.198   0.627  0.0100  0.0821 -0.3117
  856NA      NA 3309   0.247   2.256   1.498  0.1339  0.1696 -0.6868
  857NA      NA 3310   0.289   3.357   0.120  0.2220 -0.0458  0.3814
  858NA      NA 3311   3.358   2.519   1.117 -0.3247  0.3405  0.0144
  859NA      NA 3312   0.267   3.111   3.166  0.6849  0.6558  0.2119
  860NA      NA 3313   1.240   2.144   3.355 -0.0853  0.0954  0.1738
  861NA      NA 3314   1.305   2.146   0.385  0.0069 -0.0286 -0.2328
  862NA      NA 3315   3.358   2.270   0.814  0.0231 -0.5081  0.0403
  863NA      NA 3316   3.344   2.675   3.048 -0.1592 -0.2744 -0.6722
  864NA      NA 3317   3.037   2.424   3.227 -0.2983  0.2492 -0.2015
  865NA      NA 3318   0.998   3.176   0.284 -0.0323  0.0415  0.3912
  866NA      NA 3319   0.986   2.507   1.162 -0.6203 -0.5098  0.1424
  867NA      NA 3320   1.327   2.837   0.593  0.0212  0.7116  0.0576
  868NA      NA 3321   0.608   2.654   1.567  0.2071 -0.1537  0.3517
  869NA      NA 3322   1.104   1.944   0.663 -0.0322 -0.0315 -0.2255
  870NA      NA 3323   0.613   0.191   1.003  0.3599  0.2911  0.0814
  871NA      NA 3324   1.325   2.443   0.687 -0.5555  0.2364  0.2683
  872NA      NA 3325   1.669   3.032   0.435 -0.0576 -0.3615 -0.1747
  873NA      NA 3326   0.612   3.114   3.376  0.1201  0.2929 -0.3170
  874NA      NA 3327   3.001   2.997   0.413 -0.1007 -0.6861  0.1720
  875NA      NA 3328   0.659   2.596   0.497  0.1639  0.0738  0.4599
  876NA      NA 3329   1.023   2.488   0.024  0.2171  0.2716  0.0974
  877NA      NA 3330   0.633   2.387   1.288 -0.2487 -0.0117 -0.2725
  878NA      NA 3331   3.364   2.639   0.726  0.4946  0.1718 -0.4421
  879NA      NA 3332   0.607   3.046   1.476 -0.2218  0.0806 -0.2810
  880NA      NA 3333   0.296   2.716   0.938 -0.3893  0.4099 -0.0854
  881NA      NA 3334   3.369   2.123   1.219 -0.0222 -0.0305 -0.2063
  882NA      NA 3335   0.314   2.601   1.324  0.1863 -0.6004 -0.2709
  883NA      NA 3336   1.316   2.721   0.980 -0.1320 -0.2225  0.1586
  884NA      NA 3337   0.980   3.054   0.652 -0.5723  0.5670  0.3907
  885NA      NA 3338   0.267   3.113   0.875 -0.3598  0.4864 -0.2617
  886NA      NA 3339   3.346   3.037   0.615  0.0859 -0.7474 -0.1939
  887NA      NA 3340   0.628   3.160   1.107  0.0736 -0.6208  0.7534
  888NA      NA 3341   0.025   2.099   0.141 -0.1394 -0.3826  0.6058
  889NA      NA 3342   2.695   2.363   0.680  0.4409  0.1749  0.1043
  890NA      NA 3343   1.313   3.220   0.506  0.0688 -0.2400 -0.1569
  891NA      NA 3344   0.959   3.221   1.340  0.0887 -0.4130  0.3244
  892NA      NA 3345   3.018   2.158   0.594 -0.0131 -0.1928 -0.1399
  893NA      NA 3346   1.321   3.129   0.921  0.1479 -0.0009  0.4019
  894NA      NA 3347   2.991   2.860   0.798  0.0728 -0.2774 -0.1912
  895NA      NA 3348   0.636   2.903   0.812  0.1425 -0.0800  0.3984
  896NA      NA 3349   0.332   2.805   0.555 -0.3690  0.3886  0.1058
  897NA      NA 3350   0.624   2.987   0.428 -0.0897  0.2124 -0.0371
  898NA      NA 3351   0.941   2.834   1.421 -0.2370 -0.4155  0.3320
  899NA      NA 3352   0.315   2.020   0.755 -0.3564  0.4056 -0.2876
  900NA      NA 3353   3.277   3.283   0.962  0.1587 -0.0300  0.1005
  901NA      NA 3354   3.331   2.906   3.355 -0.1495 -0.2451  0.1682
  902NA      NA 3355   0.674   2.333   0.199 -0.1920  0.1318  0.0393
  903NA      NA 3356   1.350   2.531   0.277  0.1725 -0.6056 -0.3610
  904NA      NA 3357   0.277   3.003   1.250 -0.3062 -0.8204 -0.2124
  905NA      NA 3358   3.371   2.378   0.444  0.3573 -0.5779 -0.0403
  906NA      NA 3359   3.054   2.295   0.227  0.3786  0.3256  0.2820
  907NA      NA 3360   0.013   1.837   0.905  0.0674  0.4344 -0.6314
  908NA      NA 3361   0.329   2.425   0.653  0.0793 -0.1302 -0.2152
  909NA      NA 3362   2.703   2.500   0.279  0.3341  0.2052  0.3427
  910NA      NA 3363   3.046   2.700   0.101  0.3390 -0.2065  0.5483
  911NA      NA 3364   0.666   2.785   3.164 -0.4450  0.4625 -0.0156
  912NA      NA 3365   3.313   0.038   0.581 -0.1388 -0.6228 -0.4574
  913NA      NA 3366   3.379   2.770   0.335  0.2180  0.1658 -0.2605
  914NA      NA 3367   0.687   3.250   3.049  0.1604 -0.0531  0.0621
  915NA      NA 3368   3.326   2.903   1.012  0.0855 -0.1046 -0.1930
  916NA      NA 3369   1.658   2.620   0.530 -0.0951  0.3477 -0.3593
  917NA      NA 3370   0.988   2.260   0.848 -0.2518 -0.1456  0.6109
  918NA      NA 3371   0.645   2.108   0.983 -0.2448  0.1285  0.0165
  919NA      NA 3372   1.004   2.752   0.355  0.3409  0.1080 -0.1879
  920NA      NA 3373   0.606   3.283   0.719  0.0365 -0.2663 -0.0405
  921NA      NA 3374   3.054   2.061   0.992  0.0941  0.0867 -0.4551
  922NA      NA 3375   1.304   3.338   0.117  0.3170 -0.3489 -0.0037
  923NA      NA 3376   3.356   1.930   0.510  0.2439 -0.2853 -0.2989
  924NA      NA 3377   0.999   2.658   0.747  0.1400 -0.0049  0.0863
  925NA      NA 3378   2.361   2.685   0.653 -0.1777  0.0246 -0.0653
  926NA      NA 3379   0.641   2.490   0.896  0.1461 -0.1732 -0.0608
  927NA      NA 3380   0.267   3.208   0.473 -0.1701  0.7164  0.2425
  928NA      NA 3381   0.323   2.537   0.271 -0.1793 -0.0784 -0.6035
  929NA      NA 3382   0.949   3.356   0.935 -0.4694  0.2117  0.0027
  930NA      NA 3383   0.267   3.363   1.146  0.4029  0.4135 -0.2043
  931NA      NA 3384   3.003   3.231   0.692  0.3930  0.0613  0.0519
  932NA      NA 3385   0.312   1.940   1.199 -0.2175 -0.1007  0.0170
  933CL      CL 3386   1.146   0.015   0.355  0.1715  0.0859  0.4630
  934CL      CL 3387   0.469   2.264   0.821 -0.0345 -0.1530 -0.0358
  935CL      CL 3388   0.810   0.022   1.175  0.3026 -0.5890  0.5037
  936CL      CL 3389   3.206   2.667   3.281  0.2020  0.4111 -0.1011
  937CL      CL 3390   0.124   2.853   0.797  0.3089  0.1522  0.2369
  938CL      CL 3391   0.426   3.232   1.341 -0.0583  0.0164  0.1441
  939CL      CL 3392   0.512   2.552   3.173  0.0218 -0.2003  0.2223
  940CL      CL 3393   2.515   2.558   0.456  0.2106  0.0524 -0.0491
  941CL      CL 3394   0.483   1.994   0.524 -0.1842 -0.1108  0.1262
  942CL      CL 3395   2.878   2.206   0.824  0.0561  0.1303 -0.2192
  943CL      CL 3396   3.206   2.253   3.382  0.2257 -0.0183 -0.4545
  944CL      CL 3397   0.778   2.879   1.650 -0.2369  0.2661  0.2347
  945CL      CL 3398   3.175   3.203   0.481 -0.0131  0.2011 -0.1570
  946CL      CL 3399   1.147   2.311   0.210 -0.2071 -0.0296 -0.2787
  947CL      CL 3400   2.857   2.333   0.433 -0.2251  0.1359  0.1996
  948CL      CL 3401   0.449   3.166   0.256  0.4171 -0.2435  0.2258
  949CL      CL 3402   1.499   2.793   0.348 -0.0258 -0.2524  0.1539
  950CL      CL 3403   0.516   2.768   0.330  0.4254  0.0021  0.0288
  951CL      CL 3404   0.807   2.334   1.056 -0.6068  0.5118 -0.0137
  952CL      CL 3405   0.485   0.187   0.198  0.0971 -0.0139  0.1869
  953CL      CL 3406   0.497   2.383   0.420  0.0957 -0.0802 -0.0403
  954CL      CL 3407   2.824   2.611   0.733 -0.0155  0.4046  0.1776
  955CL      CL 3408   1.127   3.177   1.110  0.3357  0.1015 -0.0679
  956CL      CL 3409   1.171   2.365   3.199  0.2050 -0.2337  0.0324
  957CL      CL 3410   0.107   3.170   0.040  0.3688 -0.0052  0.4215
  958CL      CL 3411   1.476   2.664   0.765 -0.1507  0.1061 -0.0745
  959CL      CL 3412   0.150   2.730   0.109 -0.0141  0.1992 -0.0975
  960CL      CL 3413   0.153   1.903   0.292  0.1250 -0.1208  0.1031
  961CL      CL 3414   2.877   2.462   0.048  0.2946 -0.1587  0.4266
  962CL      CL 3415   0.475   3.314   3.232  0.3335  0.6011 -0.1917
  963CL      CL 3416   3.181   2.290   1.071  0.0796  0.3505  0.1440
  964CL      CL 3417   0.810   2.842   0.580  0.0608  0.2824 -0.0746
  965CL      CL 3418   0.802   3.027   3.204 -0.0695 -0.1783 -0.0193
  966CL      CL 3419   0.478   2.538   1.112 -0.2303 -0.0236 -0.4807
  967CL      CL 3420   0.785   3.010   1.259 -0.0128 -0.2363  0.0712
  968CL      CL 3421   2.856   2.745   0.327 -0.2427  0.0298  0.2556
  969CL      CL 3422   0.443   2.451   1.524 -0.3009  0.0989 -0.3320
  970CL      CL 3423   1.130   3.063   1.488 -0.0130 -0.2193 -0.3459
  971CL      CL 3424   0.482   2.143   1.203  0.0959 -0.1816 -0.3681
  972CL      CL 3425   0.133   2.794   1.182  0.3344  0.4076  0.3804
  973CL      CL 3426   0.781   0.122   0.785 -0.4203  0.1812 -0.2103
  974CL      CL 3427   0.125   2.466   0.902 -0.4490  0.0693  0.0661
  975CL      CL 3428   1.484   2.374   0.453 -0.3361 -0.0798  0.5770
  976CL      CL 3429   3.184   2.813   0.581  0.2624 -0.3253  0.6611
  977CL      CL 3430   0.113   2.882   3.106 -0.0444  0.1674 -0.0602
  978CL      CL 3431   1.147   3.000   0.422 -0.2428  0.5556  0.6595
  979CL      CL 3432   0.157   2.324   0.217  0.1051 -0.0380  0.1256
  980CL      CL 3433   0.830   2.533   0.284 -0.0905  0.3821 -0.3082
  981CL      CL 3434   3.183   2.408   0.651 -0.1892  0.4075  0.2577
  982CL      CL 3435   0.452   3.068   0.640 -0.0715  0.1317 -0.0992
  983CL      CL 3436   3.235   2.126   0.361 -0.1493  0.2106 -0.2397
  984CL      CL 3437   1.823   2.850   0.603  0.0997 -0.0191 -0.0194
  985CL      CL 3438   0.154   2.005   1.411 -0.0971 -0.1123  0.4573
  986CL      CL 3439   0.451   3.345   0.945 -0.1023 -0.1701  0.2240
  987CL      CL 3440   3.221   2.528   0.271  0.0149  0.3159  0.1456
  988CL      CL 3441   1.138   2.719   0.118  0.1441 -0.2396 -0.0647
  989CL      CL 3442   1.152   2.225   0.616 -0.2494  0.1303 -0.3287
  990CL      CL 3443   0.821   3.218   0.482  0.0449  0.3412 -0.0597
  991CL      CL 3444   1.169   2.621   0.525 -0.0513 -0.0133  0.4479
  992CL      CL 3445   0.795   3.121   0.860  0.2324 -0.4025 -0.3225
  993CL      CL 3446   2.164   2.369   1.032 -0.0221  0.2400 -0.4888
  994CL      CL 3447   0.146   2.982   0.407  0.0482  0.5731 -0.2986
  995CL      CL 3448   3.195   2.914   0.191 -0.0468 -0.3243  0.3946
  996CL      CL 3449   3.186   2.679   0.950  0.5588 -0.0108  0.1132
  997CL      CL 3450   3.210   1.905   1.158 -0.1814 -0.1063  0.2486
  998CL      CL 3451   0.149   2.390   1.280 -0.0375 -0.0337  0.0565
  999CL      CL 3452   0.844   0.070   3.141  0.2258 -0.3752 -0.0415
 1000CL      CL 3453   3.189   2.006   0.748  0.1007 -0.1451 -0.4155
 1001CL      CL 3454   0.159   2.209   0.598 -0.2074 -0.2290 -0.3085
 1002CL      CL 3455   1.231   1.894   0.418 -0.4278  0.3932 -0.0995
 1003CL      CL 3456   2.128   3.204   0.197 -0.1824 -0.1252 -0.1996
 1004CL      CL 3457   3.121   3.079   0.876  0.2666 -0.0621  0.0730
 1005CL      CL 3458   1.139   3.132   0.059 -0.0314  0.5613 -0.3719
 1006CL      CL 3459   1.462   2.934   1.076  0.0774 -0.0042 -0.2493
 1007CL      CL 3460   0.799   2.605   1.343 -0.2055  0.0119 -0.3626
 1008CL      CL 3461   3.135   0.075   0.779 -0.2614  0.2167  0.1434
 1009CL      CL 3462   0.837   2.031   0.766  0.3946 -0.2224 -0.1201
 1010CL      CL 3463   0.116   0.002   0.358  0.4891 -0.1586  0.2210
 1011CL      CL 3464   2.824   3.016   0.641 -0.2836  0.2582 -0.0044
 1012CL      CL 3465   0.790   2.735   0.968  0.2574 -0.0675  0.0605
 1013CL      CL 3466   1.159   2.494   0.922 -0.0969  0.4041  0.5486
 1014CL      CL 3467   0.458   2.963   1.021  0.0981 -0.0330 -0.1487
 1015CL      CL 3468   0.084   3.160   1.092  0.5001  0.4641  0.3178
 1016CL      CL 3469   0.809   2.429   0.683  0.1934 -0.0697  0.2927
 1017CL      CL 3470   0.800   3.301   0.101 -0.1497 -0.2288  0.2216
 1018CL      CL 3471   0.180   1.783   0.678 -0.3450  0.0002 -0.3917
 1019CL      CL 3472   1.169   2.883   0.828 -0.1069 -0.1592 -0.4875
 1020CL      CL 3473   1.508   3.216   0.303 -0.0733  0.2147 -0.1888
 1021CL      CL 3474   0.446   2.839   1.385 -0.2151  0.6005 -0.7919
 1022CL      CL 3475   1.493   3.072   0.663 -0.0830  0.5475 -0.1432
 1023CL      CL 3476   1.140   2.763   1.240 -0.0818 -0.3787  0.2278
 1024CL      CL 3477   0.105   2.472   3.144 -0.1392  0.0378  0.5345
 1025CL      CL 3478   0.474   2.655   0.737  0.5347  0.0564 -0.4286
 1026CL      CL 3479   0.450   2.906   3.309 -0.4154 -0.3183 -0.0851
 1027CL      CL 3480   0.095   3.262   0.714  0.2252 -0.2882 -0.1712
 1028CL      CL 3481   0.147   2.076   0.994 -0.3431 -0.3942  0.0880
 1029CL      CL 3482   1.137   3.294   0.742  0.0329  0.0128 -0.0152
 1030CL      CL 3483   0.165   2.598   0.500  0.2894  0.2933 -0.1365
   3.38711   3.38711   3.38711
