Generic title in water
 3475
    1PET     C9    1   3.153   1.828   2.836 -0.4246  0.1389 -0.2928
    1PET     H6    2   3.204   1.735   2.865  0.6530  1.4609  2.4644
    1PET     H7    3   3.102   1.866   2.926 -1.8622 -0.2964 -0.8868
    1PET     O2    4   3.051   1.800   2.735  0.9462 -0.5564  0.0688
    1PET     C8    5   2.990   1.916   2.709 -0.3253 -0.4909 -0.7353
    1PET     O1    6   2.991   2.020   2.777  0.1590 -0.1328  0.3884
    1PET     C4    7   2.912   1.897   2.585  0.1731 -0.4668 -0.2399
    1PET     C5    8   2.915   1.782   2.507  0.0219  0.4102  0.2128
    1PET     C6    9   2.826   1.763   2.400 -0.2676  0.5186 -0.8479
    1PET     H4   10   2.814   1.672   2.342 -0.7844  0.4791 -0.6842
    1PET     H3   11   2.983   1.698   2.516 -1.0577 -0.4515  0.5179
    1PET     C3   12   2.827   2.002   2.548  0.2678  0.2340 -0.3868
    1PET     H2   13   2.839   2.082   2.620  0.8611 -2.3318  2.5634
    1PET     C2   14   2.741   1.990   2.444  0.3148 -0.2203 -0.1722
    1PET     H1   15   2.670   2.066   2.411  1.6913  1.5952  0.8156
    1PET     C1   16   2.743   1.868   2.370  0.7070  0.1198 -0.4553
    1PET     C7   17   2.647   1.838   2.254  0.3882 -0.2642 -1.0461
    1PET     O3   18   2.608   1.731   2.220  0.0114  0.7424  0.5574
    1PET     O4   19   2.598   1.961   2.209  0.5456  0.2304 -0.0942
    1PET    C10   20   2.499   1.956   2.105 -0.6707  0.4010  0.2029
    1PET     H8   21   2.524   1.877   2.034  0.8714 -1.0530  2.2225
    1PET     H9   22   2.504   2.041   2.036 -0.9163  1.2763  1.2226
    1PET    C11   23   2.356   1.938   2.157 -0.3487 -0.2069 -0.4958
    1PET    H10   24   2.324   2.037   2.192 -4.2776 -1.8722  1.0758
    1PET    H11   25   2.357   1.865   2.238  3.9369 -1.1125 -1.0949
    1PET    C12   26   2.261   1.902   2.040 -0.2546 -0.7138 -0.2321
    1PET    H13   27   2.278   1.799   2.009  2.7354  0.0369 -1.3826
    1PET    H14   28   2.290   1.967   1.957 -2.9214 -0.0550 -0.7442
    2PEO     C1   29   2.107   1.931   2.051 -0.5511 -0.1042  1.1534
    2PEO     H3   30   2.062   1.908   1.953  2.3618  2.6763 -1.0556
    2PEO     H4   31   2.078   2.035   2.069 -1.4751 -0.1665  0.1877
    2PEO      O   32   2.058   1.842   2.153  0.7088 -0.3246 -0.0147
    2PEO     C2   33   1.916   1.833   2.172 -0.3996 -0.5917 -0.2532
    2PEO     H5   34   1.886   1.736   2.214 -0.2534  0.2369  1.9090
    2PEO     H6   35   1.861   1.838   2.077 -0.6078  2.3581 -0.0773
    2PEO     C3   36   1.854   1.947   2.262 -0.1334  0.0944 -0.0290
    2PEO     H7   37   1.747   1.962   2.243 -0.2050  0.5806  0.7196
    2PEO     H8   38   1.902   2.040   2.229  1.1365 -0.5345  0.0111
    2PEO     O1   39   1.875   1.913   2.401  0.8019  0.2639 -0.2145
    2PEO     C4   40   2.006   1.927   2.467  0.7091 -0.7994  0.3333
    2PEO     H9   41   2.060   2.017   2.438  2.8186 -2.1319 -0.0775
    2PEO    H10   42   2.059   1.837   2.433 -1.8707 -2.4885  0.4700
    2PEO     C5   43   1.990   1.929   2.613  0.2464  0.8792  0.4592
    2PEO    H11   44   1.944   1.835   2.647 -1.8352  1.4536 -0.6068
    2PEO    H12   45   1.935   2.019   2.641 -1.4976 -0.0427  0.1312
    2PEO     O2   46   2.116   1.949   2.675 -0.2782  0.6535 -0.6066
    2PEO     C6   47   2.197   1.835   2.674 -1.0182 -0.1703 -0.1064
    2PEO    H13   48   2.211   1.787   2.577  2.2505  3.6374 -1.8494
    2PEO    H14   49   2.162   1.768   2.753 -0.5689 -0.4642 -0.1494
    2PEO     C7   50   2.339   1.883   2.698  0.2236  0.1411 -0.1491
    2PEO    H15   51   2.349   1.970   2.633 -1.1259  0.1450 -0.3835
    2PEO    H16   52   2.411   1.803   2.675  0.0315 -1.9437  5.0285
    2PEO     O3   53   2.345   1.928   2.835 -0.5653  0.7002 -0.2649
    2PEO     C8   54   2.455   2.011   2.860  0.0589  0.4635  0.0936
    2PEO    H17   55   2.456   2.086   2.780  0.0351 -1.2769 -1.6248
    2PEO    H18   56   2.547   1.952   2.874  0.3869  1.2477  1.4616
    2PEO     C9   57   2.440   2.083   2.999 -1.2628  0.2924 -0.0846
    2PEO    H19   58   2.343   2.126   3.025 -0.9556 -0.7362  3.2212
    2PEO    H20   59   2.518   2.160   2.997 -0.1541 -0.8011 -1.6246
    2PEO     O4   60   2.464   1.984   3.103  0.4156 -0.0315  0.0312
    2PEO    C10   61   2.483   2.014   3.234 -0.4112  0.2827 -0.4346
    2PEO    H21   62   2.461   2.120   3.252  2.3568  1.2744 -2.2558
    2PEO    H22   63   2.585   2.004   3.273 -1.1075 -1.6651  1.0736
    3PET     C9   64   2.389   1.923   3.313  0.7604 -1.0543 -0.6272
    3PET     H6   65   2.397   1.814   3.304  1.7099 -1.3019  2.3210
    3PET     H7   66   2.283   1.931   3.284  0.6858 -0.9233 -0.3263
    3PET     O2   67   2.400   1.973   3.449  0.5389  0.0885  0.8781
    3PET     C8   68   2.507   1.929   3.524  0.9551 -0.6996  1.1187
    3PET     O1   69   2.597   1.857   3.488  0.0141  0.2421 -0.2108
    3PET     C4   70   2.496   1.987   3.661 -0.4273  0.0813 -0.2527
    3PET     C5   71   2.432   2.106   3.694 -0.1829 -0.2428  0.4972
    3PET     C6   72   2.431   2.148   3.836  0.0861 -0.2881  0.6080
    3PET     H4   73   2.389   2.245   3.862  0.2900  0.1851 -0.7612
    3PET     H3   74   2.376   2.163   3.621 -1.7661 -1.7106  0.5018
    3PET     C3   75   2.562   1.911   3.762  0.5043 -0.3536  0.9286
    3PET     H2   76   2.628   1.829   3.735  3.1860  1.9346  0.0948
    3PET     C2   77   2.566   1.956   3.892  1.0170  0.1472 -1.2083
    3PET     H1   78   2.619   1.894   3.964  1.0563 -0.4627 -1.7524
    3PET     C1   79   2.485   2.065   3.935 -0.2122 -0.0444  0.3689
    3PET     C7   80   2.469   2.111   4.078  0.3799 -0.2306  0.0951
    3PET     O3   81   2.399   2.210   4.107 -0.1726  0.8593 -0.2598
    3PET     O4   82   2.526   2.030   4.170 -0.3533 -0.3087  0.2234
    3PET    C10   83   2.537   2.084   4.303 -0.2907 -0.0771 -0.1668
    3PET     H8   84   2.569   2.012   4.379 -0.5685 -0.8768 -0.8024
    3PET     H9   85   2.438   2.114   4.338  0.6599 -1.2276  4.0857
    3PET    C11   86   2.640   2.205   4.299 -0.0208 -0.5187  0.6314
    3PET    H10   87   2.604   2.287   4.363 -2.0811 -2.1679  1.7159
    3PET    H11   88   2.649   2.255   4.202 -0.2368 -0.1896  0.7759
    3PET    C12   89   2.782   2.181   4.358  0.3058 -0.0337 -0.4268
    3PET    H13   90   2.810   2.081   4.323 -1.4010 -0.5452 -0.4102
    3PET    H14   91   2.791   2.187   4.467  1.5666 -0.6046 -0.4880
    4PET     C9   92   2.889   2.277   4.314 -0.4172 -1.0537  0.1359
    4PET     H6   93   2.987   2.273   4.363 -1.3519  1.9113  2.5279
    4PET     H7   94   2.858   2.376   4.349  0.7860 -0.3164 -0.8173
    4PET     O2   95   2.890   2.276   4.168 -0.6993  0.1187 -0.4842
    4PET     C8   96   2.950   2.166   4.111  0.1465 -0.3655 -0.3495
    4PET     O1   97   3.003   2.072   4.171  0.0462 -0.1034 -0.0726
    4PET     C4   98   2.923   2.149   3.966 -0.7217 -0.2656  0.4820
    4PET     C5   99   2.820   2.220   3.903  0.7995  0.6446 -0.9516
    4PET     C6  100   2.772   2.186   3.780 -0.7229  0.6457 -0.6914
    4PET     H4  101   2.685   2.242   3.748 -1.7520  0.5398  1.7501
    4PET     H3  102   2.763   2.290   3.964  0.2939 -1.0531  0.6355
    4PET     C3  103   3.002   2.065   3.889  1.0392 -0.5941 -0.1607
    4PET     H2  104   3.085   2.008   3.930  3.4437  0.8037 -2.7405
    4PET     C2  105   2.969   2.045   3.756 -0.3616  0.2418  0.3265
    4PET     H1  106   3.048   1.990   3.706  1.8101  2.2192  1.4334
    4PET     C1  107   2.851   2.102   3.696 -0.3669 -0.1637 -0.6385
    4PET     C7  108   2.826   2.101   3.543  0.2289  0.1857  0.2644
    4PET     O3  109   2.747   2.173   3.486 -0.5494 -0.8437 -0.1487
    4PET     O4  110   2.905   2.001   3.483 -0.7108 -0.1131  0.2869
    4PET    C10  111   2.886   1.977   3.343 -0.4467  0.7550 -0.0105
    4PET     H8  112   2.931   2.053   3.279 -0.4318 -1.0963 -2.3633
    4PET     H9  113   2.787   1.941   3.311  0.7063 -0.8046 -2.1538
    4PET    C11  114   2.986   1.857   3.318 -0.3995 -0.7768  0.0623
    4PET    H10  115   2.955   1.768   3.373 -0.5013 -1.1455 -0.5902
    4PET    H11  116   3.087   1.883   3.353  0.4396 -0.4842 -2.3638
    4PET    C12  117   3.006   1.820   3.173 -0.0990  1.0419  0.3629
    4PET    H13  118   3.064   1.728   3.161 -1.0244  0.8455 -5.8624
    4PET    H14  119   3.061   1.900   3.123  0.7920 -0.1461 -0.6059
    5PET     C9  120   2.865   1.797   3.100  0.1252  0.7756  0.6130
    5PET     H6  121   2.813   1.886   3.063 -0.5084 -0.9705 -3.2619
    5PET     H7  122   2.791   1.749   3.166  1.4950 -0.9322  0.9834
    5PET     O2  123   2.887   1.704   2.989 -0.3460 -0.1883  1.2251
    5PET     C8  124   2.796   1.693   2.889 -0.1325  1.0012 -0.2469
    5PET     O1  125   2.697   1.773   2.882  0.5807  0.1132 -0.5162
    5PET     C4  126   2.831   1.588   2.782 -0.6694 -0.2255  0.3711
    5PET     C5  127   2.940   1.494   2.812 -0.4961 -0.5937 -0.2983
    5PET     C6  128   2.962   1.390   2.721  0.4814  0.2827  0.6535
    5PET     H4  129   3.032   1.310   2.741  1.3481  1.5746  3.2434
    5PET     H3  130   3.004   1.515   2.898 -1.0135 -0.0118 -0.0525
    5PET     C3  131   2.746   1.576   2.670  0.5378  0.8801 -0.5383
    5PET     H2  132   2.660   1.641   2.660 -1.0050 -0.9699 -0.0250
    5PET     C2  133   2.762   1.461   2.593 -0.1326  0.1363  0.1922
    5PET     H1  134   2.697   1.451   2.507  0.8344 -1.3385 -0.3921
    5PET     C1  135   2.868   1.373   2.612  0.3840  0.5333  0.6066
    5PET     C7  136   2.868   1.253   2.528 -0.1046  0.0296 -0.5641
    5PET     O3  137   2.765   1.204   2.486  0.8124 -0.5834 -0.7429
    5PET     O4  138   2.985   1.182   2.525  0.0780 -0.7365  0.2526
    5PET    C10  139   2.992   1.060   2.454 -0.2819 -0.0222  0.2921
    5PET     H8  140   3.098   1.036   2.460 -0.5262 -1.0230  4.6486
    5PET     H9  141   2.974   1.082   2.349  0.5936 -2.3577 -0.4210
    5PET    C11  142   2.905   0.947   2.518  0.1744  0.1601 -0.4159
    5PET    H10  143   2.846   0.985   2.602 -0.0362 -0.0264 -0.4801
    5PET    H11  144   2.970   0.874   2.568  0.4719 -0.4820 -1.7096
    5PET    C12  145   2.798   0.887   2.425  0.1931 -0.3723  0.1227
    5PET    H13  146   2.741   0.971   2.383  0.9410  0.9510  1.6258
    5PET    H14  147   2.727   0.822   2.476 -1.2612  0.6070 -0.5682
    6PEO     C1  148   2.880   0.808   2.309  0.0585  0.7616 -0.2170
    6PEO     H3  149   2.950   0.878   2.261  1.0914 -1.2289 -1.7812
    6PEO     H4  150   2.815   0.766   2.231 -2.5375  2.6955  0.7313
    6PEO      O  151   2.956   0.702   2.367 -0.6082 -0.3850  1.1829
    6PEO     C2  152   2.885   0.575   2.394  0.3575 -0.4513 -0.1580
    6PEO     H5  153   2.829   0.551   2.303  0.4308 -4.9843  0.7954
    6PEO     H6  154   2.811   0.595   2.473 -1.3360  0.8460 -1.9671
    6PEO     C3  155   2.968   0.454   2.416  0.0108 -0.4302 -0.5514
    6PEO     H7  156   3.061   0.459   2.358  0.8161 -0.1095  0.7236
    6PEO     H8  157   2.914   0.365   2.381 -1.3300  0.0958  0.1047
    6PEO     O1  158   2.997   0.432   2.557  0.1280 -0.4186  0.1179
    6PEO     C4  159   3.043   0.544   2.636  0.1002  0.3133 -0.2801
    6PEO     H9  160   2.961   0.612   2.662 -1.3014 -0.4185 -2.5465
    6PEO    H10  161   3.104   0.610   2.573 -0.5196  0.9895 -0.1902
    6PEO     C5  162   3.100   0.507   2.770 -0.3826  0.3053 -0.4173
    6PEO    H11  163   3.161   0.416   2.774 -0.9667 -0.2196 -2.3813
    6PEO    H12  164   3.027   0.495   2.851 -0.3506 -0.4354 -0.4898
    6PEO     O2  165   3.203   0.604   2.805  0.3935 -0.0582  0.2645
    6PEO     C6  166   3.154   0.729   2.857  0.0873 -0.9138 -0.7695
    6PEO    H13  167   3.058   0.724   2.910 -0.1833  0.2272 -1.1403
    6PEO    H14  168   3.141   0.799   2.774  0.6474  0.0777 -0.0482
    6PEO     C7  169   3.262   0.781   2.955 -0.2917 -0.2354  0.2695
    6PEO    H15  170   3.362   0.749   2.922 -0.6327 -0.4808 -0.5246
    6PEO    H16  171   3.256   0.732   3.053 -0.1845 -1.1539 -0.1709
    6PEO     O3  172   3.258   0.922   2.954 -0.3317  0.6446  0.0268
    6PEO     C8  173   3.345   1.002   2.884 -0.2597 -0.7878 -0.2577
    6PEO    H17  174   3.446   0.967   2.909 -0.6268 -0.7404  1.4594
    6PEO    H18  175   3.328   1.099   2.932 -2.1013 -1.3776  0.3677
    6PEO     C9  176   3.321   1.006   2.732 -0.2566  0.2224 -0.3808
    6PEO    H19  177   3.393   1.077   2.692 -1.2030  0.2374 -2.1525
    6PEO    H20  178   3.215   1.034   2.718 -0.4132  0.0421  0.4215
    6PEO     O4  179   3.336   0.883   2.684 -0.0847  0.5163  0.3268
    6PEO    C10  180   3.450   0.865   2.594 -0.0690 -0.0106  0.1806
    6PEO    H21  181   3.548   0.870   2.641  0.5004 -0.6080 -0.9074
    6PEO    H22  182   3.458   0.942   2.516 -0.1572  0.2501  0.4278
    7PET     C9  183   3.440   0.721   2.531  0.9031 -0.3830  0.0081
    7PET     H6  184   3.396   0.651   2.603  0.4032 -2.4830 -2.1988
    7PET     H7  185   3.535   0.670   2.513  1.7425 -0.0808  2.9972
    7PET     O2  186   3.366   0.726   2.401 -0.4039  0.1045 -0.4118
    7PET     C8  187   3.429   0.762   2.292 -0.4269 -0.9069  0.8339
    7PET     O1  188   3.554   0.775   2.287 -0.3769 -0.1006 -0.8102
    7PET     C4  189   3.332   0.772   2.180  0.5743 -0.3075 -0.8115
    7PET     C5  190   3.214   0.691   2.183 -0.2316 -1.1278  0.4687
    7PET     C6  191   3.129   0.682   2.070 -0.7134 -1.0397  0.3639
    7PET     H4  192   3.044   0.616   2.080 -0.7453 -1.0623 -0.0406
    7PET     H3  193   3.200   0.617   2.262  2.5083 -2.1211  0.1324
    7PET     C3  194   3.358   0.848   2.071  0.3278 -1.1297 -0.1098
    7PET     H2  195   3.445   0.912   2.068 -0.6173  0.2578  0.9469
    7PET     C2  196   3.278   0.835   1.958  0.4975  0.5911 -0.5049
    7PET     H1  197   3.306   0.890   1.868 -2.1122 -1.8286 -3.0054
    7PET     C1  198   3.160   0.762   1.959  0.1636 -0.4496  0.4128
    7PET     C7  199   3.057   0.775   1.841 -0.6993  0.3987 -0.4136
    7PET     O3  200   3.069   0.853   1.749  0.4182 -0.2572  0.2803
    7PET     O4  201   2.955   0.687   1.858  0.1386 -1.3429  0.2286
    7PET    C10  202   2.844   0.693   1.776 -0.0537 -0.0628  0.0096
    7PET     H8  203   2.781   0.605   1.794  1.1474 -1.4744 -2.2454
    7PET     H9  204   2.871   0.697   1.670  0.7878  2.3327  0.2489
    7PET    C11  205   2.752   0.813   1.791 -0.5352 -0.6505  0.9050
    7PET    H10  206   2.677   0.808   1.711 -2.1818  1.4509  2.2192
    7PET    H11  207   2.818   0.896   1.763  1.7010 -2.5514  0.2175
    7PET    C12  208   2.659   0.838   1.925  0.3233  0.3685  0.1028
    7PET    H13  209   2.722   0.808   2.010  2.4260  1.2834 -1.0540
    7PET    H14  210   2.569   0.776   1.920  0.4405  0.1920  0.1211
    8PET     C9  211   2.589   0.976   1.951  0.3710 -0.4102 -0.4388
    8PET     H6  212   2.517   0.963   2.033  0.1843 -0.2240 -0.5719
    8PET     H7  213   2.534   0.999   1.859 -0.3305  2.2679  0.5562
    8PET     O2  214   2.697   1.068   1.985  0.6305 -0.4711  0.1533
    8PET     C8  215   2.658   1.191   2.026  0.8736  0.4760 -0.0854
    8PET     O1  216   2.548   1.242   2.007 -0.5587  0.4940 -0.6738
    8PET     C4  217   2.774   1.274   2.071  0.3066 -0.6619  0.0337
    8PET     C5  218   2.771   1.412   2.055 -1.3834  0.4358  0.1240
    8PET     C6  219   2.882   1.493   2.096 -0.7011  0.4892  0.5615
    8PET     H4  220   2.869   1.601   2.086 -0.2767  0.3963 -1.3603
    8PET     H3  221   2.684   1.461   2.012 -0.9195 -0.3203 -1.7686
    8PET     C3  222   2.898   1.215   2.113  0.1196 -0.1919 -0.4486
    8PET     H2  223   2.910   1.107   2.122  0.2379 -0.0316  2.1747
    8PET     C2  224   3.005   1.292   2.161 -1.1058  0.0829  1.3617
    8PET     H1  225   3.098   1.244   2.191 -0.3105  0.5850 -0.2131
    8PET     C1  226   3.000   1.434   2.150 -0.1058 -0.4039 -0.1227
    8PET     C7  227   3.111   1.519   2.208 -0.5422  0.1350 -0.8190
    8PET     O3  228   3.106   1.640   2.224  0.4846 -0.5970  0.2841
    8PET     O4  229   3.215   1.443   2.275  0.3943  0.3921 -0.4802
    8PET    C10  230   3.320   1.521   2.337 -0.8826  0.4253  1.1040
    8PET     H8  231   3.362   1.457   2.415 -2.7688  0.9470  2.6154
    8PET     H9  232   3.294   1.623   2.368 -0.6998  2.1406 -3.5827
    8PET    C11  233   3.417   1.560   2.230  0.7247 -0.3080  0.1469
    8PET    H10  234   3.477   1.644   2.265  3.7061 -2.0522 -0.3884
    8PET    H11  235   3.358   1.605   2.149 -0.4316  0.2695  1.2812
    8PET    C12  236   3.513   1.449   2.163 -0.4253  0.6473  0.7715
    8PET    H13  237   3.601   1.430   2.225 -0.4977 -2.1614  0.1646
    8PET    H14  238   3.553   1.501   2.076 -0.3699 -2.0775 -0.9721
    9PET     C9  239   3.447   1.315   2.129  0.2260  0.9966 -0.6236
    9PET     H6  240   3.392   1.257   2.204 -0.1660  0.4454 -1.3190
    9PET     H7  241   3.524   1.246   2.091 -0.8004 -0.2026 -0.6222
    9PET     O2  242   3.357   1.350   2.021  0.1549  0.3154 -0.4032
    9PET     C8  243   3.272   1.261   1.967  0.0986  1.1381 -1.3708
    9PET     O1  244   3.269   1.147   2.015  0.6318  0.3422 -0.9063
    9PET     C4  245   3.186   1.313   1.854 -0.6689  0.2551  0.3465
    9PET     C5  246   3.194   1.448   1.822 -0.0812  0.6940 -0.1520
    9PET     C6  247   3.096   1.510   1.745  0.4572 -0.8528 -1.0987
    9PET     H4  248   3.097   1.616   1.724  2.8133 -0.5765  0.0515
    9PET     H3  249   3.279   1.508   1.854  0.0983  0.5841 -0.4247
    9PET     C3  250   3.092   1.236   1.790  0.1938  0.2558  1.1774
    9PET     H2  251   3.074   1.134   1.823  1.5932 -0.7627 -0.9452
    9PET     C2  252   2.990   1.293   1.710 -0.2461  0.1092  0.0120
    9PET     H1  253   2.912   1.235   1.661 -0.7014  1.1945 -0.5911
    9PET     C1  254   2.994   1.431   1.682 -0.7307 -0.4317  0.4328
    9PET     C7  255   2.885   1.505   1.606 -0.4300 -0.8736 -0.6103
    9PET     O3  256   2.892   1.628   1.573 -0.8973  0.1866 -0.1542
    9PET     O4  257   2.773   1.433   1.578  0.0956 -0.2008  0.0841
    9PET    C10  258   2.647   1.492   1.535  0.3151 -0.5130  0.1799
    9PET     H8  259   2.586   1.413   1.489  1.4201 -0.2375 -1.8526
    9PET     H9  260   2.651   1.578   1.467 -4.2976  0.5288  0.8696
    9PET    C11  261   2.574   1.544   1.667  0.4257  0.2072  0.0788
    9PET    H10  262   2.649   1.608   1.715 -0.7343  1.7727 -0.1169
    9PET    H11  263   2.565   1.455   1.730  1.4533  0.5823  0.7823
    9PET    C12  264   2.451   1.635   1.642  0.0114  0.1768 -0.3877
    9PET    H13  265   2.448   1.679   1.542 -0.0729  2.4198  0.5361
    9PET    H14  266   2.442   1.715   1.716 -1.6896 -1.4666  1.2995
   10PET     C9  267   2.320   1.553   1.638  0.6044 -0.1361 -0.4201
   10PET     H6  268   2.341   1.447   1.620  1.3439 -0.4759  2.0220
   10PET     H7  269   2.243   1.593   1.571 -0.6498 -2.6688 -0.6220
   10PET     O2  270   2.282   1.550   1.777  0.2875 -0.1320 -0.4495
   10PET     C8  271   2.153   1.510   1.795  0.2699  0.5665  0.0868
   10PET     O1  272   2.076   1.478   1.705  0.6948 -0.2438  0.7424
   10PET     C4  273   2.106   1.511   1.938  0.4400  0.6268  0.0986
   10PET     C5  274   1.969   1.513   1.983 -0.4012  0.4026  0.2209
   10PET     C6  275   1.932   1.504   2.116  0.3616 -0.5111 -0.5840
   10PET     H4  276   1.826   1.512   2.137  0.5655  0.3173  0.1954
   10PET     H3  277   1.889   1.534   1.913  0.8174  1.1163 -1.0331
   10PET     C3  278   2.200   1.506   2.048  0.5784 -0.3603  0.6751
   10PET     H2  279   2.307   1.503   2.031  0.7869 -0.5372  1.9854
   10PET     C2  280   2.164   1.503   2.181 -0.1840  0.0702  1.0460
   10PET     H1  281   2.243   1.504   2.256 -0.6952  0.9178  1.5852
   10PET     C1  282   2.029   1.499   2.218  0.3131  0.6278  0.3348
   10PET     C7  283   1.985   1.500   2.365 -0.5239 -0.3077 -1.0698
   10PET     O3  284   2.064   1.464   2.456  0.2110  1.1941  0.3030
   10PET     O4  285   1.855   1.538   2.384  0.0452 -0.4031  0.0942
   10PET    C10  286   1.798   1.531   2.509 -1.0527 -0.1472  0.2578
   10PET     H8  287   1.874   1.557   2.584  0.2176 -2.5661 -0.1096
   10PET     H9  288   1.753   1.434   2.534  0.9140 -0.7101  1.8225
   10PET    C11  289   1.685   1.634   2.504  0.0489 -0.1324 -0.4591
   10PET    H10  290   1.732   1.717   2.449  0.5363  1.0227  1.5818
   10PET    H11  291   1.663   1.679   2.602 -1.7155 -0.6562 -0.5907
   10PET    C12  292   1.555   1.582   2.435  0.4069  0.4115 -0.2466
   10PET    H13  293   1.569   1.592   2.326  1.9230  1.8648  0.0479
   10PET    H14  294   1.466   1.638   2.467 -1.7494 -1.7821 -1.9223
   11PET     C9  295   1.524   1.426   2.463 -0.2670 -0.9683 -0.2175
   11PET     H6  296   1.416   1.414   2.446 -0.8913  2.0576  1.0909
   11PET     H7  297   1.527   1.399   2.569 -2.0170  1.7809  0.6186
   11PET     O2  298   1.603   1.347   2.381 -0.6774  0.6036 -0.2540
   11PET     C8  299   1.560   1.227   2.345  0.7593  1.1078 -0.1448
   11PET     O1  300   1.447   1.172   2.365 -0.5408 -0.2519 -0.9641
   11PET     C4  301   1.659   1.155   2.253  0.0417  0.0095  0.3062
   11PET     C5  302   1.757   1.233   2.192  0.8459 -0.0624  0.3744
   11PET     C6  303   1.848   1.172   2.103  0.5192  0.4521 -0.4193
   11PET     H4  304   1.928   1.237   2.068 -1.4965  3.0428 -0.4526
   11PET     H3  305   1.750   1.340   2.209  1.3607 -0.0808  0.7649
   11PET     C3  306   1.646   1.018   2.218 -0.9622  0.4173  0.4685
   11PET     H2  307   1.562   0.967   2.266  0.7687 -2.5851  0.5192
   11PET     C2  308   1.740   0.954   2.140 -0.6202  0.7154 -0.0175
   11PET     H1  309   1.720   0.847   2.141  0.3367  0.5219 -0.3049
   11PET     C1  310   1.840   1.031   2.078  0.3104 -0.2864 -1.2685
   11PET     C7  311   1.952   0.966   2.003  0.0726 -0.3297 -0.1081
   11PET     O3  312   2.006   1.033   1.914  0.3572 -0.3742  0.0218
   11PET     O4  313   1.983   0.843   2.041  0.7119 -0.3446 -0.0906
   11PET    C10  314   2.094   0.778   1.975  1.0417 -0.9940 -0.0837
   11PET     H8  315   2.176   0.848   1.961  0.9749 -0.3599  2.1884
   11PET     H9  316   2.062   0.753   1.873  0.5290 -0.1331 -0.1480
   11PET    C11  317   2.134   0.649   2.059 -1.0032  0.1692  0.2747
   11PET    H10  318   2.175   0.678   2.157  2.2309 -2.3710 -0.1694
   11PET    H11  319   2.225   0.608   2.014  1.6448 -0.0417  5.1327
   11PET    C12  320   2.016   0.555   2.069 -0.6837  0.7360  0.0140
   11PET    H13  321   1.974   0.549   1.968 -0.8977 -1.0889  0.1798
   11PET    H14  322   1.944   0.600   2.139 -1.4066 -1.1162  0.5352
   12PET     C9  323   2.047   0.420   2.134  0.3247  0.5980 -0.5956
   12PET     H6  324   2.135   0.362   2.102 -1.4014 -1.7461 -1.3146
   12PET     H7  325   1.962   0.355   2.110  1.4151 -0.4437 -1.8175
   12PET     O2  326   2.062   0.428   2.270 -1.0637  0.3296 -0.3023
   12PET     C8  327   2.185   0.438   2.328  0.1910 -1.4109 -0.3243
   12PET     O1  328   2.285   0.462   2.269 -0.2079 -0.7208  0.2336
   12PET     C4  329   2.175   0.422   2.475 -0.2983  0.3353 -0.2283
   12PET     C5  330   2.293   0.413   2.552  0.0765 -0.0971 -0.1851
   12PET     C6  331   2.290   0.414   2.698  0.2325 -0.4230 -0.0607
   12PET     H4  332   2.375   0.416   2.766  1.0215  4.1061 -0.8988
   12PET     H3  333   2.390   0.429   2.505  1.3936 -1.2661  1.9796
   12PET     C3  334   2.052   0.411   2.548  0.4908 -0.1571  0.1679
   12PET     H2  335   1.954   0.425   2.502  0.0945 -2.2290  0.2860
   12PET     C2  336   2.053   0.405   2.687  0.3848 -0.0575 -0.0568
   12PET     H1  337   1.957   0.413   2.736 -0.4026 -0.7883 -1.4233
   12PET     C1  338   2.165   0.411   2.757 -0.1168  0.4315  0.7860
   12PET     C7  339   2.158   0.410   2.900 -0.4247 -0.4104 -1.0232
   12PET     O3  340   2.251   0.371   2.970 -0.5990  0.2532  0.6473
   12PET     O4  341   2.044   0.467   2.958  0.4199 -0.0410 -0.1070
   12PET    C10  342   2.032   0.478   3.096  0.7954 -1.0916  1.0300
   12PET     H8  343   2.087   0.567   3.131 -1.2870 -0.3281  2.5380
   12PET     H9  344   2.081   0.396   3.151  1.2251  0.6605  3.4331
   12PET    C11  345   1.892   0.499   3.118  0.7546  0.5731 -0.0695
   12PET    H10  346   1.832   0.421   3.071  0.8129  2.1580 -2.9989
   12PET    H11  347   1.862   0.600   3.089 -1.7217  0.4718  1.8383
   12PET    C12  348   1.839   0.492   3.270  0.0153 -0.7565 -0.2097
   12PET    H13  349   1.823   0.390   3.308  1.3816 -0.9216 -0.0443
   12PET    H14  350   1.737   0.531   3.280  0.6501  0.4107  2.6582
   13PET     C9  351   1.936   0.567   3.379  0.3349  0.5606  0.9542
   13PET     H6  352   1.915   0.546   3.484  1.0735 -0.1078  0.9826
   13PET     H7  353   1.933   0.676   3.376  0.3573  0.5462  0.2043
   13PET     O2  354   2.079   0.539   3.360 -0.3438  0.1862 -0.0478
   13PET     C8  355   2.170   0.626   3.424  0.3528  0.1191  0.3459
   13PET     O1  356   2.138   0.717   3.492  0.8559 -0.4428 -0.0332
   13PET     C4  357   2.308   0.582   3.409 -0.5840 -0.4893  0.7651
   13PET     C5  358   2.403   0.659   3.470  0.2906  0.7702 -0.3895
   13PET     C6  359   2.537   0.624   3.453  0.5115  0.6604  0.9775
   13PET     H4  360   2.610   0.682   3.508  0.0265  3.2364 -0.9084
   13PET     H3  361   2.361   0.727   3.543  0.6348 -0.0468  0.6041
   13PET     C3  362   2.341   0.477   3.326  0.2941  0.3026 -0.4184
   13PET     H2  363   2.264   0.421   3.274 -0.1420 -0.6022  1.1401
   13PET     C2  364   2.477   0.449   3.308 -0.6208 -0.3434 -0.2909
   13PET     H1  365   2.508   0.362   3.251  0.2011 -0.4391  0.2773
   13PET     C1  366   2.583   0.527   3.366 -0.0279 -0.3964 -0.1708
   13PET     C7  367   2.731   0.486   3.362  1.0798 -0.4877  0.3663
   13PET     O3  368   2.806   0.534   3.444 -0.2932  0.6153 -0.3953
   13PET     O4  369   2.767   0.399   3.270 -0.3095  0.6080 -0.2469
   13PET    C10  370   2.903   0.357   3.265  0.6022  0.5924  0.3620
   13PET     H8  371   2.927   0.295   3.351  0.5245 -0.5024 -0.3903
   13PET     H9  372   2.971   0.441   3.247  1.9562 -0.3508  0.9518
   13PET    C11  373   2.923   0.258   3.154  0.7492  0.1708  0.0140
   13PET    H10  374   2.851   0.176   3.160  2.1046 -0.9235  3.7043
   13PET    H11  375   3.022   0.221   3.181 -0.0521 -0.8334  1.7394
   13PET    C12  376   2.927   0.316   3.014 -1.1890  0.4405 -0.5215
   13PET    H13  377   2.986   0.249   2.949  0.9743  2.0682 -0.3421
   13PET    H14  378   2.990   0.405   3.024 -2.1966  0.8976  2.9176
   14PET     C9  379   2.800   0.349   2.953  0.6661  0.1702  1.0060
   14PET     H6  380   2.730   0.270   2.981  1.0580  0.0327  1.6347
   14PET     H7  381   2.817   0.352   2.845 -0.5631 -0.1098  0.7955
   14PET     O2  382   2.773   0.492   3.001  0.1573  0.4925  0.1025
   14PET     C8  383   2.642   0.529   3.012 -0.9399 -0.2637  0.1534
   14PET     O1  384   2.554   0.468   2.970 -0.4341 -0.2355  0.3111
   14PET     C4  385   2.634   0.663   3.089  0.1128 -0.1394 -0.3834
   14PET     C5  386   2.750   0.734   3.133 -0.9161  0.3736  0.3214
   14PET     C6  387   2.749   0.856   3.195 -0.2598 -0.0129  0.2474
   14PET     H4  388   2.844   0.900   3.224  0.0818  1.9783 -3.3330
   14PET     H3  389   2.846   0.682   3.134 -1.1436 -0.1092 -1.1972
   14PET     C3  390   2.518   0.741   3.105 -0.0200  0.3423  0.5508
   14PET     H2  391   2.422   0.707   3.069 -2.3376  2.0936  4.4563
   14PET     C2  392   2.514   0.859   3.166 -0.2232 -0.5872 -0.3706
   14PET     H1  393   2.416   0.905   3.164 -1.0964 -2.3578 -0.1478
   14PET     C1  394   2.631   0.920   3.225  0.2250  0.0810 -0.6233
   14PET     C7  395   2.632   1.050   3.298 -0.5657 -0.0768  0.0686
   14PET     O3  396   2.725   1.124   3.329  0.0148 -0.0859 -0.3544
   14PET     O4  397   2.506   1.099   3.304  0.5338 -0.0796 -0.0763
   14PET    C10  398   2.474   1.228   3.357  0.9449  0.4985 -0.0054
   14PET     H8  399   2.501   1.301   3.280 -2.6432  1.9279 -0.1156
   14PET     H9  400   2.523   1.239   3.454  0.8806  2.4417 -0.1537
   14PET    C11  401   2.322   1.227   3.364  0.1971 -0.2318  0.0007
   14PET    H10  402   2.282   1.126   3.382  0.5530 -0.8023 -2.1007
   14PET    H11  403   2.283   1.269   3.271  0.4676  1.1401  0.4900
   14PET    C12  404   2.273   1.303   3.485 -0.0197 -0.3254 -0.5334
   14PET    H13  405   2.281   1.411   3.465  2.2928 -0.8894 -3.2148
   14PET    H14  406   2.330   1.263   3.569 -1.5727 -2.4084 -0.3991
   15PET     C9  407   2.123   1.282   3.531 -0.2458  0.5961 -0.4122
   15PET     H6  408   2.060   1.258   3.444 -0.4874 -1.8204  0.3505
   15PET     H7  409   2.076   1.366   3.583  2.3852  2.9273 -1.5271
   15PET     O2  410   2.115   1.162   3.615  0.2801  0.5083 -0.5983
   15PET     C8  411   2.158   1.169   3.746  0.0116 -0.6159  0.3065
   15PET     O1  412   2.189   1.272   3.803 -0.3795  0.1804  0.1366
   15PET     C4  413   2.151   1.028   3.823  0.4096 -0.2343 -0.0306
   15PET     C5  414   2.146   0.908   3.748 -1.0575 -0.3820 -0.0086
   15PET     C6  415   2.125   0.789   3.813 -0.0567  0.2724  0.2061
   15PET     H4  416   2.145   0.696   3.760  0.5173 -0.6751  1.9965
   15PET     H3  417   2.163   0.917   3.641 -0.7514  0.4008  0.0946
   15PET     C3  418   2.141   1.017   3.961  0.1985 -0.6337  0.1207
   15PET     H2  419   2.151   1.111   4.014  0.7898  0.6165 -2.0633
   15PET     C2  420   2.110   0.900   4.024  0.0340 -0.3852  0.1834
   15PET     H1  421   2.106   0.897   4.132 -3.9952  0.0317  0.2209
   15PET     C1  422   2.105   0.784   3.948  0.0831 -0.0953  0.2314
   15PET     C7  423   2.100   0.649   4.015  0.4003  1.3766  0.0033
   15PET     O3  424   2.091   0.632   4.138  0.9800  0.6113 -0.2292
   15PET     O4  425   2.107   0.541   3.926 -0.1491 -0.7783 -0.4459
   15PET    C10  426   2.144   0.405   3.970  0.5020 -1.0171  0.3363
   15PET     H8  427   2.051   0.346   3.972 -0.8369  0.7049 -2.9639
   15PET     H9  428   2.197   0.397   4.065  1.5511 -1.5892 -0.2923
   15PET    C11  429   2.235   0.344   3.862 -0.4895 -0.0544  1.2971
   15PET    H10  430   2.277   0.249   3.897  2.3774 -0.4517 -2.5891
   15PET    H11  431   2.323   0.409   3.855  0.3268 -0.6994  4.2949
   15PET    C12  432   2.152   0.320   3.728 -0.0089  0.3373 -0.1610
   15PET    H13  433   2.116   0.420   3.701  0.0082  1.7119  4.0399
   15PET    H14  434   2.066   0.254   3.741  0.8629 -0.6630  0.7476
   16PET     C9  435   2.238   0.264   3.619 -0.0379  0.9413  0.2055
   16PET     H6  436   2.273   0.169   3.662 -0.5496 -0.2888 -1.9379
   16PET     H7  437   2.320   0.330   3.590  1.9326 -1.5820 -0.2543
   16PET     O2  438   2.158   0.237   3.497 -0.4797 -0.8218 -0.1021
   16PET     C8  439   2.233   0.163   3.401  0.0243 -0.0245  0.0949
   16PET     O1  440   2.351   0.133   3.412 -0.3144  0.2321  0.3053
   16PET     C4  441   2.151   0.120   3.267 -0.7461 -1.0076  0.3527
   16PET     C5  442   2.233   0.068   3.164  0.0154  0.3181 -1.3889
   16PET     C6  443   2.173   0.027   3.042 -0.3685 -0.5957  0.1616
   16PET     H4  444   2.238  -0.012   2.965 -0.6142  3.0977 -2.1484
   16PET     H3  445   2.341   0.059   3.171  0.2571  2.9146 -0.9557
   16PET     C3  446   2.018   0.145   3.243 -0.1703  0.0461 -0.2711
   16PET     H2  447   1.957   0.191   3.321 -0.1713  0.2360 -0.3832
   16PET     C2  448   1.964   0.112   3.124  0.5081  0.1688 -0.6783
   16PET     H1  449   1.856   0.124   3.115  0.3821  0.0546  0.5131
   16PET     C1  450   2.039   0.052   3.021 -0.1375  0.5553 -0.0496
   16PET     C7  451   1.979   0.015   2.886 -0.3289  0.6260  0.6698
   16PET     O3  452   2.051  -0.025   2.791 -0.8113  0.4269  0.0684
   16PET     O4  453   1.848   0.049   2.875  0.2412 -0.6130 -0.4237
   16PET    C10  454   1.777   0.029   2.746  0.7302 -0.2638  0.1392
   16PET     H8  455   1.816  -0.059   2.693  2.3814  2.5599 -3.8864
   16PET     H9  456   1.779   0.115   2.677 -2.6093 -1.3208 -1.5111
   16PET    C11  457   1.623   0.022   2.759 -0.0242 -0.2200 -1.1300
   16PET    H10  458   1.616  -0.045   2.846  3.8291  1.9243  1.1073
   16PET    H11  459   1.587  -0.040   2.676 -3.1048  0.2484 -0.2673
   16PET    C12  460   1.559   0.160   2.769  0.1940 -0.5422 -0.1653
   16PET    H13  461   1.451   0.145   2.758 -0.3904 -0.0996  3.7109
   16PET    H14  462   1.596   0.225   2.689  2.5241 -0.2769  1.0468
   17PET     C9  463   1.579   0.240   2.905  0.3238  0.4396  0.2163
   17PET     H6  464   1.682   0.277   2.917  0.7540  0.5393 -2.9007
   17PET     H7  465   1.567   0.158   2.977  2.5591 -0.2297 -0.0733
   17PET     O2  466   1.477   0.352   2.932 -0.4085 -0.2873  0.6263
   17PET     C8  467   1.477   0.466   2.854  0.5688  0.2203  0.8607
   17PET     O1  468   1.560   0.473   2.764  0.3024 -0.4251  0.3663
   17PET     C4  469   1.357   0.561   2.872 -0.0476 -0.3221  0.2809
   17PET     C5  470   1.257   0.544   2.963  0.6051 -0.9848 -0.7156
   17PET     C6  471   1.151   0.638   2.975 -0.7405 -0.1652  0.7685
   17PET     H4  472   1.089   0.626   3.063 -0.8516 -2.0757  0.4778
   17PET     H3  473   1.263   0.481   3.051  0.2991  0.6493  0.5346
   17PET     C3  474   1.336   0.665   2.778 -0.5606  0.2516 -0.3745
   17PET     H2  475   1.412   0.663   2.701  1.7582 -0.2112  1.7785
   17PET     C2  476   1.230   0.756   2.775 -0.1045  0.3138 -0.5852
   17PET     H1  477   1.211   0.834   2.701 -2.7070 -1.6752 -2.2242
   17PET     C1  478   1.132   0.741   2.876 -1.0292  0.0256  0.4067
   17PET     C7  479   1.022   0.832   2.887  0.9251  0.3128  0.0766
   17PET     O3  480   0.923   0.797   2.945  0.1667 -0.0869 -0.2820
   17PET     O4  481   1.031   0.952   2.819  0.6763  0.6032  0.2528
   17PET    C10  482   0.917   1.030   2.805 -0.0473 -0.0358  0.5912
   17PET     H8  483   0.876   1.060   2.902 -1.6345  2.5241 -0.7509
   17PET     H9  484   0.838   0.987   2.742  0.8137 -0.5458 -0.1565
   17PET    C11  485   0.964   1.159   2.728  0.0323  0.4363 -0.3363
   17PET    H10  486   0.887   1.237   2.722  0.8177  1.1293 -2.0481
   17PET    H11  487   0.972   1.136   2.621 -4.2596 -1.8577 -0.4021
   17PET    C12  488   1.106   1.213   2.765  0.4925 -0.2068  0.4024
   17PET    H13  489   1.178   1.193   2.685  1.1440  0.4085  0.8171
   17PET    H14  490   1.130   1.158   2.857  2.3528 -3.2054 -1.7144
   18PET     C9  491   1.107   1.361   2.775 -0.0629 -0.3214 -0.5006
   18PET     H6  492   1.050   1.395   2.863  1.2351  1.1609 -0.1972
   18PET     H7  493   1.065   1.400   2.682  1.5351  4.0757  0.3743
   18PET     O2  494   1.242   1.400   2.784  0.4330 -0.3240  0.0259
   18PET     C8  495   1.257   1.540   2.802 -0.1555 -0.4224 -0.4535
   18PET     O1  496   1.165   1.619   2.807 -0.3696  0.1596  0.3773
   18PET     C4  497   1.401   1.583   2.806  0.7961  0.1578  0.0079
   18PET     C5  498   1.499   1.478   2.826 -1.3015 -0.2049 -0.6426
   18PET     C6  499   1.633   1.517   2.855  0.1338  0.0714 -0.9459
   18PET     H4  500   1.711   1.442   2.868 -0.0803 -0.0843 -0.5566
   18PET     H3  501   1.478   1.373   2.807  0.7066 -0.5920 -1.0030
   18PET     C3  502   1.429   1.719   2.830 -0.0812 -0.7800  0.6140
   18PET     H2  503   1.344   1.784   2.812  0.4678  0.2546  1.6344
   18PET     C2  504   1.564   1.760   2.867  0.1272 -1.0922  1.0746
   18PET     H1  505   1.586   1.865   2.884  1.0367 -0.6878 -1.9568
   18PET     C1  506   1.666   1.659   2.868  0.3237  0.6169 -0.1487
   18PET     C7  507   1.802   1.702   2.912 -0.0371  0.0486 -0.5441
   18PET     O3  508   1.893   1.623   2.933 -0.1801  0.2476  0.1600
   18PET     O4  509   1.817   1.838   2.927 -0.2168 -0.0191 -0.3622
   18PET    C10  510   1.935   1.875   2.998 -0.0385  0.1657 -0.5046
   18PET     H8  511   2.024   1.845   2.940  1.3251 -0.1804  1.6396
   18PET     H9  512   1.936   1.830   3.098  1.7762  1.7111  0.2347
   18PET    C11  513   1.921   2.031   3.009  0.7352 -0.1731  1.1679
   18PET    H10  514   1.928   2.064   2.905  1.4917 -1.0700  0.9193
   18PET    H11  515   2.014   2.074   3.048  1.8503  0.1111 -1.5666
   18PET    C12  516   1.785   2.084   3.063  0.4202 -0.5458  0.3664
   18PET    H13  517   1.705   2.029   3.013  1.0618 -1.4307  0.2885
   18PET    H14  518   1.779   2.191   3.042 -0.5797 -0.4771  0.8978
   19PET     C9  519   1.776   2.077   3.214  0.5606  0.6375  0.3039
   19PET     H6  520   1.713   2.158   3.251  1.4352  1.9967 -1.0969
   19PET     H7  521   1.876   2.084   3.260  1.1789 -0.5123 -0.7809
   19PET     O2  522   1.723   1.939   3.244 -0.6232 -1.3223  0.1776
   19PET     C8  523   1.592   1.913   3.219 -0.6297 -0.2874 -0.1886
   19PET     O1  524   1.507   1.999   3.187  0.3106  0.3028 -0.5312
   19PET     C4  525   1.548   1.767   3.231 -0.5933  0.1308 -0.2029
   19PET     C5  526   1.412   1.733   3.239 -0.2077 -0.7772  0.0666
   19PET     C6  527   1.379   1.606   3.231 -0.2948 -0.3400 -0.5804
   19PET     H4  528   1.274   1.581   3.221 -0.5390  0.1007  0.7139
   19PET     H3  529   1.332   1.806   3.246 -0.5694 -1.3316  2.6263
   19PET     C3  530   1.643   1.677   3.211  0.0657  0.9095 -0.3071
   19PET     H2  531   1.738   1.714   3.175 -0.5072  0.3463 -2.5161
   19PET     C2  532   1.606   1.538   3.204 -0.0886  0.2832  0.4839
   19PET     H1  533   1.688   1.469   3.192  1.2468  2.1040 -1.6898
   19PET     C1  534   1.472   1.506   3.210  0.4049  0.4055  0.2698
   19PET     C7  535   1.430   1.357   3.219  0.2245 -0.5480 -0.0909
   19PET     O3  536   1.508   1.272   3.257  0.0050  0.2700  0.5196
   19PET     O4  537   1.302   1.334   3.171  0.0784 -0.5277  0.3682
   19PET    C10  538   1.260   1.199   3.155 -0.2692  0.4403  0.8457
   19PET     H8  539   1.326   1.121   3.195 -2.1945 -0.4555  2.4707
   19PET     H9  540   1.259   1.181   3.046 -0.4627 -0.4262  0.9773
   19PET    C11  541   1.126   1.178   3.212  0.6658 -0.9032  0.1540
   19PET    H10  542   1.061   1.263   3.191 -1.2780 -1.7834  2.1713
   19PET    H11  543   1.124   1.170   3.322 -2.5954  0.6560  0.3209
   19PET    C12  544   1.056   1.048   3.169 -0.2885 -0.6148  0.0992
   19PET    H13  545   1.052   1.063   3.061  1.0178  0.9169  0.2296
   19PET    H14  546   0.951   1.056   3.202 -0.1901  0.9733  0.1335
   20PET     C9  547   1.116   0.925   3.215 -0.9238  0.5438  0.8306
   20PET     H6  548   1.220   0.932   3.180  0.5130  0.4733  4.6659
   20PET     H7  549   1.052   0.849   3.167 -0.2174 -0.6256  1.6990
   20PET     O2  550   1.103   0.912   3.356 -0.7116  0.3526  0.3597
   20PET     C8  551   1.139   0.795   3.411 -0.9498 -0.3535  0.4935
   20PET     O1  552   1.155   0.694   3.340 -0.1260 -0.4231  0.7578
   20PET     C4  553   1.161   0.808   3.553 -0.3936  1.1236 -0.2004
   20PET     C5  554   1.105   0.912   3.633 -0.1824  0.3113 -0.0196
   20PET     C6  555   1.131   0.920   3.768  0.2872  0.2221 -0.0266
   20PET     H4  556   1.084   0.999   3.827  0.2767 -0.1031  0.4068
   20PET     H3  557   1.061   0.998   3.582  1.6173  2.6745  2.1909
   20PET     C3  558   1.223   0.693   3.617  0.3398 -0.4126 -0.4351
   20PET     H2  559   1.265   0.616   3.553  1.4653  0.8499 -1.2736
   20PET     C2  560   1.237   0.700   3.760  0.0512  0.0904  0.1850
   20PET     H1  561   1.279   0.613   3.809  0.4515  0.5569  0.6847
   20PET     C1  562   1.189   0.814   3.836 -0.7202  0.9716 -0.6704
   20PET     C7  563   1.210   0.812   3.984  0.3368  1.0785 -0.0976
   20PET     O3  564   1.275   0.722   4.030 -0.6441  0.0663 -0.8354
   20PET     O4  565   1.143   0.905   4.057 -0.6474  0.0225  0.6836
   20PET    C10  566   1.175   0.928   4.198  1.2384 -0.1982  0.4365
   20PET     H8  567   1.179   0.836   4.258 -0.0822 -0.1501  0.6251
   20PET     H9  568   1.100   1.001   4.233  0.3254 -0.6720 -0.4591
   20PET    C11  569   1.308   0.995   4.226  0.1390  0.3571  0.2168
   20PET    H10  570   1.388   0.943   4.171  0.6116 -1.1291  2.2031
   20PET    H11  571   1.335   0.979   4.331 -1.5351  3.4098  1.2253
   20PET    C12  572   1.310   1.149   4.206 -0.5806  0.6572 -0.0674
   20PET    H13  573   1.415   1.177   4.220  0.3054  0.2686 -4.4243
   20PET    H14  574   1.254   1.195   4.288  0.4307 -0.7365  1.4664
   21PET     C9  575   1.245   1.192   4.060  0.3110  0.0546 -0.5519
   21PET     H6  576   1.246   1.302   4.051 -2.2196  0.1073 -1.0601
   21PET     H7  577   1.141   1.157   4.056  0.6736 -1.0822 -0.2214
   21PET     O2  578   1.325   1.139   3.953 -0.5372 -0.5657  0.4764
   21PET     C8  579   1.285   1.163   3.822  0.0641 -0.5453 -0.2469
   21PET     O1  580   1.183   1.231   3.796  0.4238  0.6009  0.4464
   21PET     C4  581   1.376   1.095   3.723  0.0974 -1.1115 -0.4659
   21PET     C5  582   1.355   1.125   3.583  0.0566  0.1138 -1.0017
   21PET     C6  583   1.423   1.055   3.490  0.8669 -0.8139  0.2899
   21PET     H4  584   1.419   1.084   3.386  1.3263  1.0509  0.7568
   21PET     H3  585   1.284   1.204   3.561 -1.6446  0.0671  3.2332
   21PET     C3  586   1.457   0.987   3.757 -1.0163 -0.3281 -0.6727
   21PET     H2  587   1.465   0.951   3.859  2.8042 -0.0941 -0.7390
   21PET     C2  588   1.508   0.903   3.652 -0.2554 -0.6478  0.3517
   21PET     H1  589   1.538   0.806   3.691 -1.5286 -0.7840  1.0540
   21PET     C1  590   1.493   0.938   3.514 -0.1717  0.1340 -0.2854
   21PET     C7  591   1.528   0.854   3.402 -0.3796  1.1046 -0.2544
   21PET     O3  592   1.589   0.747   3.417  0.1479  0.9696  0.4503
   21PET     O4  593   1.504   0.911   3.275  0.3262  0.1700 -0.3946
   21PET    C10  594   1.560   0.853   3.156 -0.1975  1.2190 -0.9305
   21PET     H8  595   1.542   0.745   3.163 -1.7182  1.4894 -0.3322
   21PET     H9  596   1.668   0.872   3.163  0.4219 -1.6615 -1.2805
   21PET    C11  597   1.502   0.918   3.022 -0.1284  0.3225 -0.0456
   21PET    H10  598   1.492   1.024   3.051  1.2243 -0.3440  3.2889
   21PET    H11  599   1.397   0.887   3.017 -0.0137 -1.2080  3.6346
   21PET    C12  600   1.581   0.910   2.893  0.4837  0.1590  0.0377
   21PET    H13  601   1.555   0.813   2.850 -2.6908  0.4964  0.9654
   21PET    H14  602   1.689   0.924   2.903  1.0048 -1.9956 -1.8009
   22PET     C9  603   1.514   1.013   2.789  0.8067 -0.3133  0.1821
   22PET     H6  604   1.497   1.114   2.830 -1.4246 -0.7517  0.4634
   22PET     H7  605   1.417   0.971   2.760  0.6950 -1.4186  2.0118
   22PET     O2  606   1.601   1.017   2.670 -0.6489  0.8579 -0.8425
   22PET     C8  607   1.684   1.116   2.649 -0.3290  1.0581 -0.3627
   22PET     O1  608   1.656   1.226   2.689  0.3404 -0.2258  0.3061
   22PET     C4  609   1.809   1.081   2.567 -0.0284 -0.4927 -0.1037
   22PET     C5  610   1.828   0.952   2.511  0.0681  0.0437  0.0417
   22PET     C6  611   1.944   0.928   2.429  0.0207 -0.2590 -0.1505
   22PET     H4  612   1.975   0.831   2.390  1.4264  0.0649  0.0962
   22PET     H3  613   1.752   0.875   2.523 -0.0419 -0.5117 -3.2175
   22PET     C3  614   1.899   1.186   2.545  0.4676 -0.9720 -0.4028
   22PET     H2  615   1.888   1.281   2.596 -2.1437 -0.8182 -1.1071
   22PET     C2  616   2.007   1.162   2.462 -0.6953 -0.0114  0.3033
   22PET     H1  617   2.075   1.244   2.439  0.4005 -1.6442 -3.0611
   22PET     C1  618   2.031   1.033   2.405 -0.1975  0.2907  0.5733
   22PET     C7  619   2.158   1.002   2.324 -0.8417 -0.4853 -0.6476
   22PET     O3  620   2.200   0.891   2.301 -0.7494  0.0002 -0.3022
   22PET     O4  621   2.220   1.117   2.273 -0.4559  0.2375  0.2488
   22PET    C10  622   2.354   1.095   2.220  0.7324 -0.7151 -0.1259
   22PET     H8  623   2.398   1.184   2.173  0.0430  0.2557  1.0178
   22PET     H9  624   2.341   1.013   2.148  0.5401  1.0424 -2.1993
   22PET    C11  625   2.448   1.057   2.341 -0.0899 -0.4696 -0.8932
   22PET    H10  626   2.551   1.092   2.329  1.3128 -3.2503  1.5492
   22PET    H11  627   2.447   0.948   2.351 -3.1148 -0.3977  0.6028
   22PET    C12  628   2.409   1.116   2.487 -0.0707 -0.0936 -0.4057
   22PET    H13  629   2.477   1.066   2.557 -1.2317 -0.4910  0.4779
   22PET    H14  630   2.306   1.081   2.501  0.0175 -0.7457 -1.2874
   23PET     C9  631   2.401   1.272   2.496 -0.7455  0.2781 -0.0808
   23PET     H6  632   2.337   1.308   2.414 -1.0383 -0.1360 -0.0376
   23PET     H7  633   2.501   1.313   2.484 -1.3639  1.6958 -0.6198
   23PET     O2  634   2.342   1.308   2.623 -0.8359  0.0750 -0.1164
   23PET     C8  635   2.342   1.438   2.665  0.6376  0.7426 -0.0335
   23PET     O1  636   2.397   1.527   2.600  0.2619 -0.2706 -0.2473
   23PET     C4  637   2.274   1.459   2.799 -0.0034  0.5810 -0.1087
   23PET     C5  638   2.332   1.545   2.887 -0.2607 -0.3548 -0.8045
   23PET     C6  639   2.284   1.563   3.019  1.2139 -0.2816  0.1032
   23PET     H4  640   2.315   1.643   3.085  1.3965  0.5467 -0.9625
   23PET     H3  641   2.417   1.606   2.857 -2.3490  1.3125 -3.9934
   23PET     C3  642   2.173   1.373   2.850  0.1057 -0.8320  0.8413
   23PET     H2  643   2.135   1.298   2.781 -1.9819  2.3568 -1.8178
   23PET     C2  644   2.120   1.401   2.975  1.2249  0.0031 -0.5258
   23PET     H1  645   2.052   1.333   3.027  1.7053  0.8080  1.2361
   23PET     C1  646   2.170   1.498   3.063 -0.5192  0.1232  0.4829
   23PET     C7  647   2.118   1.514   3.203  0.6096  0.8833 -0.3358
   23PET     O3  648   2.045   1.433   3.266  0.4997 -0.3856  0.3917
   23PET     O4  649   2.138   1.639   3.255  0.2025 -0.1778  0.0426
   23PET    C10  650   2.105   1.676   3.393  0.2729 -0.0843  0.4520
   23PET     H8  651   2.172   1.750   3.439  1.0573  0.3503 -1.3038
   23PET     H9  652   2.105   1.588   3.459  0.1754 -0.7470 -0.4207
   23PET    C11  653   1.964   1.750   3.400 -0.3127  1.2601 -0.1459
   23PET    H10  654   1.896   1.680   3.349 -1.9134  1.4878  1.5414
   23PET    H11  655   1.973   1.843   3.343  0.0716  1.3081 -0.0121
   23PET    C12  656   1.903   1.802   3.533 -0.8651 -0.7572  0.8327
   23PET    H13  657   1.861   1.719   3.592 -1.1375  1.1948  3.5713
   23PET    H14  658   1.819   1.870   3.517  0.9223  0.9571 -2.3568
   24PET     C9  659   2.000   1.889   3.625 -0.4770  0.6197  0.2678
   24PET     H6  660   1.927   1.940   3.689 -4.2039 -0.9036 -2.4169
   24PET     H7  661   2.042   1.955   3.548  0.0113  0.4261  0.3655
   24PET     O2  662   2.097   1.804   3.683 -0.3419  0.0759  0.2315
   24PET     C8  663   2.161   1.849   3.795  0.5147  0.1911 -0.3349
   24PET     O1  664   2.135   1.963   3.834  0.1705  0.5164 -0.3325
   24PET     C4  665   2.258   1.745   3.858  0.5001  0.3091  0.6817
   24PET     C5  666   2.330   1.649   3.780  0.3018  0.2405 -0.1898
   24PET     C6  667   2.431   1.577   3.842 -0.0603 -0.3206 -0.1364
   24PET     H4  668   2.486   1.511   3.776 -0.4086  1.7153 -2.6380
   24PET     H3  669   2.315   1.639   3.673  0.3710 -2.8751 -0.0033
   24PET     C3  670   2.283   1.759   4.001  0.0621 -0.0764  0.2542
   24PET     H2  671   2.236   1.833   4.065 -0.5331 -0.2917  0.0721
   24PET     C2  672   2.384   1.683   4.061  0.5486 -1.0376  0.0148
   24PET     H1  673   2.406   1.718   4.161 -1.4297  3.0980 -0.7901
   24PET     C1  674   2.460   1.600   3.977  0.3729  0.0984  0.4353
   24PET     C7  675   2.579   1.542   4.036 -0.0176  0.0569  0.3325
   24PET     O3  676   2.625   1.569   4.152 -0.2296  0.6760 -0.3103
   24PET     O4  677   2.640   1.467   3.939  0.1383  1.1548 -0.7325
   24PET    C10  678   2.767   1.416   3.945 -0.6141  0.5860 -0.1173
   24PET     H8  679   2.826   1.463   4.024 -2.6461  0.3707  1.6255
   24PET     H9  680   2.811   1.439   3.847  0.4831 -1.0345 -0.0382
   24PET    C11  681   2.756   1.258   3.975  1.0071 -0.1373 -0.2962
   24PET    H10  682   2.699   1.260   4.069 -1.4696 -0.6394 -1.6980
   24PET    H11  683   2.859   1.223   3.988  1.3404  0.9528  0.1465
   24PET    C12  684   2.688   1.186   3.859  0.8254  0.4077 -0.3821
   24PET    H13  685   2.738   1.096   3.822 -0.3926 -0.2896 -0.3735
   24PET    H14  686   2.689   1.248   3.768 -0.2907  4.6696  2.1966
   25PEO     C1  687   2.547   1.157   3.880 -1.1767  0.9607  0.0000
   25PEO     H3  688   2.512   1.136   3.779  1.9363  3.5383 -1.7939
   25PEO     H4  689   2.488   1.238   3.925  0.0705  0.7676  2.1538
   25PEO      O  690   2.531   1.046   3.969  0.3277  0.2702 -0.3648
   25PEO     C2  691   2.594   0.916   3.942  0.5668 -0.2034  1.0187
   25PEO     H5  692   2.566   0.837   4.012 -0.6102 -0.9336 -0.2102
   25PEO     H6  693   2.703   0.925   3.945  0.6429 -0.9552  0.6859
   25PEO     C3  694   2.539   0.869   3.801  0.2121  0.0836 -0.0451
   25PEO     H7  695   2.438   0.910   3.789 -0.5048 -1.3209  0.9458
   25PEO     H8  696   2.508   0.764   3.796  0.1890  0.1008 -0.2925
   25PEO     O1  697   2.616   0.899   3.676  0.0003  0.1073  0.2337
   25PEO     C4  698   2.748   0.836   3.683  0.5748 -0.8781  0.0253
   25PEO     H9  699   2.741   0.734   3.722  1.3647 -1.0212 -0.1892
   25PEO    H10  700   2.809   0.886   3.760  0.6099 -0.8902  0.0053
   25PEO     C5  701   2.825   0.851   3.546  0.0463  0.5578  0.1842
   25PEO    H11  702   2.817   0.957   3.518  0.2942  0.8858  1.3346
   25PEO    H12  703   2.770   0.801   3.465 -2.1319 -0.1771  2.0084
   25PEO     O2  704   2.961   0.807   3.553  0.7233  0.0827  0.1296
   25PEO     C6  705   3.054   0.852   3.648  0.4287  0.5581 -0.4158
   25PEO    H13  706   3.152   0.807   3.629  1.2370  0.6185  2.9927
   25PEO    H14  707   3.024   0.830   3.752 -1.6440  2.9774 -0.3848
   25PEO     C7  708   3.062   1.006   3.644 -0.6151 -0.0082  0.5999
   25PEO    H15  709   3.120   1.027   3.734 -1.4561 -3.2143  2.0338
   25PEO    H16  710   2.965   1.056   3.652 -0.1557  0.8744  0.7572
   25PEO     O3  711   3.143   1.044   3.524  0.6822 -0.0243 -0.0056
   25PEO     C8  712   3.149   1.193   3.515 -0.2058 -0.7161 -0.2177
   25PEO    H17  713   3.249   1.223   3.483 -1.0706  1.3072 -1.2260
   25PEO    H18  714   3.128   1.237   3.613 -1.0293  0.9770 -1.1065
   25PEO     C9  715   3.043   1.248   3.415 -0.0140  0.1892  0.3927
   25PEO    H19  716   2.998   1.335   3.463  3.0856  0.2265  3.7663
   25PEO    H20  717   2.979   1.163   3.389 -0.9554  0.4762  1.6916
   25PEO     O4  718   3.103   1.274   3.288  0.4482 -0.1193 -0.3218
   25PEO    C10  719   3.084   1.405   3.236  0.3165  0.1980 -0.1986
   25PEO    H21  720   3.138   1.427   3.143 -0.0917  1.8948 -0.0602
   25PEO    H22  721   3.133   1.468   3.312 -0.8815 -2.2598  2.8504
   26PET     C9  722   2.937   1.426   3.230  0.2755 -0.6605 -0.3716
   26PET     H6  723   2.916   1.528   3.195 -0.1377 -0.8075 -0.5582
   26PET     H7  724   2.890   1.416   3.329  2.9656  2.7725  1.4758
   26PET     O2  725   2.882   1.326   3.134 -0.2163  0.1530  0.4827
   26PET     C8  726   2.758   1.342   3.085  0.5391  0.7851 -0.5049
   26PET     O1  727   2.697   1.442   3.109  0.3643 -0.3561 -0.8807
   26PET     C4  728   2.705   1.213   3.016 -0.2298 -0.0017 -0.6886
   26PET     C5  729   2.787   1.101   2.983 -0.0652 -0.3119  0.6348
   26PET     C6  730   2.744   1.003   2.894 -0.7130 -1.1365 -0.1060
   26PET     H4  731   2.810   0.926   2.854  2.2483  1.9569 -1.7337
   26PET     H3  732   2.886   1.098   3.027 -0.1038  1.1702  0.8796
   26PET     C3  733   2.570   1.212   2.978 -0.6748  0.2555 -1.0698
   26PET     H2  734   2.511   1.303   2.981  0.5040  1.0064  0.8774
   26PET     C2  735   2.525   1.102   2.893  0.2994 -0.3879  0.0448
   26PET     H1  736   2.430   1.104   2.841  0.5957 -1.7106 -0.5967
   26PET     C1  737   2.614   0.995   2.862 -0.1559  0.5169 -0.7344
   26PET     C7  738   2.562   0.872   2.792  0.3027 -0.3177  0.3763
   26PET     O3  739   2.633   0.773   2.761 -0.2323  0.4952 -0.1507
   26PET     O4  740   2.422   0.870   2.777 -0.2825 -0.1369  0.4974
   26PET    C10  741   2.350   0.756   2.708 -1.6571  0.0399  0.6151
   26PET     H8  742   2.361   0.666   2.771 -1.5387  1.5047  2.7859
   26PET     H9  743   2.405   0.727   2.617  2.2263  2.6682  1.8603
   26PET    C11  744   2.202   0.771   2.697 -0.2429 -0.0383 -0.4390
   26PET    H10  745   2.153   0.679   2.662 -2.3832  1.6056 -2.0991
   26PET    H11  746   2.165   0.847   2.627  0.5850 -0.2538 -1.1193
   26PET    C12  747   2.146   0.801   2.842  0.1611 -0.3430 -0.6866
   26PET    H13  748   2.185   0.896   2.880  0.0531 -0.0088 -1.3917
   26PET    H14  749   2.180   0.736   2.924 -1.9178  0.2230  0.7069
   27PET     C9  750   1.993   0.813   2.838 -0.1014 -0.2328  0.6903
   27PET     H6  751   1.961   0.709   2.824 -2.2919  0.5601 -0.6297
   27PET     H7  752   1.939   0.861   2.756 -2.3993  1.9070  3.2411
   27PET     O2  753   1.943   0.857   2.971 -0.2592  0.7409 -0.1184
   27PET     C8  754   1.931   0.991   2.984  0.7069  0.1304  0.3552
   27PET     O1  755   1.941   1.072   2.892  0.1580 -0.1485  0.5664
   27PET     C4  756   1.895   1.030   3.122 -0.0369  0.8741 -0.7512
   27PET     C5  757   1.839   1.155   3.156  0.2402 -0.1361 -0.6050
   27PET     C6  758   1.813   1.192   3.291  0.0425 -1.2441  0.3020
   27PET     H4  759   1.780   1.293   3.308 -0.6045 -1.3258 -0.3957
   27PET     H3  760   1.817   1.225   3.077 -0.6421 -0.7153 -0.8866
   27PET     C3  761   1.912   0.939   3.227  0.3250 -0.3498 -0.4485
   27PET     H2  762   1.962   0.844   3.209  2.4283  0.8205 -1.1671
   27PET     C2  763   1.870   0.971   3.361  0.1320  0.7317  0.6966
   27PET     H1  764   1.876   0.892   3.435 -1.0770  0.7438  0.8265
   27PET     C1  765   1.817   1.095   3.390  0.5769 -0.5813 -0.3957
   27PET     C7  766   1.784   1.142   3.530 -0.4981 -0.2152 -0.1058
   27PET     O3  767   1.811   1.070   3.622 -0.0591  0.3783 -0.4409
   27PET     O4  768   1.718   1.258   3.534  0.3815  0.5428 -0.5801
   27PET    C10  769   1.672   1.305   3.659  0.5060  0.3220 -0.1426
   27PET     H8  770   1.755   1.334   3.723  1.6312 -0.4541 -1.1952
   27PET     H9  771   1.619   1.230   3.720  0.2264  0.0416 -0.7129
   27PET    C11  772   1.597   1.434   3.626  0.1454 -0.2113  0.0317
   27PET    H10  773   1.513   1.408   3.560  0.3754  1.2947 -0.8999
   27PET    H11  774   1.660   1.500   3.566 -0.4916 -0.0593 -0.4777
   27PET    C12  775   1.549   1.517   3.750 -0.3972 -0.2360 -0.1835
   27PET    H13  776   1.639   1.539   3.809 -0.9752  1.0559  0.2531
   27PET    H14  777   1.482   1.460   3.815  1.1839 -1.5768  0.3224
   28PEO     C1  778   1.467   1.646   3.702  0.1640  0.1838  0.5278
   28PEO     H3  779   1.524   1.708   3.632 -0.3462 -0.6951 -0.6982
   28PEO     H4  780   1.439   1.714   3.784 -2.6175  3.0904 -2.5223
   28PEO      O  781   1.339   1.602   3.641 -0.2298 -0.0362 -0.3420
   28PEO     C2  782   1.246   1.704   3.610  0.5823 -0.5337  0.2638
   28PEO     H5  783   1.183   1.669   3.527 -0.2532  0.5773  0.3894
   28PEO     H6  784   1.297   1.793   3.571  1.7692 -1.2466  0.1834
   28PEO     C3  785   1.154   1.740   3.733  0.4054  0.0967 -0.9996
   28PEO     H7  786   1.139   1.846   3.757  1.9623  0.2257 -0.4854
   28PEO     H8  787   1.200   1.713   3.829 -0.9286  2.2594  0.3442
   28PEO     O1  788   1.040   1.658   3.722 -0.3075 -0.7709  0.5062
   28PEO     C4  789   0.989   1.627   3.857  0.6756  0.2011  0.3438
   28PEO     H9  790   1.056   1.553   3.902  1.1364  0.0851 -0.5027
   28PEO    H10  791   0.893   1.574   3.849 -0.0358  1.6943 -1.9136
   28PEO     C5  792   0.937   1.744   3.945  0.1312 -0.2192 -0.4447
   28PEO    H11  793   0.862   1.711   4.018  2.9477  0.5187  3.1181
   28PEO    H12  794   0.902   1.826   3.882  0.6353  0.3444 -0.0065
   28PEO     O2  795   1.043   1.794   4.017  0.0603 -0.3861  0.0722
   28PEO     C6  796   1.087   1.723   4.136  0.0796 -0.3660 -0.3089
   28PEO    H13  797   1.141   1.631   4.110  0.9458  0.0510 -0.0418
   28PEO    H14  798   1.002   1.706   4.203 -0.6869 -1.1385 -1.4552
   28PEO     C7  799   1.183   1.816   4.219  0.4595  1.0532  0.7236
   28PEO    H15  800   1.207   1.787   4.322 -0.4832 -3.9310 -0.1657
   28PEO    H16  801   1.134   1.914   4.217 -0.8383  0.4314  0.9427
   28PEO     O3  802   1.303   1.804   4.142 -0.5396 -0.1823  0.0887
   28PEO     C8  803   1.408   1.878   4.200  0.3912 -0.5611 -0.5940
   28PEO    H17  804   1.505   1.835   4.170  0.9971 -2.2288  3.2033
   28PEO    H18  805   1.400   1.882   4.309  1.1534  1.3547 -0.5738
   28PEO     C9  806   1.389   2.022   4.151  0.6736  0.6661 -0.9528
   28PEO    H19  807   1.458   2.090   4.202 -0.9044  2.8870 -1.6328
   28PEO    H20  808   1.286   2.050   4.173  0.9022  0.8051 -0.0209
   28PEO     O4  809   1.427   2.041   4.018  0.8738  0.1718  0.6488
   28PEO    C10  810   1.352   1.972   3.923 -1.0844 -0.3901  0.7069
   28PEO    H21  811   1.245   1.991   3.934 -0.4369  2.3056  3.7190
   28PEO    H22  812   1.386   1.868   3.935  1.3470  0.3710  0.9425
   29PEO     C1  813   1.390   2.027   3.779 -1.4462 -0.7092 -0.7575
   29PEO     H3  814   1.386   2.136   3.791  0.2095 -0.6468 -0.6247
   29PEO     H4  815   1.309   1.988   3.716  0.3298 -1.1765 -2.8776
   29PEO      O  816   1.522   1.978   3.739 -0.5867  0.6395 -0.2981
   29PEO     C2  817   1.589   2.059   3.640  0.4377 -0.2947  0.3142
   29PEO     H5  818   1.515   2.103   3.573 -0.3518  0.2820  1.5308
   29PEO     H6  819   1.663   1.998   3.586  0.8612  0.2950  0.2153
   29PEO     C3  820   1.654   2.194   3.685 -0.4875  0.1303 -0.4615
   29PEO     H7  821   1.598   2.253   3.759  2.8591  3.2295 -0.0804
   29PEO     H8  822   1.661   2.258   3.596 -1.4374 -0.6955 -1.1431
   29PEO     O1  823   1.778   2.171   3.731 -1.1791 -0.5395 -0.4314
   29PEO     C4  824   1.865   2.281   3.769  0.1910  0.3106 -0.4267
   29PEO     H9  825   1.871   2.351   3.685 -0.2950 -0.5274 -1.1824
   29PEO    H10  826   1.968   2.245   3.782  0.7613  2.2899  1.0904
   29PEO     C5  827   1.828   2.348   3.899 -0.1219 -0.3611  0.1154
   29PEO    H11  828   1.725   2.381   3.882 -0.9081 -2.0210  1.3028
   29PEO    H12  829   1.899   2.429   3.919 -3.1361  2.1044  1.6841
   29PEO     O2  830   1.825   2.248   4.002 -0.2128  0.2163  0.9588
   29PEO     C6  831   1.949   2.201   4.037 -0.7192  0.8387  0.4025
   29PEO    H13  832   2.006   2.277   4.093 -1.4159  1.4489  0.3133
   29PEO    H14  833   2.001   2.152   3.955 -2.5611 -0.1431 -0.2244
   29PEO     C7  834   1.927   2.097   4.146 -0.5453  0.3850  0.3355
   29PEO    H15  835   1.832   2.127   4.193  0.6220 -0.0440  3.1703
   29PEO    H16  836   2.001   2.101   4.228 -1.5923 -0.2400  1.3449
   29PEO     O3  837   1.905   1.965   4.095 -0.2979  0.4178 -0.2747
   29PEO     C8  838   1.772   1.937   4.038 -0.4739 -0.2449  0.2479
   29PEO    H17  839   1.723   2.013   3.975  3.3344  2.0359 -0.3284
   29PEO    H18  840   1.692   1.919   4.110 -1.3687 -2.9668 -1.2910
   29PEO     C9  841   1.782   1.809   3.948  1.0180  0.0739 -0.5576
   29PEO    H19  842   1.881   1.810   3.902  0.9597 -1.0844 -0.7574
   29PEO    H20  843   1.700   1.801   3.875  0.7134  0.4903 -0.2633
   29PEO     O4  844   1.781   1.694   4.040  0.2733 -1.1124  0.4983
   29PEO    C10  845   1.909   1.650   4.080  0.3635 -0.1633 -0.2386
   29PEO    H21  846   1.912   1.623   4.186 -1.2397  0.1820 -0.0777
   29PEO    H22  847   1.978   1.734   4.069  0.1268  0.1775  0.7691
   30PET     C9  848   1.972   1.542   3.995  0.1834  0.2211 -0.0080
   30PET     H6  849   2.071   1.527   4.038 -0.4358 -1.3904  0.9621
   30PET     H7  850   1.975   1.574   3.890  0.4091 -0.2986 -0.1619
   30PET     O2  851   1.899   1.418   4.004  0.1242  0.0364 -0.1175
   30PET     C8  852   1.899   1.336   4.114 -0.1894  0.0852 -0.1780
   30PET     O1  853   1.940   1.364   4.229 -0.2133 -0.8760  0.5761
   30PET     C4  854   1.824   1.206   4.084 -0.6949 -0.1236 -0.3195
   30PET     C5  855   1.820   1.151   3.957 -0.4577 -0.3322  0.0710
   30PET     C6  856   1.788   1.012   3.939  0.1920 -0.8508  0.5022
   30PET     H4  857   1.792   0.963   3.842 -1.2749 -1.8335  0.8883
   30PET     H3  858   1.847   1.208   3.868 -3.1725  0.6372 -0.2274
   30PET     C3  859   1.778   1.130   4.193  0.8169  0.6605 -0.0702
   30PET     H2  860   1.788   1.173   4.292  2.3280  1.7100 -0.6437
   30PET     C2  861   1.727   0.991   4.174 -0.1301  0.2437 -0.6950
   30PET     H1  862   1.697   0.932   4.260 -2.6074  0.9165 -1.0300
   30PET     C1  863   1.739   0.930   4.048 -1.0429 -0.2509  1.1396
   30PET     C7  864   1.700   0.783   4.027 -0.0694 -0.6149  0.0349
   30PET     O3  865   1.642   0.717   4.111  0.5001 -0.4752  0.2187
   30PET     O4  866   1.754   0.725   3.916 -0.5281  0.2707  0.6709
   30PET    C10  867   1.730   0.587   3.887 -0.4740  0.7506  0.0322
   30PET     H8  868   1.623   0.572   3.868 -0.3883  0.1383 -0.0077
   30PET     H9  869   1.767   0.521   3.966 -0.3438  2.3022  1.3025
   30PET    C11  870   1.797   0.546   3.743 -1.2686  0.0360 -0.3885
   30PET    H10  871   1.903   0.574   3.747 -1.5065  0.8473  1.7613
   30PET    H11  872   1.766   0.617   3.666  2.2098  2.0544 -0.1539
   30PET    C12  873   1.772   0.405   3.674  0.5065 -0.4881 -0.9082
   30PET    H13  874   1.667   0.377   3.690  0.0531  0.0316 -2.7376
   30PET    H14  875   1.829   0.322   3.715 -1.3274 -1.6549 -0.6110
   31SOL     OW  876   2.112   4.561   1.147 -0.5378 -0.1342 -0.0610
   31SOL    HW1  877   2.053   4.636   1.140 -2.1236 -1.1385  1.5334
   31SOL    HW2  878   2.155   4.556   1.061 -3.8950 -0.1979 -1.9131
   32SOL     OW  879   2.317   4.496   4.587 -0.0395  0.3449  0.2528
   32SOL    HW1  880   2.412   4.512   4.588 -0.0461  0.3709  1.4737
   32SOL    HW2  881   2.305   4.417   4.639 -0.6473  0.0324 -0.3462
   33SOL     OW  882   2.541   3.988   0.828 -0.1280 -0.1278  0.4183
   33SOL    HW1  883   2.453   3.951   0.837  0.0552 -0.8980 -0.7002
   33SOL    HW2  884   2.592   3.919   0.786  0.7310  0.7004  0.0479
   34SOL     OW  885   3.690   0.117   1.495  0.5349 -0.9393 -0.1161
   34SOL    HW1  886   3.646   0.142   1.414  0.1622 -1.7500 -0.1696
   34SOL    HW2  887   3.635   0.049   1.533 -0.2428  0.6220  1.7188
   35SOL     OW  888   1.865   2.342   0.093 -0.3447 -0.0470  0.3181
   35SOL    HW1  889   1.805   2.414   0.112  0.7839  0.8880  0.3683
   35SOL    HW2  890   1.945   2.363   0.140 -0.7329 -2.5244  2.2756
   36SOL     OW  891   1.498   5.150   0.196  1.0785 -0.4691  0.2725
   36SOL    HW1  892   1.546   5.186   0.121  1.0233  3.0725  1.7657
   36SOL    HW2  893   1.565   5.136   0.263  0.5939  1.2875  1.2049
   37SOL     OW  894   1.185   2.283   1.253 -0.0279 -0.5381 -0.1388
   37SOL    HW1  895   1.240   2.361   1.256  0.3795 -0.8272 -0.0833
   37SOL    HW2  896   1.237   2.219   1.204 -1.4626  0.0925 -2.6783
   38SOL     OW  897   2.955   4.088   0.523 -0.4444 -0.1069  0.3429
   38SOL    HW1  898   3.019   4.158   0.512  1.8985 -1.6109  3.1383
   38SOL    HW2  899   2.984   4.020   0.462 -0.4458 -0.1198  0.3567
   39SOL     OW  900   2.815   2.146   1.003  0.0072 -0.2545  0.1887
   39SOL    HW1  901   2.900   2.146   0.958 -0.2330  3.4680 -0.5828
   39SOL    HW2  902   2.829   2.203   1.079 -1.5933 -0.3108  0.5484
   40SOL     OW  903   2.699   5.060   5.156  0.1846 -0.9038 -0.2222
   40SOL    HW1  904   2.779   5.034   5.109  0.0327 -2.7347  0.4667
   40SOL    HW2  905   2.663   5.131   5.103  1.8495 -0.5691 -0.9770
   41SOL     OW  906   2.532   3.671   1.130  0.2312 -0.2512  0.0037
   41SOL    HW1  907   2.467   3.600   1.127 -0.6567  0.4709  1.2256
   41SOL    HW2  908   2.546   3.694   1.038  0.5407 -1.9850 -0.4312
   42SOL     OW  909   2.095   3.408   0.014 -0.5625 -0.9784  0.0864
   42SOL    HW1  910   2.188   3.414  -0.007 -1.0667 -1.6413 -2.6626
   42SOL    HW2  911   2.068   3.499   0.027 -0.1020 -0.4948 -2.0344
   43SOL     OW  912   0.797   1.760   0.628 -0.2182  0.0113  0.2883
   43SOL    HW1  913   0.829   1.677   0.594  0.6321  1.2103 -2.0655
   43SOL    HW2  914   0.817   1.824   0.560 -2.7030  1.8299  1.0864
   44SOL     OW  915   1.144   0.291   0.870 -0.1566  0.3771 -0.4239
   44SOL    HW1  916   1.091   0.301   0.790  0.2109  1.9219 -0.5081
   44SOL    HW2  917   1.189   0.207   0.858  1.9319  1.7361 -3.1238
   45SOL     OW  918   1.628   2.224   5.254 -0.1022  0.1343  1.0627
   45SOL    HW1  919   1.596   2.175   5.329  1.3773  0.9777  2.3261
   45SOL    HW2  920   1.688   2.289   5.292  2.2690 -0.6986 -0.9957
   46SOL     OW  921   3.073   1.836   0.616 -0.1733  0.4303  0.5660
   46SOL    HW1  922   3.034   1.812   0.532  1.0135  4.1733 -1.2708
   46SOL    HW2  923   3.167   1.833   0.600  0.0926  0.7315  1.9614
   47SOL     OW  924   3.187   0.640   0.244  0.7452  1.0434 -0.2469
   47SOL    HW1  925   3.202   0.561   0.192 -2.3064  0.6204 -0.6275
   47SOL    HW2  926   3.200   0.611   0.334 -1.5514 -0.2957 -0.2841
   48SOL     OW  927   1.731   4.016   1.260 -0.4762 -0.7128  0.7463
   48SOL    HW1  928   1.675   4.039   1.187 -0.3537 -2.8281 -0.0978
   48SOL    HW2  929   1.820   4.039   1.231 -0.5091 -0.8901  0.5006
   49SOL     OW  930   3.674   0.728   1.859 -0.1135  0.1026  0.5791
   49SOL    HW1  931   3.642   0.808   1.818  0.7136  0.9582  1.5390
   49SOL    HW2  932   3.769   0.729   1.843  0.3245  0.7430  2.8803
   50SOL     OW  933   1.982   2.522   1.462 -0.0161 -0.8589 -0.0591
   50SOL    HW1  934   1.943   2.534   1.549  3.7414  0.3061  1.6752
   50SOL    HW2  935   2.014   2.609   1.439  0.1971 -1.4285 -2.0831
   51SOL     OW  936   3.270   0.841   4.712  0.3735  0.5436  0.0780
   51SOL    HW1  937   3.186   0.835   4.757  0.5198  0.6085  0.3661
   51SOL    HW2  938   3.284   0.755   4.673 -0.2211  0.7834 -0.6917
   52SOL     OW  939   1.851   0.482   5.001  0.6465 -0.2934  0.1801
   52SOL    HW1  940   1.864   0.529   4.918 -1.6493 -1.4594 -0.9423
   52SOL    HW2  941   1.920   0.416   5.002  0.7081 -0.2696 -0.8348
   53SOL     OW  942   1.963   4.260   0.729 -0.4112 -0.3535  0.6244
   53SOL    HW1  943   1.928   4.190   0.784 -2.2336 -0.9587 -1.1907
   53SOL    HW2  944   1.894   4.326   0.727 -0.5706 -0.5214 -1.1916
   54SOL     OW  945   1.502   0.703   2.213 -1.0251  0.7433  0.4357
   54SOL    HW1  946   1.500   0.676   2.121 -2.0394  0.7849  0.4397
   54SOL    HW2  947   1.425   0.662   2.252  0.7283 -1.4256  1.9029
   55SOL     OW  948   1.961   0.218   1.197 -0.2913 -0.5399 -0.4158
   55SOL    HW1  949   2.004   0.187   1.276  0.0663 -1.3946 -0.9398
   55SOL    HW2  950   1.867   0.213   1.216 -0.2151  1.2491  0.6984
   56SOL     OW  951   2.338   0.918   0.012  0.2750  0.7109  0.3605
   56SOL    HW1  952   2.352   0.845  -0.048 -1.3166 -2.2384  3.2542
   56SOL    HW2  953   2.287   0.981  -0.038  1.9075  0.0806 -2.3500
   57SOL     OW  954   1.733   2.700   4.813  0.2894 -0.3559 -0.7669
   57SOL    HW1  955   1.688   2.712   4.730 -0.4160 -0.2683 -0.3838
   57SOL    HW2  956   1.706   2.613   4.843  1.5651 -0.9400 -1.2341
   58SOL     OW  957   2.226   4.221   5.089  0.6037  0.0484  0.2470
   58SOL    HW1  958   2.158   4.158   5.065 -1.2275  2.0249 -0.1184
   58SOL    HW2  959   2.222   4.227   5.184  0.8717 -0.4773  0.2910
   59SOL     OW  960   1.439   2.411   1.118 -0.2508  0.9334 -0.2173
   59SOL    HW1  961   1.444   2.432   1.025  0.9400 -0.0910 -0.4224
   59SOL    HW2  962   1.472   2.489   1.163 -3.7172  2.6827 -0.4011
   60SOL     OW  963   2.537   3.595   1.411  0.0933  0.2108  0.2742
   60SOL    HW1  964   2.480   3.667   1.436 -0.7994 -0.4482  0.1858
   60SOL    HW2  965   2.600   3.634   1.350 -0.1234  0.9892  0.5401
   61SOL     OW  966   1.119   1.460   5.174 -0.1034 -0.1695  0.3236
   61SOL    HW1  967   1.136   1.366   5.183  0.6395 -0.5227 -3.4386
   61SOL    HW2  968   1.050   1.466   5.109  0.9834  1.9109 -0.7421
   62SOL     OW  969   3.154   0.452   4.165 -0.2981 -0.6548 -0.2564
   62SOL    HW1  970   3.197   0.516   4.109 -0.8306 -0.1952 -0.1494
   62SOL    HW2  971   3.169   0.484   4.254 -3.6098  1.4066 -0.2580
   63SOL     OW  972   2.496   3.915   4.847 -0.6838 -0.3213 -0.1798
   63SOL    HW1  973   2.575   3.865   4.867  1.5057  1.7333 -2.9087
   63SOL    HW2  974   2.425   3.850   4.847  1.2088 -2.5133  0.8870
   64SOL     OW  975   1.758   4.971   1.630  0.7346 -0.5711  0.8822
   64SOL    HW1  976   1.729   5.010   1.713 -1.2320  1.2379 -0.5461
   64SOL    HW2  977   1.684   4.983   1.571  2.5824 -0.4938 -1.5667
   65SOL     OW  978   2.557   2.238   5.011 -0.3384 -0.3441  0.0512
   65SOL    HW1  979   2.624   2.170   5.012  1.7285  1.5653  1.2680
   65SOL    HW2  980   2.553   2.265   4.920  4.1257  2.5887  0.3887
   66SOL     OW  981   3.867   0.910   1.477 -0.3819 -0.2110 -0.4042
   66SOL    HW1  982   3.790   0.872   1.520  0.9892 -2.6390  0.0447
   66SOL    HW2  983   3.936   0.906   1.543  0.6119  0.2572 -1.3802
   67SOL     OW  984   2.071   2.905   4.510  0.4200 -0.2143  0.2115
   67SOL    HW1  985   2.034   2.819   4.532  0.5012 -0.0998  0.8045
   67SOL    HW2  986   2.160   2.886   4.481 -0.3727 -0.5947 -2.1275
   68SOL     OW  987   1.918   0.924   1.040  0.4028 -1.0069 -0.1341
   68SOL    HW1  988   1.927   1.001   0.984 -0.6479 -1.3809 -0.8404
   68SOL    HW2  989   1.902   0.852   0.980  1.2454 -1.7716  0.5364
   69SOL     OW  990   2.842   4.907   1.185 -0.4736 -0.1258 -0.1211
   69SOL    HW1  991   2.871   4.821   1.215  0.3306  0.9556  2.4967
   69SOL    HW2  992   2.747   4.900   1.183 -0.5749 -0.4332  2.4661
   70SOL     OW  993   1.539   0.022   5.177  0.5017  0.0578  0.7322
   70SOL    HW1  994   1.516   0.106   5.137  1.1909 -0.4796 -0.8820
   70SOL    HW2  995   1.622   0.038   5.222  1.4627 -0.0704 -0.8907
   71SOL     OW  996   2.266   4.061   1.008  0.3452 -0.4979 -0.2598
   71SOL    HW1  997   2.228   4.041   0.922 -0.6410 -0.3570  0.1350
   71SOL    HW2  998   2.274   4.156   1.009 -2.6315 -0.1735  0.9917
   72SOL     OW  999   2.696   4.948   4.363  0.6140  0.0764 -0.3729
   72SOL    HW1 1000   2.660   4.926   4.448 -0.3116  0.6858 -0.5865
   72SOL    HW2 1001   2.684   4.869   4.310  0.9749 -0.2237 -0.0034
   73SOL     OW 1002   1.056   2.184   0.670  0.2674 -0.3621  0.4966
   73SOL    HW1 1003   1.025   2.108   0.719 -3.5003 -1.8057 -3.4498
   73SOL    HW2 1004   0.977   2.236   0.653  1.0918 -0.1707 -4.0269
   74SOL     OW 1005   1.488   2.395   0.175 -0.0589 -0.0011 -0.6793
   74SOL    HW1 1006   1.530   2.455   0.113  3.2420  0.9061  2.1443
   74SOL    HW2 1007   1.408   2.441   0.202  0.8391  1.7479 -0.8576
   75SOL     OW 1008   1.348   1.104   0.293 -0.5997  0.1661  0.3254
   75SOL    HW1 1009   1.327   1.129   0.203 -0.8000  0.2188  0.3877
   75SOL    HW2 1010   1.314   1.175   0.347 -0.2437  0.2640  0.4251
   76SOL     OW 1011   2.557   2.245   4.742 -0.0190 -0.1286 -0.2950
   76SOL    HW1 1012   2.572   2.159   4.703 -3.9581 -1.7281  1.0830
   76SOL    HW2 1013   2.484   2.281   4.691 -1.3630  0.2978  1.7956
   77SOL     OW 1014   1.410   0.218   0.423 -0.0566 -0.3421 -0.1856
   77SOL    HW1 1015   1.363   0.300   0.440 -1.0434 -0.8631 -0.3611
   77SOL    HW2 1016   1.344   0.160   0.387  0.8219 -0.9718 -0.7946
   78SOL     OW 1017   3.574   1.196   5.268 -0.5449 -0.4522 -0.1234
   78SOL    HW1 1018   3.628   1.243   5.205  0.3467  0.0849  1.0053
   78SOL    HW2 1019   3.491   1.243   5.269  0.1727  0.8569  0.6462
   79SOL     OW 1020   3.081   1.866   0.905  0.2314  0.2721 -0.0584
   79SOL    HW1 1021   3.065   1.864   0.810 -1.5811  2.6110  0.1061
   79SOL    HW2 1022   3.175   1.881   0.913  0.2585  1.0501 -1.5136
   80SOL     OW 1023   2.862   3.301   5.062  0.1397 -0.4731 -0.1438
   80SOL    HW1 1024   2.882   3.256   5.145 -3.6855  1.2279  1.9777
   80SOL    HW2 1025   2.819   3.235   5.009 -0.7796 -0.6929  0.8303
   81SOL     OW 1026   3.199   1.183   4.795 -0.1740 -0.5612 -0.0019
   81SOL    HW1 1027   3.170   1.243   4.726  0.6920  1.2511  1.1385
   81SOL    HW2 1028   3.144   1.205   4.871  1.2953  0.0260  0.9422
   82SOL     OW 1029   1.675   3.478   1.576  0.6746 -0.0772  0.5435
   82SOL    HW1 1030   1.695   3.504   1.486 -1.0346 -0.5095  0.0016
   82SOL    HW2 1031   1.693   3.556   1.628  2.6607 -0.1158  0.0117
   83SOL     OW 1032   1.213   1.090   2.127  0.2765 -0.3975  0.5709
   83SOL    HW1 1033   1.235   1.061   2.216  1.8183  0.4694  0.5048
   83SOL    HW2 1034   1.297   1.091   2.081 -0.2699  0.7057 -0.4387
   84SOL     OW 1035   2.908   3.342   1.391  0.1138  0.1431 -0.4361
   84SOL    HW1 1036   2.877   3.432   1.404  1.5304  0.6755 -0.5482
   84SOL    HW2 1037   2.916   3.333   1.296 -0.6094 -0.3249 -0.4608
   85SOL     OW 1038   1.083   1.182   5.134 -0.5213  0.2808  0.0438
   85SOL    HW1 1039   0.988   1.189   5.142 -0.5015  0.4679  0.1240
   85SOL    HW2 1040   1.097   1.145   5.046 -0.7522 -2.3698  1.0364
   86SOL     OW 1041   1.345   2.362   0.469 -0.4309  0.0601  0.5695
   86SOL    HW1 1042   1.383   2.449   0.479 -0.1184 -0.1541  1.3169
   86SOL    HW2 1043   1.274   2.374   0.405 -0.3214  0.8384  0.5848
   87SOL     OW 1044   1.503   1.025   1.744 -0.1500 -0.7231  0.1436
   87SOL    HW1 1045   1.552   1.089   1.692  0.3273 -1.0187  0.2194
   87SOL    HW2 1046   1.568   0.959   1.768 -0.8522 -1.8206 -0.8635
   88SOL     OW 1047   1.504   1.736   2.027 -0.1817  0.1299 -0.7667
   88SOL    HW1 1048   1.552   1.673   2.081 -1.0871  0.7338  0.8033
   88SOL    HW2 1049   1.460   1.683   1.961 -2.6848 -1.2463  1.8102
   89SOL     OW 1050   2.853   0.386   4.569  0.2689 -0.0393 -0.5865
   89SOL    HW1 1051   2.902   0.323   4.623 -2.0224 -0.5383  1.0661
   89SOL    HW2 1052   2.871   0.359   4.479  0.2039 -2.4637  0.0456
   90SOL     OW 1053   2.435   1.532   4.362  0.0578  0.7693  0.2655
   90SOL    HW1 1054   2.408   1.443   4.337  0.4897 -0.4210  3.5555
   90SOL    HW2 1055   2.507   1.553   4.302 -0.7894 -0.6018 -1.3121
   91SOL     OW 1056   2.912   0.296   4.303  0.4131 -0.2366 -0.0894
   91SOL    HW1 1057   2.962   0.333   4.231 -0.8768 -0.2732 -1.0484
   91SOL    HW2 1058   2.824   0.332   4.292 -0.0689 -1.0637  0.8615
   92SOL     OW 1059   1.694   0.170   1.302  0.3714 -0.1886  0.0369
   92SOL    HW1 1060   1.642   0.105   1.255  0.1668 -0.3466  0.4754
   92SOL    HW2 1061   1.663   0.254   1.270  0.3213 -0.3002 -0.2024
   93SOL     OW 1062   2.672   3.758   0.715 -0.3644  0.5853  0.3020
   93SOL    HW1 1063   2.645   3.686   0.659 -1.7225  0.1010  1.5054
   93SOL    HW2 1064   2.664   3.723   0.804 -1.5816  2.3708  0.9450
   94SOL     OW 1065   1.274   1.761   5.052 -0.5357  0.7548 -0.3540
   94SOL    HW1 1066   1.183   1.734   5.043 -1.0256  1.0090  2.7489
   94SOL    HW2 1067   1.311   1.752   4.964 -3.7703  1.6405 -1.9439
   95SOL     OW 1068   2.954   3.396   0.915  0.1420 -0.1009  0.1774
   95SOL    HW1 1069   3.034   3.346   0.902  0.3661 -0.0570  1.2752
   95SOL    HW2 1070   2.975   3.484   0.882  0.2272 -0.3466 -0.4170
   96SOL     OW 1071   3.321   1.272   3.849  0.3125  0.6691 -0.0767
   96SOL    HW1 1072   3.414   1.266   3.869 -0.0114  1.5794  2.0389
   96SOL    HW2 1073   3.278   1.274   3.935 -1.7918 -1.1869 -0.9615
   97SOL     OW 1074   1.622   1.063   1.134  0.5588 -0.4671 -0.4665
   97SOL    HW1 1075   1.700   1.117   1.149  0.1191  0.2888 -0.8625
   97SOL    HW2 1076   1.583   1.052   1.221  0.0372  0.8095 -0.5235
   98SOL     OW 1077   3.372   2.345   0.737 -0.3223 -0.1336 -0.2134
   98SOL    HW1 1078   3.403   2.366   0.825  0.7563  0.5983 -0.7445
   98SOL    HW2 1079   3.445   2.368   0.680 -1.9269  1.9452 -1.5660
   99SOL     OW 1080   1.932   2.097   5.248  0.2101 -0.3563  0.1237
   99SOL    HW1 1081   1.844   2.092   5.285  0.9410 -5.1084  2.0166
   99SOL    HW2 1082   1.983   2.147   5.312 -0.8877  1.8748 -0.6768
  100SOL     OW 1083   1.881   3.303   1.658 -0.6127 -0.0536 -0.5756
  100SOL    HW1 1084   1.953   3.343   1.609  0.0752  0.7084  0.9618
  100SOL    HW2 1085   1.802   3.331   1.611  0.0191  0.4581 -1.3682
  101SOL     OW 1086   1.369   1.495   0.347 -0.6198 -0.0228 -0.1629
  101SOL    HW1 1087   1.367   1.589   0.360 -1.1149  0.1111 -1.1239
  101SOL    HW2 1088   1.423   1.482   0.269  0.9074 -0.6724  0.9524
  102SOL     OW 1089   1.117   2.310   4.975 -0.0904 -0.2478  0.0633
  102SOL    HW1 1090   1.115   2.226   4.931 -1.1048  0.2159 -0.8081
  102SOL    HW2 1091   1.031   2.318   5.016  0.1502  0.1819  0.5000
  103SOL     OW 1092   1.328   1.849   0.006  0.4356  0.1127 -0.0075
  103SOL    HW1 1093   1.418   1.850  -0.027  0.8914  3.5019  0.9152
  103SOL    HW2 1094   1.275   1.864  -0.072  0.7755 -0.3948 -0.3472
  104SOL     OW 1095   2.362   3.633   5.006  0.2106  0.5260 -0.2684
  104SOL    HW1 1096   2.423   3.645   5.078  0.1579  1.6837 -0.3963
  104SOL    HW2 1097   2.402   3.565   4.951  0.7169  0.3306  0.3377
  105SOL     OW 1098   3.476   2.097   1.031 -0.1456  0.0976  0.2312
  105SOL    HW1 1099   3.483   2.025   1.094 -3.4437  1.4867  2.4874
  105SOL    HW2 1100   3.469   2.054   0.946  1.7534 -2.0126  1.0512
  106SOL     OW 1101   2.071   4.909   5.046 -0.5048 -0.2156  0.3310
  106SOL    HW1 1102   2.025   4.989   5.073 -2.0142 -0.8041 -0.3656
  106SOL    HW2 1103   2.157   4.939   5.017 -1.0678  1.1708  0.0017
  107SOL     OW 1104   1.524   2.743   4.643 -0.3850 -0.2592 -0.0430
  107SOL    HW1 1105   1.472   2.804   4.696 -3.2832 -0.2882 -2.5685
  107SOL    HW2 1106   1.479   2.659   4.651  0.6295 -0.8769 -0.5539
  108SOL     OW 1107   1.162   1.117   1.502 -0.2282 -0.0263  0.2653
  108SOL    HW1 1108   1.116   1.116   1.585  1.0508 -0.2020  1.0027
  108SOL    HW2 1109   1.214   1.197   1.504  2.3149 -1.5675  1.1228
  109SOL     OW 1110   3.100   2.972   1.868  0.5368 -0.3340 -0.7421
  109SOL    HW1 1111   3.103   3.055   1.820 -0.9953 -0.3493 -0.9156
  109SOL    HW2 1112   3.082   2.997   1.959  2.7680 -0.3478 -0.2350
  110SOL     OW 1113   2.499   3.113   4.560 -0.4844 -0.1036  0.0749
  110SOL    HW1 1114   2.569   3.060   4.599 -1.0281 -2.1159 -1.4862
  110SOL    HW2 1115   2.528   3.204   4.571  1.0868 -0.7556  1.7862
  111SOL     OW 1116   3.604   0.370   0.573  0.0815 -0.2585  0.5441
  111SOL    HW1 1117   3.554   0.392   0.494 -2.5316 -2.6269  1.3792
  111SOL    HW2 1118   3.669   0.306   0.543  0.2730  0.1562  0.0500
  112SOL     OW 1119   2.720   2.587   4.768 -0.6023 -0.4255  0.0748
  112SOL    HW1 1120   2.788   2.521   4.778  0.6708  0.1354 -3.4553
  112SOL    HW2 1121   2.653   2.544   4.714 -1.1084  0.3092  0.1042
  113SOL     OW 1122   2.878   0.100   4.704 -0.2434 -0.1583  0.2518
  113SOL    HW1 1123   2.870   0.055   4.789 -0.9558 -1.3593 -0.4208
  113SOL    HW2 1124   2.870   0.029   4.640 -2.2787  1.0162 -0.8871
  114SOL     OW 1125   2.103   1.532   1.263  0.0166 -0.4562  0.2080
  114SOL    HW1 1126   2.039   1.579   1.210  0.2737  0.0947  0.3836
  114SOL    HW2 1127   2.171   1.596   1.282 -0.2871 -0.5034  1.5777
  115SOL     OW 1128   2.403   3.250   2.268  0.1090  0.3256 -0.5757
  115SOL    HW1 1129   2.343   3.296   2.327  1.3277 -0.2639  1.2099
  115SOL    HW2 1130   2.354   3.239   2.187 -1.0650  2.6270 -0.2518
  116SOL     OW 1131   3.085   1.370   0.088  0.3672 -0.3919 -0.2679
  116SOL    HW1 1132   3.016   1.305   0.074 -1.7956  1.6293  0.2606
  116SOL    HW2 1133   3.089   1.419   0.006 -0.2795  0.7412  0.3449
  117SOL     OW 1134   3.148   1.347   0.739 -0.0628  0.3151  0.3862
  117SOL    HW1 1135   3.226   1.359   0.686  0.8338 -0.3355  1.5216
  117SOL    HW2 1136   3.098   1.427   0.726  1.6287  1.5200  0.9928
  118SOL     OW 1137   3.408   0.912   4.318  0.4614  0.8716 -0.2721
  118SOL    HW1 1138   3.365   0.859   4.251 -2.0417  1.3085  0.8654
  118SOL    HW2 1139   3.489   0.943   4.277  2.1242 -3.7164 -1.0309
  119SOL     OW 1140   3.836   0.938   1.207  0.0203 -0.4975  0.1953
  119SOL    HW1 1141   3.785   0.883   1.267 -0.4230  0.7494  1.0059
  119SOL    HW2 1142   3.886   0.996   1.265  0.1337  0.2504 -0.6305
  120SOL     OW 1143   1.570   4.706   1.116 -0.3521  0.1645 -0.2166
  120SOL    HW1 1144   1.595   4.683   1.027 -0.1934  0.9395 -0.3771
  120SOL    HW2 1145   1.593   4.629   1.168 -0.5609 -0.3385 -0.8585
  121SOL     OW 1146   1.654   1.034   1.449  0.0794 -0.7218 -0.2844
  121SOL    HW1 1147   1.736   1.017   1.403 -0.1090  0.7517 -1.2282
  121SOL    HW2 1148   1.673   1.111   1.504 -0.7914 -0.0723 -0.8800
  122SOL     OW 1149   3.119   1.073   1.512  0.3956 -0.0412  0.7231
  122SOL    HW1 1150   3.175   1.005   1.472 -0.6126  0.2538 -1.3436
  122SOL    HW2 1151   3.033   1.031   1.520  0.3431  0.2404  1.7264
  123SOL     OW 1152   1.255   5.267   0.295 -0.1370  0.0576 -0.0628
  123SOL    HW1 1153   1.345   5.236   0.280 -0.3762  0.2551 -2.2509
  123SOL    HW2 1154   1.222   5.286   0.207 -2.1899  0.3889  0.7411
  124SOL     OW 1155   4.609   1.814   2.134 -0.0231  0.5355 -0.0417
  124SOL    HW1 1156   4.530   1.866   2.123  0.0444  1.0506  1.5167
  124SOL    HW2 1157   4.676   1.860   2.083 -0.4213  0.8923 -0.2443
  125SOL     OW 1158   2.757   0.397   0.666  0.2683 -0.2357  0.4299
  125SOL    HW1 1159   2.841   0.366   0.633 -0.9633 -2.2142 -1.1642
  125SOL    HW2 1160   2.748   0.486   0.632  1.5275 -0.1534  0.2931
  126SOL     OW 1161   3.220   0.099   2.264  0.5048  0.2945 -0.9205
  126SOL    HW1 1162   3.295   0.083   2.321  1.7005  1.7832 -1.9738
  126SOL    HW2 1163   3.247   0.174   2.211 -2.3532  1.9298 -0.2506
  127SOL     OW 1164   3.289   4.772   0.599  0.1204 -0.6753 -0.5773
  127SOL    HW1 1165   3.264   4.862   0.621 -0.5150 -1.3040  1.5556
  127SOL    HW2 1166   3.263   4.762   0.508 -1.1054  0.8771 -0.4592
  128SOL     OW 1167   3.214   1.523   3.786  0.1799 -0.7701  0.7659
  128SOL    HW1 1168   3.228   1.546   3.694  2.8897  1.6152  1.6271
  128SOL    HW2 1169   3.272   1.447   3.800  0.4258 -0.5985  0.6887
  129SOL     OW 1170   1.767   0.774   4.481  0.0610  0.0809  0.3369
  129SOL    HW1 1171   1.857   0.803   4.494  0.7371 -2.3390  1.6608
  129SOL    HW2 1172   1.774   0.679   4.472 -2.1432  0.0336 -2.0430
  130SOL     OW 1173   2.220   3.018   5.020 -0.0167 -0.2748 -0.1375
  130SOL    HW1 1174   2.242   2.926   5.013 -1.4849 -0.6809  0.2199
  130SOL    HW2 1175   2.238   3.040   5.112  3.4239  0.7033 -0.9037
  131SOL     OW 1176   2.081   4.562   4.411 -0.6252  0.4192  0.3177
  131SOL    HW1 1177   2.150   4.537   4.472  0.1786  0.6226 -0.4950
  131SOL    HW2 1178   2.057   4.480   4.368  1.9793  0.8773 -2.3137
  132SOL     OW 1179   1.943   3.851   0.247 -0.6503  0.0406  0.0338
  132SOL    HW1 1180   1.848   3.854   0.238 -0.6375  0.0430 -0.1168
  132SOL    HW2 1181   1.964   3.922   0.308 -0.6948  0.4536 -0.4144
  133SOL     OW 1182   1.594   1.577   1.552  0.6423  0.6138 -0.1934
  133SOL    HW1 1183   1.540   1.656   1.547  2.5750  2.1800  1.7031
  133SOL    HW2 1184   1.670   1.597   1.496 -0.1384 -1.1388 -2.0004
  134SOL     OW 1185   1.194   2.948   1.010 -0.1478 -0.2575  0.3273
  134SOL    HW1 1186   1.224   2.860   0.988 -0.9999 -0.8920  1.5570
  134SOL    HW2 1187   1.167   2.942   1.102 -3.9166  0.1990 -0.5617
  135SOL     OW 1188   2.070   1.939   1.583 -0.4875  0.5718  0.3010
  135SOL    HW1 1189   2.035   2.023   1.553  0.5308  1.1133  0.6119
  135SOL    HW2 1190   2.157   1.959   1.618  0.6094 -0.9053 -1.4029
  136SOL     OW 1191   0.950   1.550   0.486  0.5890  0.4602 -0.5108
  136SOL    HW1 1192   0.944   1.462   0.524 -0.8192  0.1369 -1.4256
  136SOL    HW2 1193   0.978   1.535   0.396 -0.2658  0.8900 -0.8565
  137SOL     OW 1194   2.137   4.513   0.468 -0.2328  0.6341  0.0336
  137SOL    HW1 1195   2.141   4.462   0.549 -0.7962 -1.0463 -0.9448
  137SOL    HW2 1196   2.214   4.570   0.471  0.5222 -0.4045  1.1023
  138SOL     OW 1197   1.438   0.363   0.920  0.2191 -0.2460  0.1639
  138SOL    HW1 1198   1.346   0.340   0.932 -0.7688  2.6837 -0.9992
  138SOL    HW2 1199   1.482   0.326   0.997 -2.3003  0.1229  1.9056
  139SOL     OW 1200   2.859   3.094   0.651 -0.0886 -0.1707  0.4165
  139SOL    HW1 1201   2.780   3.048   0.622 -1.1933 -0.1857  3.1876
  139SOL    HW2 1202   2.828   3.182   0.673  0.2344 -0.6256  3.0341
  140SOL     OW 1203   1.962   2.412   4.843  0.2809  0.5821 -0.4983
  140SOL    HW1 1204   2.009   2.352   4.901  0.7890  1.3596 -0.0843
  140SOL    HW2 1205   1.891   2.360   4.807  0.1005  0.0100  0.6331
  141SOL     OW 1206   2.297   3.742   0.735 -0.5622 -0.6833  0.1606
  141SOL    HW1 1207   2.270   3.754   0.644 -2.7948  0.6274  0.9044
  141SOL    HW2 1208   2.279   3.650   0.754 -0.0970 -0.9584 -0.6888
  142SOL     OW 1209   2.583   2.355   3.336 -0.8400 -0.4403  0.1833
  142SOL    HW1 1210   2.615   2.271   3.370  0.4790  0.9049  2.5570
  142SOL    HW2 1211   2.656   2.416   3.352 -0.3658  0.6197 -4.5151
  143SOL     OW 1212   3.327   1.123   3.222  0.2085  0.1372 -0.0575
  143SOL    HW1 1213   3.257   1.188   3.219  0.2397  0.1405 -1.2209
  143SOL    HW2 1214   3.290   1.050   3.272 -0.0637  0.7656  0.6797
  144SOL     OW 1215   0.799   1.564   5.126 -0.9390  0.0159  0.1374
  144SOL    HW1 1216   0.718   1.523   5.155  0.4564 -2.2977  1.0752
  144SOL    HW2 1217   0.858   1.554   5.201  0.2911  1.4482 -0.5931
  145SOL     OW 1218   2.397   1.920   1.445  0.6431  0.2197 -0.3066
  145SOL    HW1 1219   2.326   1.980   1.470  1.6628  2.3343 -2.1518
  145SOL    HW2 1220   2.361   1.833   1.462 -0.8459  1.2626  2.7200
  146SOL     OW 1221   2.660   4.522   4.623 -0.0181 -0.3436 -0.6061
  146SOL    HW1 1222   2.654   4.464   4.699  1.3806  1.4332  0.9386
  146SOL    HW2 1223   2.728   4.483   4.569 -0.2711 -1.0347 -0.4406
  147SOL     OW 1224   1.860   5.117   4.839 -0.2359 -0.0024 -0.9356
  147SOL    HW1 1225   1.769   5.121   4.809 -0.0307  1.1445 -1.4786
  147SOL    HW2 1226   1.857   5.150   4.929 -0.2517  0.9416 -1.2666
  148SOL     OW 1227   1.850   0.518   4.476  0.1321  0.6101 -0.1569
  148SOL    HW1 1228   1.912   0.455   4.441  0.2555 -0.0877  1.2377
  148SOL    HW2 1229   1.878   0.532   4.567 -0.4123  2.0166 -0.1764
  149SOL     OW 1230   3.533   1.118   3.977  0.1844 -0.3167  0.3009
  149SOL    HW1 1231   3.624   1.096   3.997  1.2981  2.0930 -1.5797
  149SOL    HW2 1232   3.490   1.120   4.062  1.8968 -1.3385  1.2600
  150SOL     OW 1233   1.321   0.863   5.237 -0.1147 -0.1390  0.1202
  150SOL    HW1 1234   1.269   0.917   5.297 -0.3470  0.7486 -0.8459
  150SOL    HW2 1235   1.313   0.907   5.153  0.9291 -0.8692 -0.3799
  151SOL     OW 1236   3.958   0.666   1.956  0.2579 -0.3429  0.0845
  151SOL    HW1 1237   3.999   0.593   2.001 -0.2354 -0.8044 -0.2000
  151SOL    HW2 1238   3.940   0.730   2.025  2.3937  0.3388  0.0750
  152SOL     OW 1239   3.033   2.178   1.348 -1.0963 -0.2878  0.0375
  152SOL    HW1 1240   3.052   2.162   1.440 -1.2682  2.3335  0.5878
  152SOL    HW2 1241   2.944   2.214   1.348 -0.7270  0.6581 -1.0567
  153SOL     OW 1242   3.193   0.438   1.856  0.6881  0.1195 -1.0729
  153SOL    HW1 1243   3.250   0.379   1.905  0.2567  1.1351  0.7466
  153SOL    HW2 1244   3.116   0.449   1.912  0.8730  2.6106 -1.1915
  154SOL     OW 1245   2.813   1.312   0.390 -0.4219 -0.1885  0.3980
  154SOL    HW1 1246   2.871   1.377   0.430 -0.5260  0.1073  0.0711
  154SOL    HW2 1247   2.737   1.362   0.361 -0.1120 -0.2984 -0.6594
  155SOL     OW 1248   0.889   1.939   0.862 -0.4065  0.5312  0.4254
  155SOL    HW1 1249   0.831   1.873   0.822 -0.1715  0.1368  0.7292
  155SOL    HW2 1250   0.920   1.898   0.943  1.4934  0.1062 -0.4529
  156SOL     OW 1251   2.813   0.191   3.687 -0.0757 -0.9919 -0.4657
  156SOL    HW1 1252   2.729   0.187   3.641 -0.3293 -1.3606  0.0241
  156SOL    HW2 1253   2.815   0.111   3.739 -0.1516 -0.2096  0.7804
  157SOL     OW 1254   1.711   2.557   4.524  0.2201 -0.1538 -0.5645
  157SOL    HW1 1255   1.648   2.628   4.509 -1.2941 -0.9029  1.7761
  157SOL    HW2 1256   1.657   2.479   4.533  1.7597 -1.3785 -1.5517
  158SOL     OW 1257   1.239   1.288   0.524  0.4947 -0.2031  0.8339
  158SOL    HW1 1258   1.207   1.335   0.601 -0.9363  0.2457 -0.0013
  158SOL    HW2 1259   1.262   1.357   0.462  3.0629 -0.5076  1.3302
  159SOL     OW 1260   3.622   5.235   5.266  0.5509 -0.1826 -0.8848
  159SOL    HW1 1261   3.700   5.266   5.219 -0.1177  0.8234 -1.3597
  159SOL    HW2 1262   3.609   5.298   5.336 -1.2841  1.1693 -2.3316
  160SOL     OW 1263   1.843   0.162   1.739  0.7527  0.0681 -0.0092
  160SOL    HW1 1264   1.837   0.134   1.648 -0.9485  0.4875 -0.0691
  160SOL    HW2 1265   1.923   0.123   1.771  0.4750 -1.5742 -1.1860
  161SOL     OW 1266   2.428   5.191   2.531 -0.4466 -0.8959  0.5359
  161SOL    HW1 1267   2.500   5.150   2.481  0.0535 -0.1671  0.6411
  161SOL    HW2 1268   2.445   5.285   2.524 -1.6000 -0.6889  0.2681
  162SOL     OW 1269   2.937   5.241   4.968 -0.6827 -0.0238  0.2872
  162SOL    HW1 1270   3.017   5.295   4.975  0.3709 -1.4136 -0.5424
  162SOL    HW2 1271   2.896   5.248   5.055  1.0277 -0.2747  1.1663
  163SOL     OW 1272   3.643   0.768   4.353  0.1004 -0.1024 -0.3019
  163SOL    HW1 1273   3.634   0.798   4.444  0.9226 -1.5407  0.2893
  163SOL    HW2 1274   3.581   0.695   4.346  1.5604 -1.4145 -0.1929
  164SOL     OW 1275   1.452   1.035   0.534 -0.1998  0.2395  0.0715
  164SOL    HW1 1276   1.436   1.122   0.571  3.8154  1.4216 -0.4694
  164SOL    HW2 1277   1.453   1.049   0.439  0.5770 -0.3598 -0.0161
  165SOL     OW 1278   2.197   3.256   1.551  0.0666 -0.0815 -0.5053
  165SOL    HW1 1279   2.238   3.294   1.473  1.2948 -4.6123 -2.4371
  165SOL    HW2 1280   2.191   3.163   1.531 -1.2604 -1.2685  4.1949
  166SOL     OW 1281   1.104   1.811   0.596  0.4558 -0.4524 -0.4600
  166SOL    HW1 1282   1.012   1.796   0.614  0.3614 -0.1416 -0.6658
  166SOL    HW2 1283   1.131   1.876   0.661  0.8885 -1.5634  0.4976
  167SOL     OW 1284   3.217   1.333   1.474  0.2753  1.0599  0.6792
  167SOL    HW1 1285   3.197   1.339   1.381 -0.9498  0.6506  0.9029
  167SOL    HW2 1286   3.176   1.252   1.503  3.0088 -0.3107  1.0317
  168SOL     OW 1287   1.721   2.536   1.352 -0.4464 -0.6249  0.4357
  168SOL    HW1 1288   1.806   2.562   1.387 -0.9155  2.9015 -0.6044
  168SOL    HW2 1289   1.738   2.457   1.301  3.2240  1.9611 -3.0239
  169SOL     OW 1290   1.377   0.666   1.961  0.9934  0.2698  0.2203
  169SOL    HW1 1291   1.331   0.749   1.950 -2.2150 -1.5935 -1.9098
  169SOL    HW2 1292   1.429   0.657   1.881  0.2464 -0.3507 -0.2072
  170SOL     OW 1293   2.908   1.167   5.267  0.6683  0.2711  0.3840
  170SOL    HW1 1294   2.818   1.183   5.240  0.3751  1.8063  2.0447
  170SOL    HW2 1295   2.903   1.085   5.318 -0.3552  1.6605  2.6668
  171SOL     OW 1296   1.762   0.649   2.618 -0.2903  0.2158  0.5714
  171SOL    HW1 1297   1.741   0.603   2.537  0.7500 -0.2897  0.5802
  171SOL    HW2 1298   1.695   0.620   2.680 -0.3153 -0.3977  0.2590
  172SOL     OW 1299   1.697   5.163   0.390  0.3004  0.0234  0.2443
  172SOL    HW1 1300   1.678   5.171   0.484 -1.0949 -0.4674  0.0233
  172SOL    HW2 1301   1.763   5.230   0.373 -0.0393  0.6815  1.4116
  173SOL     OW 1302   1.573   4.631   0.862  0.0020  0.4256  0.4586
  173SOL    HW1 1303   1.645   4.594   0.811 -1.8932  2.6486 -4.4758
  173SOL    HW2 1304   1.532   4.555   0.904  3.0670 -1.3212  0.5636
  174SOL     OW 1305   3.425   0.996   4.998 -0.5443 -0.0419  0.0731
  174SOL    HW1 1306   3.386   0.939   4.930 -2.3333  0.2173  0.8331
  174SOL    HW2 1307   3.369   1.073   4.999  1.7270  1.7280 -0.7888
  175SOL     OW 1308   2.088   4.600   1.835 -0.4036  0.1647  0.1743
  175SOL    HW1 1309   2.091   4.575   1.928 -3.4958 -0.4421  0.2211
  175SOL    HW2 1310   2.001   4.640   1.824 -1.8377 -3.2918 -3.2106
  176SOL     OW 1311   1.544   1.363   4.688  0.4845  0.6389 -0.4910
  176SOL    HW1 1312   1.595   1.342   4.767  0.6519 -0.1101 -0.7950
  176SOL    HW2 1313   1.605   1.413   4.633  0.6523  0.3900 -0.5316
  177SOL     OW 1314   2.545   3.164   1.625  0.9887  0.5957 -0.2070
  177SOL    HW1 1315   2.537   3.257   1.604 -0.3836  0.3565 -0.7820
  177SOL    HW2 1316   2.518   3.158   1.717  0.5631  0.6963 -0.3233
  178SOL     OW 1317   2.606   4.265   0.916 -0.0025 -0.2130 -0.5734
  178SOL    HW1 1318   2.664   4.234   0.985 -0.9038 -2.3402 -0.6783
  178SOL    HW2 1319   2.613   4.199   0.847 -1.7225  0.0330 -1.0326
  179SOL     OW 1320   1.993   0.238   1.514 -0.4674  0.3907 -0.0997
  179SOL    HW1 1321   2.042   0.157   1.528 -0.3375  0.8960  3.2733
  179SOL    HW2 1322   2.059   0.306   1.503 -0.3280  0.7575  2.4139
  180SOL     OW 1323   2.272   3.524   1.122 -0.3496 -0.1382 -0.1755
  180SOL    HW1 1324   2.220   3.485   1.053  2.2788  3.0087 -4.4120
  180SOL    HW2 1325   2.232   3.610   1.138  1.9582  1.3815 -1.8743
  181SOL     OW 1326   3.276   1.945   4.994 -0.8420 -0.5843 -0.0406
  181SOL    HW1 1327   3.361   1.906   4.972  0.5649  3.2672 -2.5833
  181SOL    HW2 1328   3.215   1.906   4.932 -0.4755 -1.7717  0.3218
  182SOL     OW 1329   1.704   1.820   1.475 -0.1486 -0.4868 -0.1069
  182SOL    HW1 1330   1.643   1.892   1.491 -0.3119 -0.4721 -0.7530
  182SOL    HW2 1331   1.767   1.825   1.547 -0.0352  0.4221 -0.2597
  183SOL     OW 1332   2.035   2.810   0.017  0.5949  0.9071 -0.6160
  183SOL    HW1 1333   2.016   2.884  -0.041 -1.1279  1.7086  0.8619
  183SOL    HW2 1334   1.990   2.736  -0.024  2.2061  0.6339 -2.0250
  184SOL     OW 1335   3.183   3.215   0.961 -0.1598  0.4795 -0.1823
  184SOL    HW1 1336   3.162   3.123   0.978 -2.9137  0.7744 -1.5120
  184SOL    HW2 1337   3.190   3.254   1.048 -2.2378 -0.3620  0.4319
  185SOL     OW 1338   1.789   4.501   0.742 -0.5833 -1.0908  0.0825
  185SOL    HW1 1339   1.730   4.518   0.668  1.4193  0.0553 -1.3394
  185SOL    HW2 1340   1.831   4.585   0.759 -0.2905 -1.5615  1.9426
  186SOL     OW 1341   1.735   0.811   1.667 -0.3854  0.8082  0.1406
  186SOL    HW1 1342   1.798   0.883   1.677 -0.2596  0.6363  0.6336
  186SOL    HW2 1343   1.690   0.830   1.585  0.2878  0.9548 -0.2033
  187SOL     OW 1344   2.707   4.840   4.858  0.0852 -0.2180  0.6926
  187SOL    HW1 1345   2.623   4.805   4.890 -1.6164  1.4459 -1.6610
  187SOL    HW2 1346   2.710   4.815   4.766  1.0914  1.6314  0.1753
  188SOL     OW 1347   1.811   2.718   5.177 -0.0214  0.0571 -0.1530
  188SOL    HW1 1348   1.771   2.801   5.153 -1.5263 -0.1233  1.5205
  188SOL    HW2 1349   1.801   2.663   5.099 -0.2267  1.0097 -0.8100
  189SOL     OW 1350   2.884   2.790   0.479  0.1781 -0.5137 -0.3592
  189SOL    HW1 1351   2.914   2.880   0.471 -1.5688  0.0550 -1.0564
  189SOL    HW2 1352   2.885   2.772   0.573 -1.9417  1.1760  0.0664
  190SOL     OW 1353   2.174   1.116   4.462  0.5699 -0.1029 -0.0230
  190SOL    HW1 1354   2.099   1.090   4.515 -0.0299  2.4658  0.5260
  190SOL    HW2 1355   2.213   1.033   4.433 -3.1385 -1.6080 -1.3606
  191SOL     OW 1356   2.956   0.117   5.217  0.4956 -0.2587 -0.5000
  191SOL    HW1 1357   2.935   0.162   5.135  1.9740 -0.4109 -0.9964
  191SOL    HW2 1358   3.014   0.178   5.263 -0.8730  0.1367  0.7995
  192SOL     OW 1359   2.021   3.645   0.081  0.5483  0.6934 -0.9108
  192SOL    HW1 1360   1.989   3.693   0.005  1.7891  1.0325 -1.2465
  192SOL    HW2 1361   2.010   3.705   0.154 -1.6575 -0.0255 -0.5927
  193SOL     OW 1362   2.018   5.235   0.655  0.6128 -0.6522  0.6349
  193SOL    HW1 1363   2.035   5.141   0.652  2.1582 -0.4688  2.2206
  193SOL    HW2 1364   1.955   5.246   0.726  0.1393 -0.4971  0.2033
  194SOL     OW 1365   1.446   0.819   0.714 -0.2916  0.0911 -0.0880
  194SOL    HW1 1366   1.430   0.880   0.642 -0.2928 -0.8945 -0.9473
  194SOL    HW2 1367   1.397   0.856   0.788  1.0061  1.9764 -0.0975
  195SOL     OW 1368   2.180   3.907   1.446  0.2202  0.8860  0.0204
  195SOL    HW1 1369   2.136   3.842   1.391  1.3396  1.4353 -1.5839
  195SOL    HW2 1370   2.109   3.961   1.480 -0.8881 -1.7172  2.2885
  196SOL     OW 1371   3.000   0.768   4.480 -0.8662 -0.0666 -0.2878
  196SOL    HW1 1372   2.910   0.795   4.499 -1.2564  0.1859 -2.2121
  196SOL    HW2 1373   3.046   0.850   4.461 -0.9406 -0.3659 -1.9125
  197SOL     OW 1374   2.394   2.766   4.531  0.0329  0.4154  0.4480
  197SOL    HW1 1375   2.314   2.770   4.583  0.1660  0.4144  0.6519
  197SOL    HW2 1376   2.458   2.818   4.580  0.6080 -0.8404  1.0639
  198SOL     OW 1377   1.595   1.471   4.058  0.2691  0.4878  0.1856
  198SOL    HW1 1378   1.596   1.565   4.039 -0.3457  0.9424  2.1766
  198SOL    HW2 1379   1.605   1.429   3.972  3.5014  2.3538 -0.5373
  199SOL     OW 1380   1.759   0.150   4.903 -0.0814 -0.1608 -0.0998
  199SOL    HW1 1381   1.727   0.111   4.984 -0.1862  0.2035  0.0359
  199SOL    HW2 1382   1.680   0.173   4.854 -0.0198 -0.2807 -0.2586
  200SOL     OW 1383   3.041   1.193   4.322 -0.0830  0.1025  0.0938
  200SOL    HW1 1384   2.982   1.257   4.361 -1.3155 -0.4180 -0.8395
  200SOL    HW2 1385   3.081   1.149   4.397 -0.0490  1.2035  0.7432
  201SOL     OW 1386   2.389   3.764   4.547  0.0409 -0.8173 -0.1991
  201SOL    HW1 1387   2.449   3.768   4.622 -1.6178 -2.4732  1.3316
  201SOL    HW2 1388   2.409   3.843   4.496  1.4759  0.2060  1.7919
  202SOL     OW 1389   2.458   0.192   2.941  0.0176  0.2735 -0.3823
  202SOL    HW1 1390   2.536   0.241   2.966  0.1747  0.3662 -1.0211
  202SOL    HW2 1391   2.387   0.234   2.988  0.1251  1.2299 -1.0458
  203SOL     OW 1392   1.310   3.091   0.667 -0.4441  0.0022  0.1697
  203SOL    HW1 1393   1.227   3.088   0.715 -0.5064 -0.9982  0.0298
  203SOL    HW2 1394   1.298   3.160   0.602 -1.9871 -1.4881 -1.2526
  204SOL     OW 1395   1.403   0.482   4.140  1.4644 -0.3898 -0.1444
  204SOL    HW1 1396   1.454   0.516   4.214  0.2998  0.4271  0.3103
  204SOL    HW2 1397   1.382   0.558   4.087  1.4652 -0.8454 -0.8186
  205SOL     OW 1398   2.501   4.874   0.109 -0.0214  0.0665  0.6241
  205SOL    HW1 1399   2.595   4.893   0.107  0.0321  0.1396 -2.8807
  205SOL    HW2 1400   2.461   4.955   0.138  0.9133  0.9374 -0.4026
  206SOL     OW 1401   2.884   1.627   4.873 -0.3719  0.6053 -0.1303
  206SOL    HW1 1402   2.840   1.625   4.788  1.2820 -2.0108 -1.0634
  206SOL    HW2 1403   2.847   1.552   4.920 -0.0857  1.0401  0.7926
  207SOL     OW 1404   1.383   1.318   1.563 -0.1645  0.5751  0.0980
  207SOL    HW1 1405   1.388   1.335   1.469  0.1883 -0.3127 -0.0555
  207SOL    HW2 1406   1.334   1.392   1.599 -1.3554  0.3296 -0.9477
  208SOL     OW 1407   2.532   3.430   0.844  0.7568  0.4702  0.4015
  208SOL    HW1 1408   2.477   3.482   0.785  0.7251 -0.8729 -0.8292
  208SOL    HW2 1409   2.494   3.342   0.840  1.4273  0.1024  1.6007
  209SOL     OW 1410   2.092   0.135   4.222  0.4865  0.3317 -0.3532
  209SOL    HW1 1411   2.187   0.151   4.218  0.1191  2.8548 -3.1622
  209SOL    HW2 1412   2.082   0.043   4.197  2.1766  0.1508 -0.4827
  210SOL     OW 1413   1.528   0.677   4.347 -0.6213  0.1321  0.5217
  210SOL    HW1 1414   1.575   0.705   4.268 -2.3735  0.0386 -0.6292
  210SOL    HW2 1415   1.551   0.742   4.413 -0.7007  1.4134 -0.6626
  211SOL     OW 1416   2.993   3.886   5.082  0.0141  0.1227 -0.5929
  211SOL    HW1 1417   2.972   3.883   4.989  2.2237  0.0411 -1.1428
  211SOL    HW2 1418   2.966   3.800   5.115 -0.2297 -0.0667 -1.2708
  212SOL     OW 1419   3.271   0.431   1.419 -1.1478 -0.4139 -0.0040
  212SOL    HW1 1420   3.353   0.420   1.467 -0.9408 -3.1606 -0.7913
  212SOL    HW2 1421   3.297   0.470   1.336 -0.8426  0.0434  0.3041
  213SOL     OW 1422   3.825   0.758   2.233  0.2245  0.4106  0.3780
  213SOL    HW1 1423   3.735   0.771   2.261  0.3972  0.8250  0.7628
  213SOL    HW2 1424   3.875   0.821   2.285  0.7961 -0.1724  0.5417
  214SOL     OW 1425   2.870   4.053   5.255 -0.7725 -1.1332 -0.1853
  214SOL    HW1 1426   2.888   4.139   5.215  1.4201  0.0292  2.9442
  214SOL    HW2 1427   2.899   3.990   5.189 -1.9206  0.4524 -2.3527
  215SOL     OW 1428   3.203   1.122   4.118  0.5832  0.3677 -0.8779
  215SOL    HW1 1429   3.172   1.031   4.121 -0.3530  0.4491 -4.0324
  215SOL    HW2 1430   3.153   1.167   4.186 -1.3152 -0.9016 -1.3369
  216SOL     OW 1431   3.822   0.417   1.499 -0.5934 -0.2348 -0.7938
  216SOL    HW1 1432   3.852   0.386   1.585 -0.7663  0.0916 -0.6152
  216SOL    HW2 1433   3.808   0.336   1.449  0.7399 -0.3837 -0.9468
  217SOL     OW 1434   3.211   5.027   0.555  0.0458  0.0495  0.4264
  217SOL    HW1 1435   3.305   5.029   0.537 -0.4475 -0.0903 -2.9186
  217SOL    HW2 1436   3.172   5.078   0.483 -2.4907 -0.6965  1.1716
  218SOL     OW 1437   3.612   0.402   0.292 -0.3091 -0.2664  0.6788
  218SOL    HW1 1438   3.669   0.414   0.217  1.6868  0.2852  2.2088
  218SOL    HW2 1439   3.559   0.482   0.294 -0.5306 -0.3756 -0.2226
  219SOL     OW 1440   2.304   2.775   0.112  0.1133 -0.2607  0.2739
  219SOL    HW1 1441   2.318   2.690   0.153  0.5852 -0.9554 -1.2135
  219SOL    HW2 1442   2.212   2.775   0.086 -0.7356  1.0055  3.0002
  220SOL     OW 1443   3.121   4.311   0.453  0.6091 -0.1015  0.2137
  220SOL    HW1 1444   3.155   4.364   0.525 -1.8616  1.1162  0.6088
  220SOL    HW2 1445   3.062   4.370   0.406 -0.0147 -1.7012 -1.0847
  221SOL     OW 1446   2.907   3.741   0.133 -0.4774  0.2049  0.3227
  221SOL    HW1 1447   2.881   3.794   0.207  0.5603  0.3973  0.5599
  221SOL    HW2 1448   3.002   3.753   0.126 -0.1922 -1.6364  0.4179
  222SOL     OW 1449   2.121   4.961   2.370  0.7610 -0.2445 -0.3353
  222SOL    HW1 1450   2.177   4.998   2.301 -0.0284  1.5829 -0.0691
  222SOL    HW2 1451   2.098   5.037   2.424 -1.3549 -1.0704 -0.0020
  223SOL     OW 1452   1.972   4.111   0.377 -0.4257 -0.9103  0.0386
  223SOL    HW1 1453   1.981   4.191   0.324 -1.7566 -0.6842  0.1232
  223SOL    HW2 1454   1.948   4.142   0.464  0.2203 -1.3639  0.3884
  224SOL     OW 1455   2.641   5.126   4.818  0.1850 -0.2530 -0.8821
  224SOL    HW1 1456   2.674   5.036   4.816 -0.9609 -0.6843 -2.1191
  224SOL    HW2 1457   2.641   5.153   4.726 -4.0967 -0.8052 -1.2178
  225SOL     OW 1458   2.561   2.807   1.802  0.2549 -0.2032 -0.2108
  225SOL    HW1 1459   2.654   2.825   1.790  0.5636 -1.8067 -0.5230
  225SOL    HW2 1460   2.528   2.882   1.850  0.6031  2.9213 -4.3238
  226SOL     OW 1461   2.087   2.536   0.160  0.8689  0.1910  0.1760
  226SOL    HW1 1462   2.043   2.610   0.121  0.4242 -0.3085 -0.2763
  226SOL    HW2 1463   2.060   2.538   0.252  0.3391  0.2031  0.0209
  227SOL     OW 1464   2.290   3.078   5.280  0.6770  0.2065  0.3161
  227SOL    HW1 1465   2.267   2.991   5.313  2.5132  0.1287  1.5621
  227SOL    HW2 1466   2.296   3.132   5.359  2.6099  0.6574 -0.0754
  228SOL     OW 1467   3.653   0.760   1.519  0.2206 -0.1287  0.2903
  228SOL    HW1 1468   3.585   0.708   1.561  2.3204 -2.9477  0.4853
  228SOL    HW2 1469   3.638   0.747   1.425 -0.9513  1.3596  0.2324
  229SOL     OW 1470   1.498   2.996   0.092 -0.5150 -0.1741 -0.1765
  229SOL    HW1 1471   1.497   2.913   0.140 -0.5827  0.4852  1.0048
  229SOL    HW2 1472   1.511   3.062   0.160 -1.2627  0.8476 -0.9972
  230SOL     OW 1473   1.795   0.528   1.774  0.6402 -0.3217  0.0748
  230SOL    HW1 1474   1.818   0.620   1.759 -1.7449  0.9497  3.1530
  230SOL    HW2 1475   1.879   0.482   1.774  1.9830  1.9658 -0.6817
  231SOL     OW 1476   2.751   4.700   0.655  0.3967 -0.7551  0.7191
  231SOL    HW1 1477   2.725   4.673   0.567  2.7092 -2.7241  0.5544
  231SOL    HW2 1478   2.798   4.783   0.642  1.9680 -1.7396 -0.1349
  232SOL     OW 1479   1.921   4.887   0.450 -0.6393 -0.9663 -0.4000
  232SOL    HW1 1480   1.856   4.821   0.427 -2.3994  1.0497 -1.5032
  232SOL    HW2 1481   1.954   4.919   0.366 -1.2685  0.8962  0.0163
  233SOL     OW 1482   2.548   2.733   5.232 -0.0830 -0.4346  0.6216
  233SOL    HW1 1483   2.555   2.640   5.213 -2.8821 -0.5650 -0.2264
  233SOL    HW2 1484   2.453   2.749   5.239  0.3276  2.2682  1.1568
  234SOL     OW 1485   1.738   1.249   1.645 -0.1750 -0.1989  0.2353
  234SOL    HW1 1486   1.674   1.318   1.664  0.4351 -0.3373  3.2348
  234SOL    HW2 1487   1.821   1.295   1.635 -0.0346 -0.3604  0.6412
  235SOL     OW 1488   2.384   1.691   1.200  0.1148 -0.4632 -0.2844
  235SOL    HW1 1489   2.424   1.776   1.219 -2.1033  0.3795  0.9306
  235SOL    HW2 1490   2.452   1.643   1.153  1.6084  1.7890 -0.5799
  236SOL     OW 1491   1.498   1.446   2.073  0.6663  0.4256 -0.2350
  236SOL    HW1 1492   1.416   1.413   2.108 -0.3420  2.7499 -0.2249
  236SOL    HW2 1493   1.483   1.453   1.979  0.3528  2.0062 -0.1009
  237SOL     OW 1494   2.690   1.958   5.273 -0.5334  0.2994  0.2435
  237SOL    HW1 1495   2.628   1.935   5.205 -1.1941  0.8513  0.6384
  237SOL    HW2 1496   2.763   2.000   5.227 -1.0777  0.8730 -0.1093
  238SOL     OW 1497   2.397   0.810   4.993  0.1181  0.5139 -0.5223
  238SOL    HW1 1498   2.453   0.877   4.955  0.4040  0.4603 -0.2059
  238SOL    HW2 1499   2.316   0.855   5.016 -0.2633  0.4449 -1.6502
  239SOL     OW 1500   0.381   2.401   0.906  0.2530 -0.1617  0.4504
  239SOL    HW1 1501   0.338   2.446   0.979  1.4451 -0.1941  1.1967
  239SOL    HW2 1502   0.447   2.346   0.948  3.6790  2.6789 -0.7293
  240SOL     OW 1503   3.540   0.446   1.499  0.5830  0.0508 -0.1742
  240SOL    HW1 1504   3.524   0.495   1.580  0.4133 -0.3445  0.0319
  240SOL    HW2 1505   3.635   0.430   1.500  0.5679 -0.0398 -0.0024
  241SOL     OW 1506   2.898   4.980   0.626  0.2289  0.0879 -0.9607
  241SOL    HW1 1507   2.979   4.983   0.575  0.9926  2.8848  0.2334
  241SOL    HW2 1508   2.926   4.952   0.713 -0.1742  0.6160 -0.6600
  242SOL     OW 1509   2.288   3.327   1.888  0.4188 -0.1683  0.8645
  242SOL    HW1 1510   2.282   3.353   1.796 -0.5838 -1.6008  0.5003
  242SOL    HW2 1511   2.201   3.348   1.924 -0.0735 -1.9846  0.8113
  243SOL     OW 1512   2.733   0.151   1.923 -0.2279 -0.5981 -0.0030
  243SOL    HW1 1513   2.670   0.194   1.981  1.1992  1.0105  0.4192
  243SOL    HW2 1514   2.759   0.072   1.971 -0.6184 -0.3666  0.6010
  244SOL     OW 1515   2.548   4.479   0.644 -0.7420  0.0252 -0.6402
  244SOL    HW1 1516   2.592   4.516   0.568  1.8671  0.6460  1.0285
  244SOL    HW2 1517   2.582   4.528   0.719 -2.8657 -0.8236  1.0170
  245SOL     OW 1518   2.505   3.084   4.916  0.4066  0.6893 -0.3731
  245SOL    HW1 1519   2.591   3.104   4.953  2.1228 -0.7640 -3.2246
  245SOL    HW2 1520   2.486   2.995   4.947 -0.8598  1.5356  1.4469
  246SOL     OW 1521   1.799   4.677   4.912  0.0784 -0.0336  0.7698
  246SOL    HW1 1522   1.767   4.767   4.919  0.7474  0.1607  1.4903
  246SOL    HW2 1523   1.820   4.653   5.002 -2.6512 -1.8880  1.0341
  247SOL     OW 1524   2.080   1.055   4.714  0.3222  0.2771 -0.7254
  247SOL    HW1 1525   2.133   1.042   4.792  2.3534 -0.1244 -2.0950
  247SOL    HW2 1526   2.005   1.107   4.744  0.7400 -0.3471  1.5577
  248SOL     OW 1527   2.432   4.881   0.975 -0.2685  1.1069  0.2656
  248SOL    HW1 1528   2.476   4.913   1.054  0.4428 -0.1018  0.3813
  248SOL    HW2 1529   2.451   4.787   0.974 -0.6035  1.0413 -1.1374
  249SOL     OW 1530   0.949   2.275   1.033  0.4021  0.0049 -0.6388
  249SOL    HW1 1531   1.041   2.264   1.056 -0.4491 -2.5898  2.1286
  249SOL    HW2 1532   0.924   2.191   0.993 -0.5116  1.1673 -2.6911
  250SOL     OW 1533   1.423   4.084   0.708  0.0161 -0.7044  0.3649
  250SOL    HW1 1534   1.512   4.055   0.727  0.5127 -0.7658 -1.7773
  250SOL    HW2 1535   1.368   4.036   0.769  1.3292 -1.8699  0.6724
  251SOL     OW 1536   2.489   2.529   4.422 -0.1372 -0.1186 -0.4454
  251SOL    HW1 1537   2.467   2.614   4.459 -0.2253 -0.0144 -0.7296
  251SOL    HW2 1538   2.415   2.472   4.446  0.0883 -0.2041  0.0410
  252SOL     OW 1539   1.807   2.997   5.123 -0.2476 -0.0851  0.8362
  252SOL    HW1 1540   1.811   3.073   5.181 -0.1563 -0.5243  1.4163
  252SOL    HW2 1541   1.809   3.034   5.035 -3.7610  0.8311  1.0066
  253SOL     OW 1542   1.887   3.363   5.100  0.0634  0.7978  0.0636
  253SOL    HW1 1543   1.972   3.395   5.131  1.3515 -1.2869 -1.0730
  253SOL    HW2 1544   1.854   3.309   5.171  1.3200 -1.0743 -0.6977
  254SOL     OW 1545   2.202   1.278   1.078  0.2386 -0.4971  0.1878
  254SOL    HW1 1546   2.172   1.262   1.168  2.5325  2.2856  1.6200
  254SOL    HW2 1547   2.296   1.259   1.081  0.5377  0.5578 -1.3541
  255SOL     OW 1548   3.410   1.509   4.851 -0.1868 -0.4426 -0.2835
  255SOL    HW1 1549   3.352   1.452   4.902 -1.3050  0.4128 -0.5448
  255SOL    HW2 1550   3.449   1.451   4.785 -1.6034 -0.8622 -0.8030
  256SOL     OW 1551   1.232   1.499   1.740 -0.4052 -0.2301 -0.5132
  256SOL    HW1 1552   1.150   1.481   1.694  0.3567  0.5556 -2.2438
  256SOL    HW2 1553   1.211   1.574   1.797 -1.1723 -0.7622 -0.0720
  257SOL     OW 1554   3.367   1.343   0.549 -0.3381  0.5018  0.0298
  257SOL    HW1 1555   3.377   1.258   0.507 -1.1948  0.3933  0.0389
  257SOL    HW2 1556   3.453   1.384   0.541 -0.5537  0.6275 -2.1147
  258SOL     OW 1557   1.698   0.431   5.229 -0.0349  0.6841 -0.1865
  258SOL    HW1 1558   1.729   0.462   5.144  1.0143 -0.6595 -0.3292
  258SOL    HW2 1559   1.644   0.354   5.209  0.4436  0.1887  0.3579
  259SOL     OW 1560   1.420   0.253   4.324  0.4743  0.5963 -0.2226
  259SOL    HW1 1561   1.470   0.331   4.301  1.1842  0.3622  0.4683
  259SOL    HW2 1562   1.360   0.240   4.250  1.2712  1.0267 -0.9625
  260SOL     OW 1563   2.739   1.623   3.431 -0.2691  0.3286 -0.4365
  260SOL    HW1 1564   2.681   1.691   3.465 -1.3364 -0.3121 -0.9196
  260SOL    HW2 1565   2.778   1.661   3.353 -2.1396 -0.1535 -1.6688
  261SOL     OW 1566   2.610   5.091   2.170 -0.5569 -0.7826  0.4872
  261SOL    HW1 1567   2.672   5.046   2.227  0.3765  0.4959  0.5109
  261SOL    HW2 1568   2.659   5.166   2.135 -2.2903  0.7233  1.1204
  262SOL     OW 1569   3.234   0.569   0.522 -0.2510 -0.1057  1.2624
  262SOL    HW1 1570   3.215   0.478   0.545  2.1125  0.1373  5.3078
  262SOL    HW2 1571   3.208   0.619   0.600 -2.3619  2.9458 -1.1834
  263SOL     OW 1572   2.823   2.664   5.220 -0.3459  0.8235 -1.2453
  263SOL    HW1 1573   2.755   2.645   5.285 -2.3271 -1.3764 -3.7175
  263SOL    HW2 1574   2.891   2.710   5.269 -0.4962 -2.7427  2.9828
  264SOL     OW 1575   1.995   3.310   0.567 -0.0127 -0.1698 -0.1439
  264SOL    HW1 1576   1.968   3.271   0.484 -2.6551 -0.8084  0.8868
  264SOL    HW2 1577   1.918   3.359   0.596  2.0964  3.2841  0.1766
  265SOL     OW 1578   2.163   3.558   1.672 -0.3085 -1.0544  0.1311
  265SOL    HW1 1579   2.169   3.481   1.615  2.3002 -0.7231 -0.1764
  265SOL    HW2 1580   2.137   3.629   1.613 -2.2948 -1.5459  0.3339
  266SOL     OW 1581   0.756   1.017   0.916  0.0165 -0.0615  0.3245
  266SOL    HW1 1582   0.822   0.948   0.927 -0.0804  0.0273  1.5818
  266SOL    HW2 1583   0.694   1.003   0.987  1.1615  2.6100  1.9878
  267SOL     OW 1584   1.914   0.352   0.515 -0.0309 -0.1215 -0.1887
  267SOL    HW1 1585   1.961   0.274   0.486 -0.6105 -0.8752  0.8394
  267SOL    HW2 1586   1.839   0.318   0.563 -0.2105  1.0762  0.4081
  268SOL     OW 1587   2.920   4.961   5.030  0.1830  0.9341 -0.2245
  268SOL    HW1 1588   2.894   4.928   4.944 -0.0761  1.7338 -0.4589
  268SOL    HW2 1589   2.955   5.049   5.013 -0.3509  1.3029  0.5503
  269SOL     OW 1590   2.953   4.817   5.283 -0.1046 -0.2536 -0.7818
  269SOL    HW1 1591   2.929   4.886   5.345 -0.0599  0.2308 -1.2920
  269SOL    HW2 1592   2.926   4.851   5.198  0.9195 -0.3759 -1.1778
  270SOL     OW 1593   3.033   0.161   2.080 -0.3939  0.1915  0.4009
  270SOL    HW1 1594   3.088   0.107   2.137  0.9882 -1.1419 -2.0458
  270SOL    HW2 1595   3.033   0.115   1.996 -1.1981  2.7542 -1.1104
  271SOL     OW 1596   1.580   0.042   4.431 -0.2558 -0.3912 -0.7500
  271SOL    HW1 1597   1.507   0.036   4.493  0.2328 -1.0130 -0.2257
  271SOL    HW2 1598   1.540   0.073   4.350 -0.9301  0.2914 -0.1702
  272SOL     OW 1599   2.945   2.497   1.141 -0.4729 -0.2354  0.6842
  272SOL    HW1 1600   2.850   2.495   1.124 -0.3678 -0.6317  0.1318
  272SOL    HW2 1601   2.985   2.469   1.059  0.1042 -0.7452  1.1293
  273SOL     OW 1602   2.802   3.070   5.251 -0.3513 -0.7781 -0.1760
  273SOL    HW1 1603   2.760   2.986   5.234 -2.7342  0.0972  0.9742
  273SOL    HW2 1604   2.737   3.135   5.225  1.0710  0.7174 -0.1483
  274SOL     OW 1605   2.572   4.803   4.595 -0.2478 -0.5097 -1.0242
  274SOL    HW1 1606   2.547   4.760   4.677  2.0781  2.7293  1.6870
  274SOL    HW2 1607   2.631   4.741   4.552  0.9075 -1.1799  1.3526
  275SOL     OW 1608   1.597   0.939   0.187  0.5860 -0.2163 -0.1571
  275SOL    HW1 1609   1.515   0.990   0.194 -0.7313 -2.0151 -1.6099
  275SOL    HW2 1610   1.585   0.868   0.250  1.2329 -0.2787 -0.1046
  276SOL     OW 1611   3.014   2.443   0.156 -0.5269 -0.3294 -0.6573
  276SOL    HW1 1612   3.059   2.524   0.181  0.1719 -0.4567 -1.4712
  276SOL    HW2 1613   3.083   2.386   0.123 -0.9060 -1.5469  0.5624
  277SOL     OW 1614   1.753   0.380   0.994  0.3565 -0.3687  0.1912
  277SOL    HW1 1615   1.707   0.366   1.077  0.4726  0.0803  0.3340
  277SOL    HW2 1616   1.757   0.293   0.954 -1.2311 -0.3100 -0.1530
  278SOL     OW 1617   2.323   1.145   1.706  0.2745  0.0758  0.1062
  278SOL    HW1 1618   2.386   1.109   1.769  2.7137  1.7616 -1.2195
  278SOL    HW2 1619   2.283   1.067   1.666  0.8343 -1.0420  1.6201
  279SOL     OW 1620   3.512   1.250   1.197  0.7067 -0.4154  0.3448
  279SOL    HW1 1621   3.422   1.282   1.197  0.2834 -1.5696 -0.3566
  279SOL    HW2 1622   3.545   1.268   1.109  0.6547 -1.3457  0.1236
  280SOL     OW 1623   1.849   2.615   1.659  0.6543  0.1850  0.2416
  280SOL    HW1 1624   1.767   2.591   1.703  0.4936 -1.2747 -0.7919
  280SOL    HW2 1625   1.877   2.696   1.703 -0.7739  0.1261  1.3289
  281SOL     OW 1626   1.492   0.292   5.061 -0.3154  0.3098 -0.2160
  281SOL    HW1 1627   1.513   0.272   4.970  0.0976  1.2862 -0.3455
  281SOL    HW2 1628   1.442   0.374   5.056  2.0277  1.8994  0.5911
  282SOL     OW 1629   3.567   1.478   1.734  0.1359  0.0822 -0.4053
  282SOL    HW1 1630   3.521   1.476   1.650  1.1241 -0.0494 -0.9487
  282SOL    HW2 1631   3.611   1.563   1.736  1.4121 -0.5619 -0.7294
  283SOL     OW 1632   3.551   0.875   4.593  0.0342  0.4892 -0.2907
  283SOL    HW1 1633   3.523   0.904   4.506  0.8528  0.6238 -0.5186
  283SOL    HW2 1634   3.523   0.783   4.598  0.0444  0.4600 -0.7231
  284SOL     OW 1635   2.554   3.737   0.370  0.0663 -0.1453  0.2005
  284SOL    HW1 1636   2.603   3.806   0.327  0.9772 -1.4722 -0.9997
  284SOL    HW2 1637   2.462   3.759   0.356  0.3259 -0.4678 -2.4418
  285SOL     OW 1638   2.665   4.572   0.396 -0.0623  0.0090 -0.0085
  285SOL    HW1 1639   2.638   4.487   0.360  1.3992 -1.0902  1.3481
  285SOL    HW2 1640   2.732   4.604   0.336  0.0736 -0.2659 -0.0036
  286SOL     OW 1641   3.052   2.934   5.263 -0.7559  0.1009  0.0457
  286SOL    HW1 1642   3.072   2.933   5.170 -0.8325  0.2683  0.0262
  286SOL    HW2 1643   2.970   2.984   5.269 -0.9745 -0.2681  0.1585
  287SOL     OW 1644   2.994   1.355   4.545 -0.5250 -0.2456  0.2373
  287SOL    HW1 1645   3.047   1.392   4.616 -0.4469  2.3093 -1.0522
  287SOL    HW2 1646   2.922   1.417   4.535 -0.7163 -0.7325 -1.6760
  288SOL     OW 1647   2.253   5.180   1.917  0.7120  0.5977 -0.5847
  288SOL    HW1 1648   2.305   5.248   1.958  3.0859 -0.4353 -1.6972
  288SOL    HW2 1649   2.308   5.146   1.846 -0.6916 -1.8753 -0.6275
  289SOL     OW 1650   1.489   2.240   3.331 -0.4395  0.4863  0.6937
  289SOL    HW1 1651   1.407   2.276   3.298 -1.2150 -0.7562  1.1584
  289SOL    HW2 1652   1.492   2.151   3.295  0.0561  0.0665  1.7279
  290SOL     OW 1653   2.227   2.242   4.342 -0.3638 -0.2484  0.0308
  290SOL    HW1 1654   2.140   2.283   4.347  0.6906  2.1346  0.1563
  290SOL    HW2 1655   2.242   2.229   4.249 -0.3834  0.4597 -0.0773
  291SOL     OW 1656   2.975   4.035   0.224  0.6664 -0.0349 -0.0825
  291SOL    HW1 1657   3.025   4.092   0.283  0.4703 -1.7656  1.8273
  291SOL    HW2 1658   2.942   4.095   0.157  0.1560  2.1882  2.0109
  292SOL     OW 1659   1.558   5.186   1.637  0.9487  0.0927 -0.6239
  292SOL    HW1 1660   1.534   5.263   1.688 -0.4035  0.8040 -2.2451
  292SOL    HW2 1661   1.486   5.125   1.650  2.0776 -1.0284  0.7680
  293SOL     OW 1662   2.311   2.752   5.017  0.3419 -0.0303 -0.5616
  293SOL    HW1 1663   2.234   2.703   4.988  0.4967  0.6375 -2.2680
  293SOL    HW2 1664   2.381   2.686   5.024 -0.3991 -0.6825  1.2525
  294SOL     OW 1665   1.522   0.217   4.773  0.7569 -0.7307  0.3187
  294SOL    HW1 1666   1.486   0.169   4.699  2.8812 -1.6146 -0.2282
  294SOL    HW2 1667   1.545   0.303   4.737  0.0583 -0.4740  0.4597
  295SOL     OW 1668   1.720   0.699   1.373  0.4026  0.3238 -0.0145
  295SOL    HW1 1669   1.747   0.749   1.450  1.0020 -1.0741  0.7390
  295SOL    HW2 1670   1.704   0.764   1.305  1.3817  1.5045  0.8486
  296SOL     OW 1671   2.552   1.985   4.630  0.6965  0.5884 -0.6190
  296SOL    HW1 1672   2.581   1.921   4.565  0.6906  0.1156 -0.1552
  296SOL    HW2 1673   2.462   1.960   4.650  1.0505  0.0820  0.3693
  297SOL     OW 1674   2.286   4.821   1.299 -0.1464  0.1193 -0.1673
  297SOL    HW1 1675   2.284   4.727   1.313 -0.4504  0.3781  1.7439
  297SOL    HW2 1676   2.375   4.847   1.322 -0.8128  0.6325  2.0933
  298SOL     OW 1677   2.317   4.418   4.932  0.1596  0.2660  0.6453
  298SOL    HW1 1678   2.275   4.352   4.987 -0.4524  0.1851  0.0910
  298SOL    HW2 1679   2.326   4.494   4.989  0.7803 -0.2538  1.2609
  299SOL     OW 1680   2.273   1.735   5.099  0.2247  0.8462  0.5116
  299SOL    HW1 1681   2.333   1.802   5.133  2.6850 -0.7267 -0.4696
  299SOL    HW2 1682   2.304   1.718   5.011 -2.8593  1.1897 -0.7548
  300SOL     OW 1683   3.097   2.757   0.220 -0.0304  0.1255 -0.2103
  300SOL    HW1 1684   3.133   2.805   0.145  1.4708  0.2324  0.5348
  300SOL    HW2 1685   3.093   2.823   0.290  0.6524 -0.4693  0.4059
  301SOL     OW 1686   2.135   0.817   1.325 -0.1930 -0.7682  0.6185
  301SOL    HW1 1687   2.228   0.801   1.337  0.3821  0.0425 -2.0781
  301SOL    HW2 1688   2.113   0.773   1.243 -1.8302  0.2621  0.4576
  302SOL     OW 1689   0.824   2.348   0.655 -0.3974 -0.2649 -0.5283
  302SOL    HW1 1690   0.777   2.426   0.685  0.0057  0.6697 -2.1971
  302SOL    HW2 1691   0.789   2.277   0.709 -1.0721  0.9875  0.7533
  303SOL     OW 1692   1.697   1.746   4.357  0.1997  0.1338 -0.2323
  303SOL    HW1 1693   1.691   1.766   4.264  0.7439  1.3489 -0.0244
  303SOL    HW2 1694   1.663   1.657   4.365  0.9701 -0.3194 -1.7178
  304SOL     OW 1695   2.316   0.329   4.437  0.4707  0.3010 -0.2081
  304SOL    HW1 1696   2.399   0.312   4.393  0.5271  0.3861 -0.1350
  304SOL    HW2 1697   2.266   0.248   4.427  0.2459  0.5149 -0.9581
  305SOL     OW 1698   1.458   1.154   1.969 -1.0339 -0.0276 -0.6529
  305SOL    HW1 1699   1.460   1.123   1.879  2.7141 -2.6938  0.0864
  305SOL    HW2 1700   1.538   1.205   1.979  0.8217 -2.9988  1.8824
  306SOL     OW 1701   2.346   0.203   4.148  0.7753  0.1355 -0.2097
  306SOL    HW1 1702   2.403   0.219   4.073  1.7896 -2.3181 -0.0798
  306SOL    HW2 1703   2.406   0.186   4.221 -0.1839  1.5004  0.9502
  307SOL     OW 1704   1.166   2.609   0.604  0.3136 -0.1978  0.6945
  307SOL    HW1 1705   1.113   2.583   0.529  2.3930 -1.4931 -0.3917
  307SOL    HW2 1706   1.255   2.583   0.582  1.2300  0.6416  3.0417
  308SOL     OW 1707   3.060   0.181   1.272  0.1938 -0.0467  0.8722
  308SOL    HW1 1708   3.029   0.239   1.342 -0.4125  0.5301  0.1488
  308SOL    HW2 1709   3.120   0.235   1.220 -0.0448 -0.1840  0.4427
  309SOL     OW 1710   1.722   4.069   0.715 -0.0625  0.2356 -0.5452
  309SOL    HW1 1711   1.745   3.993   0.660  0.2007 -2.0138  2.4458
  309SOL    HW2 1712   1.765   4.052   0.799 -0.8987  3.2225  0.6219
  310SOL     OW 1713   2.326   1.350   4.089 -0.0321  0.3668 -0.2004
  310SOL    HW1 1714   2.308   1.256   4.095 -0.4472  0.5480  2.6596
  310SOL    HW2 1715   2.253   1.385   4.038 -1.0373 -0.6208  0.5081
  311SOL     OW 1716   2.043   4.107   1.530 -0.1050  0.3712  0.5201
  311SOL    HW1 1717   2.060   4.176   1.465 -1.2130  0.2209  0.0495
  311SOL    HW2 1718   2.073   4.145   1.613 -1.0171  1.5757  0.3327
  312SOL     OW 1719   1.260   1.325   0.850  0.4648  0.7610 -0.2400
  312SOL    HW1 1720   1.319   1.273   0.795  0.7315 -0.8100  1.4455
  312SOL    HW2 1721   1.178   1.328   0.802  1.5100  1.9516 -2.0721
  313SOL     OW 1722   4.769   3.027   3.219 -0.1152 -0.4735 -0.0892
  313SOL    HW1 1723   4.768   3.075   3.136  1.2430 -1.8032 -0.9248
  313SOL    HW2 1724   4.858   3.037   3.252 -0.8675  0.7738  1.7149
  314SOL     OW 1725   3.375   1.605   1.067  0.1590  0.2250  0.1627
  314SOL    HW1 1726   3.296   1.567   1.030  2.3736 -3.6606 -1.1239
  314SOL    HW2 1727   3.432   1.620   0.992  2.2751 -1.5036  1.3215
  315SOL     OW 1728   1.358   1.567   4.634  0.1926 -0.1515 -0.1507
  315SOL    HW1 1729   1.429   1.506   4.652 -0.7843 -1.5988 -0.9804
  315SOL    HW2 1730   1.394   1.629   4.570  0.7884 -0.6934 -0.3448
  316SOL     OW 1731   2.006   2.638   4.553 -0.3386 -0.7338  0.5281
  316SOL    HW1 1732   1.928   2.584   4.543  0.7166 -2.4363  0.9101
  316SOL    HW2 1733   2.038   2.617   4.641  0.0067  0.6862  0.7595
  317SOL     OW 1734   2.148   4.316   1.296 -0.2811 -0.3345  0.4584
  317SOL    HW1 1735   2.240   4.289   1.295 -0.1508  0.1193 -0.3728
  317SOL    HW2 1736   2.144   4.390   1.236 -1.5118 -1.4407 -0.9016
  318SOL     OW 1737   2.891   2.115   5.135 -0.3683 -0.4932  0.2991
  318SOL    HW1 1738   2.961   2.176   5.110  0.6530 -0.9008  1.9958
  318SOL    HW2 1739   2.901   2.042   5.075  0.3168 -0.2960  0.1593
  319SOL     OW 1740   1.232   0.410   0.551 -0.6122 -0.1258 -0.0824
  319SOL    HW1 1741   1.199   0.494   0.520  1.1053  0.3758 -0.6758
  319SOL    HW2 1742   1.283   0.432   0.629 -2.1313 -0.9654  1.2074
  320SOL     OW 1743   2.556   0.424   1.452  0.7638  0.3630  0.6182
  320SOL    HW1 1744   2.499   0.487   1.496 -1.6231 -0.6894 -0.7509
  320SOL    HW2 1745   2.636   0.422   1.505 -0.6335  1.5971  2.9246
  321SOL     OW 1746   3.340   3.946   0.887  0.0463  0.4098  0.6932
  321SOL    HW1 1747   3.253   3.980   0.866  0.0620  0.1181  0.1269
  321SOL    HW2 1748   3.325   3.857   0.917  0.2865 -0.3211 -1.2204
  322SOL     OW 1749   2.520   2.903   0.291 -0.0032  0.8542 -0.2142
  322SOL    HW1 1750   2.542   2.885   0.200  2.0085 -0.6579  0.4987
  322SOL    HW2 1751   2.448   2.843   0.311 -1.0849  1.8345 -1.0084
  323SOL     OW 1752   2.518   3.157   0.437 -0.5087 -0.4988 -0.1158
  323SOL    HW1 1753   2.498   3.081   0.382  1.8483 -1.0593 -0.3214
  323SOL    HW2 1754   2.576   3.123   0.505  0.0741  0.9811  0.1757
  324SOL     OW 1755   2.846   0.848   5.066 -0.3769 -0.0637 -0.6248
  324SOL    HW1 1756   2.805   0.908   5.128 -0.3632 -0.1048 -0.5755
  324SOL    HW2 1757   2.776   0.785   5.044 -0.2162 -0.3996 -0.1970
  325SOL     OW 1758   2.168   4.760   0.007  0.3371  1.3549  0.0216
  325SOL    HW1 1759   2.185   4.815   0.084 -0.2154  2.5781 -0.6941
  325SOL    HW2 1760   2.157   4.823  -0.064 -0.5429  0.3084 -0.7876
  326SOL     OW 1761   2.524   5.161   0.165 -0.5315  0.3414 -0.1329
  326SOL    HW1 1762   2.468   5.208   0.104  1.3387  0.9707 -1.4665
  326SOL    HW2 1763   2.595   5.222   0.184  0.6288 -1.0241  0.0951
  327SOL     OW 1764   2.496   1.578   3.235  0.1649 -0.3933  0.1041
  327SOL    HW1 1765   2.563   1.559   3.170 -0.1192 -0.8544 -0.0577
  327SOL    HW2 1766   2.545   1.591   3.316  0.6725  1.8213 -0.4919
  328SOL     OW 1767   1.019   1.635   0.947 -0.3019 -0.0306 -0.0878
  328SOL    HW1 1768   1.107   1.609   0.973 -0.1535  2.4049  2.2440
  328SOL    HW2 1769   0.995   1.572   0.878  2.3922 -2.0744  0.6573
  329SOL     OW 1770   2.780   2.777   4.953 -0.4628 -0.0028 -0.6219
  329SOL    HW1 1771   2.768   2.753   5.045  2.2564 -0.9410 -0.4262
  329SOL    HW2 1772   2.780   2.694   4.906  1.2165  0.1818 -1.0159
  330SOL     OW 1773   1.602   3.703   1.003  0.3454 -0.4691  0.5024
  330SOL    HW1 1774   1.542   3.775   0.984 -0.1681 -0.4386  2.1401
  330SOL    HW2 1775   1.556   3.649   1.067  1.6109 -1.0748  0.9311
  331SOL     OW 1776   2.072   5.175   4.661  0.6126 -0.1633  0.0473
  331SOL    HW1 1777   2.015   5.159   4.736  1.4210  0.2641  0.7741
  331SOL    HW2 1778   2.017   5.157   4.585 -0.7820  1.1712  0.6904
  332SOL     OW 1779   2.548   2.435   5.222 -0.2539  0.2848  0.2687
  332SOL    HW1 1780   2.560   2.396   5.135  1.1355 -1.0311  1.0044
  332SOL    HW2 1781   2.604   2.384   5.279 -1.6737  0.6659  2.0998
  333SOL     OW 1782   2.517   2.200   0.122 -0.8073  0.1446 -0.1978
  333SOL    HW1 1783   2.572   2.157   0.057 -2.1125 -0.2677 -1.0813
  333SOL    HW2 1784   2.504   2.133   0.190 -3.3367 -1.2136 -1.8627
  334SOL     OW 1785   2.754   2.237   0.317 -0.5379 -0.4855  0.6866
  334SOL    HW1 1786   2.845   2.252   0.291 -0.7720  2.1223  1.0596
  334SOL    HW2 1787   2.708   2.216   0.236  0.0999  0.0225  0.1845
  335SOL     OW 1788   2.509   0.983   4.851  0.4362 -0.5478 -0.1841
  335SOL    HW1 1789   2.535   1.071   4.878 -1.1548 -0.2620  0.5502
  335SOL    HW2 1790   2.579   0.954   4.792  1.2084  1.0266 -0.0928
  336SOL     OW 1791   3.408   0.952   3.508  0.0381  0.2208  0.0160
  336SOL    HW1 1792   3.439   1.005   3.434 -0.5089  0.9465  0.2987
  336SOL    HW2 1793   3.330   0.998   3.540 -1.1229 -1.3611 -0.4333
  337SOL     OW 1794   1.366   0.999   1.310 -0.3549  0.0041  0.0296
  337SOL    HW1 1795   1.291   1.011   1.369  0.0347 -0.4679  0.6433
  337SOL    HW2 1796   1.442   1.026   1.362 -0.1678  1.2911 -0.8720
  338SOL     OW 1797   2.842   4.735   0.260  0.3697  0.2017 -0.3228
  338SOL    HW1 1798   2.790   4.815   0.268  2.3236  1.5580 -0.4641
  338SOL    HW2 1799   2.881   4.741   0.173  1.4149 -0.3306  0.0941
  339SOL     OW 1800   2.487   0.141   2.395  0.2172  0.2947  0.6666
  339SOL    HW1 1801   2.509   0.171   2.483  0.8302  1.9088  0.0090
  339SOL    HW2 1802   2.569   0.150   2.346 -0.5086  0.9945 -0.4615
  340SOL     OW 1803   2.811   3.093   1.157  0.2914 -0.4575 -0.0365
  340SOL    HW1 1804   2.883   3.147   1.124 -1.5868  0.9596 -2.2269
  340SOL    HW2 1805   2.734   3.125   1.109 -2.1206 -0.8329  3.2208
  341SOL     OW 1806   1.584   3.235   0.803 -0.2363 -0.2890  0.1515
  341SOL    HW1 1807   1.513   3.248   0.741 -0.5144  1.0040  0.7134
  341SOL    HW2 1808   1.581   3.141   0.824 -1.2248 -0.4057 -0.4755
  342SOL     OW 1809   2.776   3.677   0.960 -0.3427  0.2060  0.0802
  342SOL    HW1 1810   2.787   3.619   1.035 -0.6792  3.2003  2.6238
  342SOL    HW2 1811   2.865   3.691   0.928 -0.3087 -2.2097 -1.1510
  343SOL     OW 1812   3.039   2.798   4.667  0.4141  0.1582  0.4564
  343SOL    HW1 1813   2.976   2.748   4.719 -0.2069  0.6801  0.2111
  343SOL    HW2 1814   3.084   2.732   4.615 -1.9158 -0.0067 -1.5337
  344SOL     OW 1815   1.894   4.628   0.337  0.1756 -0.7461  0.4547
  344SOL    HW1 1816   1.974   4.599   0.381  0.1082  1.1764  1.9474
  344SOL    HW2 1817   1.920   4.642   0.246  1.5845 -0.0317  0.9443
  345SOL     OW 1818   1.894   4.628   1.360  0.2587  0.1316 -0.4193
  345SOL    HW1 1819   1.906   4.719   1.330  0.8168  1.0331  2.2631
  345SOL    HW2 1820   1.973   4.583   1.331  2.0966  1.6477  1.8381
  346SOL     OW 1821   0.654   1.401   0.473 -0.8392 -0.3397 -0.2155
  346SOL    HW1 1822   0.649   1.496   0.490  0.0976 -0.4154  0.5778
  346SOL    HW2 1823   0.563   1.373   0.468 -1.1321  0.5790 -0.3211
  347SOL     OW 1824   2.279   3.186   0.274 -0.5136  0.5375 -0.3716
  347SOL    HW1 1825   2.353   3.184   0.335 -0.0686 -1.8311 -0.8901
  347SOL    HW2 1826   2.215   3.244   0.315  0.6538  0.7104  1.2733
  348SOL     OW 1827   2.867   2.571   1.816  0.2167 -0.2727 -0.0263
  348SOL    HW1 1828   2.796   2.526   1.860 -0.6598  0.3788 -0.7149
  348SOL    HW2 1829   2.924   2.502   1.783  0.3149 -0.7801  1.1794
  349SOL     OW 1830   2.919   1.075   0.352 -0.1050 -0.1470 -0.3348
  349SOL    HW1 1831   2.870   1.156   0.365  1.5618  0.9589 -0.5750
  349SOL    HW2 1832   2.986   1.076   0.420 -0.9226 -2.0917  0.5897
  350SOL     OW 1833   1.461   2.273   4.528  0.2371 -0.0861  0.3317
  350SOL    HW1 1834   1.517   2.238   4.459 -1.8438 -0.2063 -1.4289
  350SOL    HW2 1835   1.401   2.202   4.548 -1.1605  0.9431 -0.0266
  351SOL     OW 1836   2.150   2.761   1.725 -0.2677  0.6734  1.1067
  351SOL    HW1 1837   2.088   2.805   1.783 -0.6307  0.6270  0.7635
  351SOL    HW2 1838   2.094   2.714   1.663  0.1012 -0.4435  1.5915
  352SOL     OW 1839   2.989   1.680   3.850 -0.2558  0.0602  0.9245
  352SOL    HW1 1840   2.987   1.735   3.928 -1.1968  2.3302 -0.5947
  352SOL    HW2 1841   3.065   1.622   3.863  0.8731  1.8043  2.5660
  353SOL     OW 1842   3.334   0.714   5.222 -0.0062 -0.0210 -0.6398
  353SOL    HW1 1843   3.402   0.778   5.245  0.8698 -1.3641  0.7063
  353SOL    HW2 1844   3.367   0.672   5.142  0.0712  0.2791 -0.7666
  354SOL     OW 1845   1.306   5.212   5.278  0.3212 -0.1687  0.2770
  354SOL    HW1 1846   1.360   5.175   5.348  2.0374  2.6560  0.6186
  354SOL    HW2 1847   1.367   5.264   5.225 -1.2651 -0.7179 -2.2613
  355SOL     OW 1848   2.665   0.495   2.675 -0.2722  0.0893 -0.6193
  355SOL    HW1 1849   2.632   0.544   2.601 -0.8655  1.0186  0.2327
  355SOL    HW2 1850   2.652   0.553   2.750  0.8853 -0.5732  0.1239
  356SOL     OW 1851   2.750   2.087   1.881 -0.5975 -0.0928 -0.3813
  356SOL    HW1 1852   2.840   2.091   1.848 -1.4495  4.7757 -3.1660
  356SOL    HW2 1853   2.714   2.008   1.841  2.1669 -1.8826  0.3715
  357SOL     OW 1854   2.192   4.588   1.566 -0.1730  0.9331 -0.7094
  357SOL    HW1 1855   2.105   4.573   1.529 -0.9432  0.0664  1.3171
  357SOL    HW2 1856   2.181   4.572   1.660  2.3004  0.2361 -0.4748
  358SOL     OW 1857   1.906   1.728   1.711  0.2832 -0.6394 -0.3636
  358SOL    HW1 1858   1.972   1.660   1.703 -0.3628 -1.0804 -3.0222
  358SOL    HW2 1859   1.950   1.808   1.683  0.3036 -0.4624  0.1542
  359SOL     OW 1860   2.871   4.602   1.227 -0.3550 -0.0993  0.1456
  359SOL    HW1 1861   2.843   4.547   1.300 -0.4076  1.7006  1.5461
  359SOL    HW2 1862   2.799   4.597   1.164 -0.0256 -2.1915 -0.1367
  360SOL     OW 1863   1.980   3.350   0.271 -1.0499  0.0601  0.5832
  360SOL    HW1 1864   1.977   3.440   0.303 -3.2858  0.4784 -0.6431
  360SOL    HW2 1865   2.015   3.357   0.182 -0.0922 -0.4625  0.8953
  361SOL     OW 1866   3.038   3.180   1.686  0.3635 -0.4665  0.6365
  361SOL    HW1 1867   2.967   3.240   1.708  0.7117 -0.4529  1.8251
  361SOL    HW2 1868   3.009   3.136   1.606 -1.5547 -1.3288  1.7414
  362SOL     OW 1869   2.934   0.646   4.787 -0.8060  1.2266  0.0799
  362SOL    HW1 1870   2.971   0.715   4.842  3.5460  0.7247 -1.7971
  362SOL    HW2 1871   2.888   0.693   4.717 -1.3991  2.0221  0.9762
  363SOL     OW 1872   1.490   0.024   0.707  0.7611 -0.1092 -0.0460
  363SOL    HW1 1873   1.473   0.049   0.616  2.3984  2.7084  0.2762
  363SOL    HW2 1874   1.575  -0.021   0.703  0.9477  0.2279  0.0997
  364SOL     OW 1875   3.389   0.122   0.892  0.1220 -0.0035  0.1625
  364SOL    HW1 1876   3.297   0.127   0.915  0.0670  0.0098 -0.0524
  364SOL    HW2 1877   3.406   0.202   0.842  0.8386  1.1859  2.2086
  365SOL     OW 1878   1.379   0.113   4.568 -0.1108  0.0915  0.2203
  365SOL    HW1 1879   1.408   0.161   4.491  2.1859 -1.0589  0.2762
  365SOL    HW2 1880   1.283   0.110   4.561 -0.0462  1.3840 -1.7127
  366SOL     OW 1881   1.211   2.777   0.009  0.3116 -0.0215 -0.5327
  366SOL    HW1 1882   1.163   2.715  -0.046 -0.3321  0.6640 -0.7656
  366SOL    HW2 1883   1.267   2.825  -0.052 -3.9149  4.2161 -1.6618
  367SOL     OW 1884   2.910   0.320   4.993 -0.1289  0.0487  0.1808
  367SOL    HW1 1885   2.959   0.387   5.041 -0.3379  0.0436  0.4027
  367SOL    HW2 1886   2.975   0.281   4.935 -0.1103  0.7699 -0.2995
  368SOL     OW 1887   3.027   0.045   0.523 -0.3575  0.1547  0.3546
  368SOL    HW1 1888   3.103   0.089   0.560 -0.4552  0.5787  0.0627
  368SOL    HW2 1889   2.963   0.115   0.509  0.1153  0.2432 -1.7441
  369SOL     OW 1890   1.182   2.594   5.034 -0.2233 -0.2776  0.0758
  369SOL    HW1 1891   1.188   2.643   4.951  0.4326 -1.0750 -0.3647
  369SOL    HW2 1892   1.179   2.502   5.007 -1.4778 -0.4969  0.8923
  370SOL     OW 1893   1.971   4.730   2.101 -0.0754  0.2256 -0.6162
  370SOL    HW1 1894   1.908   4.706   2.169 -0.5755  0.6513 -0.9253
  370SOL    HW2 1895   2.054   4.692   2.131  0.0836  1.7944  1.0860
  371SOL     OW 1896   3.199   0.985   4.498  0.0210  0.3876  1.1183
  371SOL    HW1 1897   3.226   0.977   4.589  0.9065 -1.7274  0.7302
  371SOL    HW2 1898   3.279   0.966   4.448 -1.1931 -1.9752 -0.0577
  372SOL     OW 1899   1.366   4.406   1.211 -0.1422  0.1528  0.1926
  372SOL    HW1 1900   1.429   4.469   1.244  0.2456 -0.3813  0.4916
  372SOL    HW2 1901   1.281   4.448   1.222  0.2364  1.6908 -1.9821
  373SOL     OW 1902   2.104   2.746   1.407 -0.6558 -0.1365 -0.5140
  373SOL    HW1 1903   2.061   2.791   1.334 -0.0521  1.5927  0.1430
  373SOL    HW2 1904   2.198   2.760   1.393 -0.5594  1.4800  1.2929
  374SOL     OW 1905   0.844   1.964   1.726  0.4938  0.0231  0.0349
  374SOL    HW1 1906   0.860   2.055   1.699 -3.8322  0.8364 -0.5289
  374SOL    HW2 1907   0.767   1.970   1.782  2.1051 -3.0371  2.9189
  375SOL     OW 1908   2.716   0.043   0.072 -0.7490 -0.2099  0.0025
  375SOL    HW1 1909   2.677   0.077  -0.008  0.8281  0.6117 -0.4671
  375SOL    HW2 1910   2.802   0.011   0.045 -1.2476 -2.5351  0.8705
  376SOL     OW 1911   3.297   2.044   0.741  0.4041 -0.0134 -0.1622
  376SOL    HW1 1912   3.283   2.033   0.646 -1.3304 -2.4620  0.2832
  376SOL    HW2 1913   3.279   2.137   0.756 -0.4094  0.2013 -2.0807
  377SOL     OW 1914   1.887   3.024   1.644 -0.3679 -0.7946 -0.1677
  377SOL    HW1 1915   1.966   3.024   1.590  0.2073 -0.8333  0.6615
  377SOL    HW2 1916   1.887   3.110   1.686 -0.5263 -0.9720  0.1949
  378SOL     OW 1917   1.168   2.866   0.748  0.0866  0.0068 -0.7159
  378SOL    HW1 1918   1.137   2.870   0.838  0.1969 -1.2613 -0.6142
  378SOL    HW2 1919   1.148   2.778   0.719  2.1164 -0.3620 -1.1747
  379SOL     OW 1920   1.758   2.657   1.077  0.4441  0.6780 -0.1501
  379SOL    HW1 1921   1.736   2.632   1.166  2.4279  0.3519  0.2975
  379SOL    HW2 1922   1.700   2.731   1.058  0.5597  1.3062  1.7207
  380SOL     OW 1923   3.476   0.695   0.513  0.7005  0.3128 -0.0737
  380SOL    HW1 1924   3.393   0.647   0.520  1.4545 -0.9091  1.1137
  380SOL    HW2 1925   3.481   0.722   0.421 -0.3064 -0.8980 -0.5103
  381SOL     OW 1926   3.055   0.846   0.475  0.4664  0.4322 -0.3649
  381SOL    HW1 1927   3.082   0.898   0.551  1.5642  1.2828 -1.3078
  381SOL    HW2 1928   3.107   0.765   0.483 -1.3142 -0.6421  1.1549
  382SOL     OW 1929   3.471   0.597   1.732 -0.2193 -1.0882 -0.0423
  382SOL    HW1 1930   3.398   0.577   1.790 -2.5129  2.2541 -1.4473
  382SOL    HW2 1931   3.535   0.641   1.788 -1.1767 -0.3152  0.4630
  383SOL     OW 1932   2.633   3.398   0.279 -0.0129 -1.0917 -0.4938
  383SOL    HW1 1933   2.584   3.458   0.335  0.5658 -0.5112 -0.5907
  383SOL    HW2 1934   2.660   3.327   0.336  1.8605  0.2238  0.3697
  384SOL     OW 1935   2.190   4.931   0.225  0.0964 -0.2747 -0.6601
  384SOL    HW1 1936   2.258   4.935   0.292  0.7542  1.4918 -1.3604
  384SOL    HW2 1937   2.140   5.012   0.237 -0.7827 -0.7227 -1.2458
  385SOL     OW 1938   1.970   2.556   0.400  0.2963  0.5710  0.2431
  385SOL    HW1 1939   1.970   2.592   0.489 -0.0196  1.2274 -0.0156
  385SOL    HW2 1940   1.880   2.569   0.369  0.2852 -0.0730 -0.0097
  386SOL     OW 1941   1.103   4.993   1.194 -0.8965 -0.8394  0.3346
  386SOL    HW1 1942   1.165   4.954   1.257  0.0936 -0.9746 -0.6986
  386SOL    HW2 1943   1.036   4.926   1.183 -0.2919 -1.4264  0.1407
  387SOL     OW 1944   3.465   1.816   0.817  0.0686 -0.2580 -0.3163
  387SOL    HW1 1945   3.422   1.898   0.793  0.5739  0.1268  0.0879
  387SOL    HW2 1946   3.419   1.749   0.765 -0.7752  0.1890 -0.1632
  388SOL     OW 1947   3.353   0.684   4.071  0.2098 -0.1150 -0.3238
  388SOL    HW1 1948   3.288   0.754   4.064  1.0728  0.5715 -2.2432
  388SOL    HW2 1949   3.416   0.703   4.001  0.8144 -2.4553 -0.4996
  389SOL     OW 1950   2.395   0.698   2.303 -0.0915 -0.2241  0.3717
  389SOL    HW1 1951   2.318   0.751   2.323  0.6998  0.1988  2.6464
  389SOL    HW2 1952   2.361   0.609   2.294 -1.0369  0.1917 -0.3320
  390SOL     OW 1953   3.048   4.788   0.816 -0.1760  0.5904  0.5764
  390SOL    HW1 1954   3.042   4.726   0.888 -1.9168 -1.6941 -1.3775
  390SOL    HW2 1955   3.103   4.743   0.751  1.0045  2.3973  0.2626
  391SOL     OW 1956   3.434   1.046   1.380 -0.3259  0.1608 -0.2801
  391SOL    HW1 1957   3.482   1.096   1.447 -1.4367  0.6000  0.2174
  391SOL    HW2 1958   3.470   1.077   1.297 -1.0263  1.8929  0.0002
  392SOL     OW 1959   2.325   0.462   4.658 -0.2308 -0.3121  0.0497
  392SOL    HW1 1960   2.321   0.444   4.564  0.4928 -0.4564  0.0399
  392SOL    HW2 1961   2.416   0.486   4.674  0.3692 -2.9203  1.1668
  393SOL     OW 1962   2.922   0.629   0.956  0.2666  0.6101 -0.3394
  393SOL    HW1 1963   2.979   0.554   0.939 -1.1369 -0.2857 -1.2999
  393SOL    HW2 1964   2.948   0.660   1.043 -0.6288 -2.4622  1.1809
  394SOL     OW 1965   1.372   1.456   1.311 -0.0753  0.3065  0.3921
  394SOL    HW1 1966   1.330   1.516   1.249  1.3736  0.3865 -0.5564
  394SOL    HW2 1967   1.456   1.435   1.271 -0.5192 -2.4059  0.6766
  395SOL     OW 1968   1.718   3.301   4.903 -0.1428  0.3709  0.3286
  395SOL    HW1 1969   1.788   3.327   4.964 -0.2054  0.9563  0.1536
  395SOL    HW2 1970   1.672   3.382   4.883 -1.0822 -0.0557  0.6933
  396SOL     OW 1971   1.986   0.197   4.745 -0.5417  0.0293  0.9806
  396SOL    HW1 1972   1.906   0.192   4.797  0.3052  0.3002  2.3933
  396SOL    HW2 1973   1.983   0.121   4.688 -2.9812  1.3867 -0.8372
  397SOL     OW 1974   3.748   0.454   1.983 -0.3999  0.2335  0.1658
  397SOL    HW1 1975   3.763   0.518   2.053 -1.3182  0.5636  0.0789
  397SOL    HW2 1976   3.728   0.507   1.906 -0.3060 -0.1482 -0.1243
  398SOL     OW 1977   1.332   2.634   0.214 -0.1640 -0.0663  0.7363
  398SOL    HW1 1978   1.313   2.689   0.139  0.1580 -1.2104 -0.2118
  398SOL    HW2 1979   1.424   2.651   0.233 -0.3610  0.5502  1.1588
  399SOL     OW 1980   2.655   2.901   4.682 -1.1597  0.1703 -0.1781
  399SOL    HW1 1981   2.715   2.859   4.621 -0.1520  0.1176  0.8200
  399SOL    HW2 1982   2.651   2.842   4.756 -0.9068  1.1045  0.5986
  400SOL     OW 1983   3.278   1.631   0.686  0.5964  0.0317 -0.6171
  400SOL    HW1 1984   3.189   1.664   0.672 -0.2437 -2.1460 -0.7918
  400SOL    HW2 1985   3.287   1.560   0.622  1.7786 -0.9865  0.6280
  401SOL     OW 1986   3.200   3.301   1.216 -0.0691 -0.6906  0.1038
  401SOL    HW1 1987   3.206   3.234   1.284 -1.4090 -0.9713 -0.0357
  401SOL    HW2 1988   3.202   3.384   1.263 -0.5081 -0.8758  0.4459
  402SOL     OW 1989   1.512   1.803   4.823 -0.1324 -0.5520 -0.5173
  402SOL    HW1 1990   1.540   1.781   4.913 -1.3757 -0.4494 -0.0866
  402SOL    HW2 1991   1.515   1.898   4.819 -0.2020 -0.5499 -0.5327
  403SOL     OW 1992   3.188   5.108   1.564  0.7982  0.0579  0.0904
  403SOL    HW1 1993   3.148   5.166   1.629  2.0345  1.0816 -0.0103
  403SOL    HW2 1994   3.255   5.162   1.522  0.6100 -0.8354 -1.4531
  404SOL     OW 1995   1.835   3.561   0.421  0.7249 -0.1857  0.4321
  404SOL    HW1 1996   1.784   3.642   0.427  1.4105  0.3045 -0.1037
  404SOL    HW2 1997   1.778   3.494   0.456 -0.1548  0.4057  0.1697
  405SOL     OW 1998   2.980   0.089   0.220 -0.1826  0.5101  0.7838
  405SOL    HW1 1999   2.953   0.023   0.284  0.2383  0.8915  1.3628
  405SOL    HW2 2000   3.035   0.042   0.158 -0.1077  0.2570  1.0402
  406SOL     OW 2001   3.531   1.236   0.920 -0.5199  0.4881  0.5527
  406SOL    HW1 2002   3.600   1.177   0.891 -0.1389  0.8647  0.6926
  406SOL    HW2 2003   3.450   1.188   0.901 -0.2032 -0.3556  1.2676
  407SOL     OW 2004   2.316   2.875   3.050 -0.0139  0.8053  0.6885
  407SOL    HW1 2005   2.276   2.788   3.054 -1.6639  1.5429  0.8053
  407SOL    HW2 2006   2.406   2.861   3.082  0.1266 -1.0478 -0.3905
  408SOL     OW 2007   1.654   2.487   5.055  0.5835 -0.3689 -1.0809
  408SOL    HW1 2008   1.569   2.456   5.086  0.1898  1.1084 -0.5751
  408SOL    HW2 2009   1.714   2.415   5.072 -0.2447 -0.7934  0.1873
  409SOL     OW 2010   1.652   1.968   4.503  0.1689  0.5463 -0.4786
  409SOL    HW1 2011   1.720   2.009   4.450  2.5777 -1.5854  0.7135
  409SOL    HW2 2012   1.636   1.883   4.461 -2.3047  1.2065 -1.0615
  410SOL     OW 2013   3.159   1.248   0.372  0.6310  0.7537  0.3907
  410SOL    HW1 2014   3.144   1.305   0.447  0.1617 -0.1379  0.9876
  410SOL    HW2 2015   3.080   1.257   0.319 -0.8313 -1.6102  2.0071
  411SOL     OW 2016   2.635   2.586   0.446  0.0921  0.1290  0.3590
  411SOL    HW1 2017   2.697   2.628   0.505 -0.5115  0.5714  0.6918
  411SOL    HW2 2018   2.670   2.498   0.433 -1.5624 -1.2976  4.2478
  412SOL     OW 2019   3.388   1.402   5.284 -0.3489 -0.5428 -0.4342
  412SOL    HW1 2020   3.305   1.393   5.331  1.8260 -0.4852  3.8152
  412SOL    HW2 2021   3.385   1.491   5.249 -1.4788  0.0432  1.0217
  413SOL     OW 2022   0.760   1.027   0.604 -0.8077 -0.2999 -0.7572
  413SOL    HW1 2023   0.666   1.018   0.616 -1.1944  3.6746  0.6509
  413SOL    HW2 2024   0.795   1.037   0.693  0.4596  1.1683 -1.3620
  414SOL     OW 2025   3.159   0.306   0.611  0.1549  0.3568 -0.0953
  414SOL    HW1 2026   3.248   0.300   0.644 -0.7018  0.8371  2.6100
  414SOL    HW2 2027   3.104   0.280   0.686 -2.0123  1.9166 -1.0259
  415SOL     OW 2028   2.359   5.091   4.901 -0.0698  0.3288 -0.1423
  415SOL    HW1 2029   2.453   5.099   4.920 -0.2101 -1.3932  1.6808
  415SOL    HW2 2030   2.355   5.054   4.813  1.0455 -0.9103  0.2953
  416SOL     OW 2031   1.412   2.015   4.985 -0.3301  0.1560 -0.5583
  416SOL    HW1 2032   1.486   2.040   5.041 -0.5527  1.0772 -0.6604
  416SOL    HW2 2033   1.383   1.931   5.019  3.4009 -2.4841 -3.0238
  417SOL     OW 2034   3.466   1.216   1.665  0.4314  0.3307 -0.3763
  417SOL    HW1 2035   3.389   1.245   1.616 -0.3683 -0.3648  0.4400
  417SOL    HW2 2036   3.498   1.295   1.709  2.0694  1.3337 -3.1142
  418SOL     OW 2037   1.271   1.140   0.028 -0.4398 -0.3869  0.5409
  418SOL    HW1 2038   1.352   1.120  -0.020  0.2893 -0.3988  1.7409
  418SOL    HW2 2039   1.204   1.143  -0.040  0.6848  0.3459 -0.5890
  419SOL     OW 2040   1.053   1.147   1.767  0.1249 -0.3047  0.0363
  419SOL    HW1 2041   1.087   1.205   1.836 -1.9911 -1.2634  2.0103
  419SOL    HW2 2042   0.990   1.091   1.812 -1.1027 -1.2318 -2.6628
  420SOL     OW 2043   1.983   4.608   4.696 -0.2071  0.1369  0.2705
  420SOL    HW1 2044   1.934   4.542   4.647 -0.5463  0.5188  0.0884
  420SOL    HW2 2045   1.923   4.637   4.764 -0.3353  0.8022 -0.1214
  421SOL     OW 2046   3.388   1.111   0.396 -0.1486 -0.0408 -0.6604
  421SOL    HW1 2047   3.335   1.066   0.461 -0.3310  0.5825 -0.3703
  421SOL    HW2 2048   3.325   1.156   0.340 -0.3847 -3.8940 -3.9831
  422SOL     OW 2049   1.320   5.210   1.082  0.0374 -0.0747 -0.0918
  422SOL    HW1 2050   1.290   5.283   1.137 -1.3878 -0.4019 -0.3836
  422SOL    HW2 2051   1.269   5.135   1.113  1.1087 -0.8418 -0.1400
  423SOL     OW 2052   2.263   0.066   1.624 -0.5295 -0.3452  0.4246
  423SOL    HW1 2053   2.196   0.102   1.683 -0.7532 -0.5845  0.3182
  423SOL    HW2 2054   2.345   0.103   1.656 -0.4376 -1.6666  1.8744
  424SOL     OW 2055   1.815   1.741   4.906 -0.0944  0.0750  0.5922
  424SOL    HW1 2056   1.746   1.749   4.973  0.4582 -1.0793  1.3256
  424SOL    HW2 2057   1.887   1.697   4.951 -0.0896 -1.7050 -1.0236
  425SOL     OW 2058   2.636   4.335   1.382  0.4877 -0.6149 -0.1157
  425SOL    HW1 2059   2.644   4.246   1.349  0.7437 -1.3123  1.6839
  425SOL    HW2 2060   2.680   4.333   1.467 -1.0082  0.7641  0.7545
  426SOL     OW 2061   2.273   3.144   1.135 -0.2486 -0.7079 -0.1398
  426SOL    HW1 2062   2.252   3.127   1.227  2.1552  0.4869  0.7065
  426SOL    HW2 2063   2.206   3.205   1.105  1.0216  1.9353  2.0232
  427SOL     OW 2064   1.834   3.742   1.206  0.0782 -0.3643  0.3695
  427SOL    HW1 2065   1.883   3.822   1.221  0.0640  0.1219 -1.8667
  427SOL    HW2 2066   1.745   3.771   1.188 -0.7637 -1.1449  2.8558
  428SOL     OW 2067   2.337   2.608   1.829 -0.4165 -0.4204  0.2926
  428SOL    HW1 2068   2.287   2.637   1.752  1.2787 -1.8661 -1.4633
  428SOL    HW2 2069   2.424   2.646   1.816  0.1853 -1.5254  0.9790
  429SOL     OW 2070   1.782   4.358   0.989  1.2345  0.5901 -0.3934
  429SOL    HW1 2071   1.796   4.418   0.916  0.4110  0.5695 -0.5826
  429SOL    HW2 2072   1.687   4.361   1.005  1.4253  0.7579  0.8144
  430SOL     OW 2073   4.414   1.658   2.234 -0.6768  0.0407  0.6469
  430SOL    HW1 2074   4.502   1.678   2.203 -0.2671 -3.0434 -0.5782
  430SOL    HW2 2075   4.428   1.593   2.304 -1.9448 -0.4311  0.4957
  431SOL     OW 2076   2.416   4.798   4.853  0.1411  0.0848  0.7537
  431SOL    HW1 2077   2.341   4.790   4.795 -0.6384 -1.8330  1.9509
  431SOL    HW2 2078   2.378   4.805   4.941  1.3504  0.4782  1.2673
  432SOL     OW 2079   2.163   2.989   1.498 -0.0468  0.4744 -0.1832
  432SOL    HW1 2080   2.227   2.928   1.535 -0.4267  0.7940  1.0180
  432SOL    HW2 2081   2.092   2.933   1.466 -0.2306  0.2637  0.5874
  433SOL     OW 2082   2.910   1.280   1.252  0.5442  0.4790  0.5346
  433SOL    HW1 2083   2.816   1.265   1.244  0.0427  3.6107 -1.0681
  433SOL    HW2 2084   2.945   1.197   1.285 -2.3482 -1.8940 -1.7474
  434SOL     OW 2085   1.235   1.798   4.728 -0.2446  0.3978 -0.7847
  434SOL    HW1 2086   1.254   1.739   4.655 -0.0237  0.9328 -1.1640
  434SOL    HW2 2087   1.170   1.750   4.781 -0.2395 -0.0865 -1.2065
  435SOL     OW 2088   3.435   1.524   1.518 -0.0093 -0.4925 -0.1092
  435SOL    HW1 2089   3.472   1.535   1.430 -0.8884 -1.5504 -0.6322
  435SOL    HW2 2090   3.369   1.456   1.508 -1.1918  0.4252  1.0584
  436SOL     OW 2091   1.673   3.386   1.102 -0.2696  0.5005 -0.1075
  436SOL    HW1 2092   1.627   3.371   1.019  1.6043  1.1578 -1.3212
  436SOL    HW2 2093   1.716   3.303   1.122  2.7003  1.4146 -2.0807
  437SOL     OW 2094   0.852   1.915   0.408 -0.4092 -0.5679 -0.2266
  437SOL    HW1 2095   0.941   1.894   0.380 -0.2173 -0.6175  0.4207
  437SOL    HW2 2096   0.843   2.008   0.392  0.1985 -0.3015  0.8835
  438SOL     OW 2097   2.731   2.798   1.018  0.3892  0.3202  0.0417
  438SOL    HW1 2098   2.672   2.740   0.971  1.4042 -0.5877 -0.1471
  438SOL    HW2 2099   2.787   2.836   0.950 -0.6869  2.0947  0.0686
  439SOL     OW 2100   2.132   1.519   4.912  0.5653  1.1398 -0.3586
  439SOL    HW1 2101   2.138   1.510   5.007  0.3734  4.1253  0.0229
  439SOL    HW2 2102   2.223   1.523   4.882  0.7241 -2.0802 -0.7060
  440SOL     OW 2103   3.099   0.873   4.947 -0.4763 -0.0917 -0.3409
  440SOL    HW1 2104   3.013   0.870   4.990  0.3500  0.0767  1.4277
  440SOL    HW2 2105   3.151   0.930   5.003  1.5547 -2.2484  0.1163
  441SOL     OW 2106   2.508   4.617   1.083 -0.5205  0.8812 -0.4329
  441SOL    HW1 2107   2.520   4.522   1.092  1.2897  1.1012 -0.2103
  441SOL    HW2 2108   2.435   4.637   1.141 -0.9854 -0.3735 -0.5397
  442SOL     OW 2109   3.445   0.885   0.766 -0.2420 -0.0545 -0.4442
  442SOL    HW1 2110   3.448   0.809   0.708  0.2686  1.1155 -2.0260
  442SOL    HW2 2111   3.396   0.951   0.716 -1.0920  0.5179  1.0904
  443SOL     OW 2112   2.083   4.880   1.501  0.8081  0.5670 -0.0982
  443SOL    HW1 2113   2.124   4.831   1.430  0.4131 -0.2039  0.2016
  443SOL    HW2 2114   2.110   4.834   1.581 -1.4853 -0.6282  0.0588
  444SOL     OW 2115   1.819   1.458   4.505  0.0776 -0.5220 -0.1664
  444SOL    HW1 2116   1.794   1.549   4.517  0.6052 -0.4892  0.8032
  444SOL    HW2 2117   1.850   1.453   4.414  2.2572  0.8228  0.4237
  445SOL     OW 2118   1.175   1.523   0.649  0.2515  0.9220 -0.6487
  445SOL    HW1 2119   1.216   1.578   0.583  0.9329  0.9064 -0.2534
  445SOL    HW2 2120   1.087   1.559   0.660  1.3603  3.3538  1.1662
  446SOL     OW 2121   2.214   4.884   4.346  0.2717 -0.4961  0.4158
  446SOL    HW1 2122   2.288   4.850   4.397  0.1509 -1.1519  0.1584
  446SOL    HW2 2123   2.156   4.809   4.335 -0.1644 -0.1204  0.1304
  447SOL     OW 2124   2.731   3.724   5.117 -0.4076 -0.3970  0.0415
  447SOL    HW1 2125   2.726   3.655   5.182 -1.2485 -1.0976 -0.7449
  447SOL    HW2 2126   2.678   3.795   5.153  0.4389 -0.1512  0.8379
  448SOL     OW 2127   2.167   0.664   4.775 -0.0395  0.0668 -0.2374
  448SOL    HW1 2128   2.222   0.742   4.776  0.9304 -0.5913 -0.7794
  448SOL    HW2 2129   2.229   0.591   4.765 -1.0106 -0.6927 -0.8712
  449SOL     OW 2130   3.147   0.447   1.008  0.3004  0.3408 -0.1304
  449SOL    HW1 2131   3.220   0.493   0.967  0.1060  1.0898  0.3379
  449SOL    HW2 2132   3.129   0.373   0.950  1.7995 -0.1934  0.0613
  450SOL     OW 2133   2.702   1.169   4.573  0.1768 -0.1310  0.3798
  450SOL    HW1 2134   2.749   1.146   4.653 -0.7749  0.8068  1.2470
  450SOL    HW2 2135   2.668   1.086   4.540  0.3481 -0.4945  1.0943
  451SOL     OW 2136   2.816   1.058   0.908 -0.1818 -0.4929  0.0806
  451SOL    HW1 2137   2.761   1.110   0.967 -0.3863 -0.6833  0.0597
  451SOL    HW2 2138   2.899   1.048   0.955 -0.1832 -0.2497  0.1356
  452SOL     OW 2139   2.600   5.092   0.827 -0.1493 -0.7314 -0.1196
  452SOL    HW1 2140   2.687   5.053   0.838  0.8072  1.2539 -0.1790
  452SOL    HW2 2141   2.617   5.182   0.798 -2.2614 -0.8037 -1.8824
  453SOL     OW 2142   3.523   0.256   1.320  0.3514  0.3333  0.0599
  453SOL    HW1 2143   3.512   0.293   1.232  2.2458  0.9496  0.0347
  453SOL    HW2 2144   3.503   0.329   1.379 -3.1320 -0.6501  0.3116
  454SOL     OW 2145   1.432   2.667   1.218 -0.2617  1.1160  0.2194
  454SOL    HW1 2146   1.461   2.721   1.145  2.0429 -0.5273 -0.1892
  454SOL    HW2 2147   1.485   2.695   1.292  2.5366 -1.7802 -0.4785
  455SOL     OW 2148   0.929   1.196   1.126  0.1504 -0.2928 -0.1341
  455SOL    HW1 2149   0.967   1.147   1.052 -1.5363  0.6647 -1.7141
  455SOL    HW2 2150   0.929   1.133   1.198 -1.1955 -2.4123 -1.8501
  456SOL     OW 2151   0.875   2.375   1.320  0.0408 -0.5494  0.1646
  456SOL    HW1 2152   0.865   2.349   1.228  0.7452 -0.5548  0.0787
  456SOL    HW2 2153   0.969   2.390   1.330  0.2194 -2.2202  1.3400
  457SOL     OW 2154   2.758   5.163   4.527 -0.8263 -0.1505 -0.2922
  457SOL    HW1 2155   2.758   5.081   4.478 -1.7044  1.6181 -3.4998
  457SOL    HW2 2156   2.750   5.231   4.461  1.6438  2.7215  2.0437
  458SOL     OW 2157   1.696   2.250   1.516 -0.2370 -0.2235 -0.2044
  458SOL    HW1 2158   1.668   2.341   1.517 -1.8151 -0.6856  1.1119
  458SOL    HW2 2159   1.710   2.230   1.423  0.1684  1.3463 -0.5075
  459SOL     OW 2160   3.311   1.645   5.180  1.0646  0.2385  0.8842
  459SOL    HW1 2161   3.382   1.672   5.122  1.9968 -1.8991  0.9490
  459SOL    HW2 2162   3.237   1.628   5.122  0.7775  1.8100  0.7498
  460SOL     OW 2163   2.200   4.433   0.893  0.7044 -0.6296 -0.1483
  460SOL    HW1 2164   2.206   4.378   0.815 -0.3455 -2.1871  0.8219
  460SOL    HW2 2165   2.157   4.513   0.863  0.1460 -1.2774 -1.1212
  461SOL     OW 2166   1.388   0.993   0.917  0.3948  0.5916 -0.5514
  461SOL    HW1 2167   1.461   0.975   0.976 -1.1776  1.4715  1.8091
  461SOL    HW2 2168   1.415   1.073   0.870  2.4722 -1.1552 -2.5938
  462SOL     OW 2169   2.126   2.499   1.953 -0.0898  0.5166 -0.5859
  462SOL    HW1 2170   2.045   2.545   1.973 -0.7733 -0.2580 -1.4819
  462SOL    HW2 2171   2.187   2.568   1.924 -0.3642  1.1192  0.2525
  463SOL     OW 2172   2.972   5.285   2.418 -1.2290  0.0831  0.2683
  463SOL    HW1 2173   3.052   5.304   2.369 -2.3205  1.5536 -1.0772
  463SOL    HW2 2174   2.968   5.353   2.485 -0.6671 -0.8378  1.2655
  464SOL     OW 2175   2.095   4.310   4.762  0.1179 -0.0633  0.0198
  464SOL    HW1 2176   2.068   4.373   4.695  0.7975  1.6172  1.2388
  464SOL    HW2 2177   2.141   4.363   4.828 -0.8593 -1.5438  2.0278
  465SOL     OW 2178   3.194   0.206   1.630  0.6198 -0.0963 -0.0687
  465SOL    HW1 2179   3.239   0.144   1.572  0.3365 -0.6308  0.2702
  465SOL    HW2 2180   3.132   0.152   1.679 -1.1890  0.7686 -1.2934
  466SOL     OW 2181   0.845   1.722   0.189 -0.6868  0.2054  0.3417
  466SOL    HW1 2182   0.860   1.804   0.143 -1.0813 -0.0227 -0.2062
  466SOL    HW2 2183   0.807   1.748   0.273 -0.7119  0.5872  0.2138
  467SOL     OW 2184   1.443   1.476   5.027  0.1755 -0.3557 -0.7402
  467SOL    HW1 2185   1.373   1.539   5.046 -0.6183 -0.9678 -1.5384
  467SOL    HW2 2186   1.400   1.408   4.974  1.5319 -0.3996 -1.8291
  468SOL     OW 2187   3.075   4.659   1.048 -0.0580  0.6149 -0.1655
  468SOL    HW1 2188   3.014   4.652   1.121  1.0852  1.7582  0.9505
  468SOL    HW2 2189   3.145   4.598   1.070 -1.0745 -1.2593 -1.8059
  469SOL     OW 2190   2.129   5.204   2.494  0.0698  0.3022 -0.2850
  469SOL    HW1 2191   2.113   5.197   2.588 -0.2172  2.6826 -0.0799
  469SOL    HW2 2192   2.225   5.208   2.486  0.0801  0.6565 -0.0205
  470SOL     OW 2193   1.253   0.671   4.815  0.3684  0.1045  0.1858
  470SOL    HW1 2194   1.243   0.596   4.757  0.8562  0.6795 -0.6754
  470SOL    HW2 2195   1.320   0.645   4.878 -1.7200 -1.3674  1.9561
  471SOL     OW 2196   1.961   2.115   4.959 -0.2582  0.3028 -0.2244
  471SOL    HW1 2197   2.055   2.130   4.960 -0.3744  1.0257  1.2598
  471SOL    HW2 2198   1.940   2.082   5.046 -1.4968  0.8703 -0.2884
  472SOL     OW 2199   2.861   3.517   4.875  0.2999  0.2452  0.2831
  472SOL    HW1 2200   2.946   3.474   4.874  2.0693  3.4557 -1.1710
  472SOL    HW2 2201   2.827   3.501   4.963  1.9482 -1.8531  0.6145
  473SOL     OW 2202   2.652   4.092   0.502  0.4651 -0.2023  0.0503
  473SOL    HW1 2203   2.714   4.113   0.572  1.4639  1.2010 -1.1976
  473SOL    HW2 2204   2.680   4.007   0.470  2.8358  1.0712 -1.5337
  474SOL     OW 2205   3.024   0.594   1.221  0.5158 -1.0069 -0.3634
  474SOL    HW1 2206   3.065   0.536   1.157  1.4994 -1.8246  0.9628
  474SOL    HW2 2207   3.068   0.574   1.303 -0.1160  0.6230  0.4179
  475SOL     OW 2208   1.549   0.326   1.660 -0.8649 -0.2353 -0.4935
  475SOL    HW1 2209   1.635   0.308   1.700  0.3044 -4.6934 -4.0760
  475SOL    HW2 2210   1.489   0.268   1.707 -0.4452 -1.8854 -1.8573
  476SOL     OW 2211   2.418   4.056   1.298  0.7705 -0.1262  0.2456
  476SOL    HW1 2212   2.364   4.067   1.220  1.8597 -0.3156 -0.5556
  476SOL    HW2 2213   2.365   4.001   1.356 -0.4520  0.8222  0.0573
  477SOL     OW 2214   2.457   4.774   0.655 -0.3004 -0.2581  0.2535
  477SOL    HW1 2215   2.422   4.758   0.568 -0.2546  1.9861 -0.2313
  477SOL    HW2 2216   2.532   4.715   0.662  0.0531 -0.0479 -1.4491
  478SOL     OW 2217   1.821   3.190   0.041 -0.4054  0.3875 -1.1087
  478SOL    HW1 2218   1.902   3.179   0.092  0.6876  0.7184 -2.6687
  478SOL    HW2 2219   1.753   3.150   0.095  0.7990  0.0790  0.2592
  479SOL     OW 2220   2.350   3.395   1.361  0.1405  0.1876  0.0332
  479SOL    HW1 2221   2.444   3.375   1.355  0.4311  1.7467 -1.1985
  479SOL    HW2 2222   2.327   3.428   1.275 -2.0588 -2.0738 -0.3253
  480SOL     OW 2223   2.566   0.794   4.356  0.0525  0.0419 -0.4145
  480SOL    HW1 2224   2.604   0.779   4.443  0.0298  0.1180 -0.3909
  480SOL    HW2 2225   2.551   0.706   4.321  1.3836  0.0135 -0.9311
  481SOL     OW 2226   1.769   2.226   4.700 -0.0933 -0.3995  0.2941
  481SOL    HW1 2227   1.809   2.140   4.712 -0.5223 -0.2447  4.3265
  481SOL    HW2 2228   1.682   2.217   4.737 -2.0690  0.6771 -3.5201
  482SOL     OW 2229   0.879   2.204   0.436  0.4971 -0.6386  1.0253
  482SOL    HW1 2230   0.956   2.168   0.479  0.7872 -0.0327  1.0179
  482SOL    HW2 2231   0.855   2.280   0.489 -1.3464 -1.9946  2.2600
  483SOL     OW 2232   1.030   1.736   1.207  0.0058 -0.1125 -0.1759
  483SOL    HW1 2233   0.990   1.684   1.277  1.1546 -1.5351 -0.5272
  483SOL    HW2 2234   1.017   1.684   1.128 -0.1405  0.8697 -0.8132
  484SOL     OW 2235   3.108   2.379   0.713  0.3642 -0.1108  0.2156
  484SOL    HW1 2236   3.186   2.324   0.699 -0.6688 -0.8067 -4.5832
  484SOL    HW2 2237   3.142   2.468   0.714  1.3950 -0.2996 -3.0014
  485SOL     OW 2238   1.439   0.517   0.702 -0.0332  0.2565  0.2757
  485SOL    HW1 2239   1.417   0.603   0.737 -2.6665  0.0305 -0.5913
  485SOL    HW2 2240   1.455   0.463   0.779  2.2668  1.5747  0.8268
  486SOL     OW 2241   2.235   0.370   1.428 -0.6494  1.0176  0.2524
  486SOL    HW1 2242   2.230   0.459   1.392  1.8252  0.5492 -1.5751
  486SOL    HW2 2243   2.255   0.315   1.352 -1.5841 -1.0374  1.4278
  487SOL     OW 2244   1.640   0.545   2.412  0.2165 -0.4126  0.2485
  487SOL    HW1 2245   1.584   0.468   2.403  0.6464 -0.6762 -0.2614
  487SOL    HW2 2246   1.611   0.604   2.343  0.8596 -0.7453 -0.3232
  488SOL     OW 2247   2.011   0.589   1.519 -0.3399 -0.0545  0.2590
  488SOL    HW1 2248   2.033   0.654   1.452 -0.4824 -1.0990 -0.8462
  488SOL    HW2 2249   1.925   0.556   1.493  0.4549 -1.8952 -0.2262
  489SOL     OW 2250   2.728   1.022   1.181 -0.4228 -0.4495  0.4319
  489SOL    HW1 2251   2.749   0.975   1.262 -0.2751 -0.3828  0.4324
  489SOL    HW2 2252   2.683   0.957   1.127 -0.2755 -0.5750  0.4569
  490SOL     OW 2253   2.990   1.578   3.608  0.3316  0.5010 -0.0556
  490SOL    HW1 2254   2.902   1.571   3.571 -0.3442 -1.3860  1.7046
  490SOL    HW2 2255   2.978   1.625   3.690  0.9351  0.1221  0.2548
  491SOL     OW 2256   3.111   0.660   1.526 -0.6856 -0.0622  0.3495
  491SOL    HW1 2257   3.086   0.686   1.437  0.1546 -2.6236 -0.7269
  491SOL    HW2 2258   3.096   0.739   1.578 -3.5385  0.8678 -1.5726
  492SOL     OW 2259   1.982   0.298   4.400  0.6802 -0.0102 -0.1751
  492SOL    HW1 2260   1.927   0.236   4.446  0.0391 -0.0550 -0.9753
  492SOL    HW2 2261   2.035   0.245   4.341  1.5021  0.0441  0.4974
  493SOL     OW 2262   3.457   0.603   0.960  0.5821  0.3617  0.1611
  493SOL    HW1 2263   3.510   0.680   0.982  0.1603  0.6834  0.0535
  493SOL    HW2 2264   3.508   0.557   0.893  0.4209  1.0202 -0.4261
  494SOL     OW 2265   1.881   3.052   2.052  0.6638  0.4530 -0.1160
  494SOL    HW1 2266   1.892   3.039   2.146  1.2862  0.7013 -0.1462
  494SOL    HW2 2267   1.787   3.053   2.038  0.4072 -3.9484 -0.1204
  495SOL     OW 2268   2.373   0.107   2.103 -0.1137 -0.2034  0.5113
  495SOL    HW1 2269   2.414   0.040   2.158 -2.8415 -2.8885 -0.4844
  495SOL    HW2 2270   2.353   0.179   2.164  0.4158 -1.4368  2.2085
  496SOL     OW 2271   2.032   0.699   5.044  0.2194 -0.0243 -0.1237
  496SOL    HW1 2272   1.960   0.655   4.998 -0.0728  0.1490  0.1728
  496SOL    HW2 2273   2.100   0.707   4.977 -0.1599  0.1177 -0.4986
  497SOL     OW 2274   1.431   3.955   0.995 -0.4421 -0.7003 -0.1373
  497SOL    HW1 2275   1.475   4.021   1.048 -1.7826  1.5064 -1.6008
  497SOL    HW2 2276   1.376   3.908   1.057  0.0722 -0.0261  0.8587
  498SOL     OW 2277   1.978   2.200   1.552 -0.6517 -0.7528  0.3281
  498SOL    HW1 2278   1.885   2.192   1.575 -0.0665  0.8899  3.9385
  498SOL    HW2 2279   2.014   2.257   1.619  3.0477 -1.4162 -0.9005
  499SOL     OW 2280   3.207   3.447   0.766 -0.2898  0.9653 -0.8030
  499SOL    HW1 2281   3.291   3.492   0.762 -0.6135  1.8647  1.3241
  499SOL    HW2 2282   3.225   3.364   0.810 -0.1088 -0.0615 -2.6841
  500SOL     OW 2283   2.927   2.389   4.816  0.2817 -0.4957  0.2565
  500SOL    HW1 2284   2.954   2.383   4.908 -3.0435 -1.2858  1.3092
  500SOL    HW2 2285   2.928   2.299   4.785 -0.6488 -0.4814  0.1841
  501SOL     OW 2286   1.601   4.521   0.291  0.3043 -0.1559 -0.3755
  501SOL    HW1 2287   1.590   4.585   0.221 -0.3321 -0.3021 -0.4150
  501SOL    HW2 2288   1.695   4.521   0.308  0.0750  2.8381  1.5763
  502SOL     OW 2289   3.044   1.640   1.063 -0.1534  0.2342 -0.2225
  502SOL    HW1 2290   2.986   1.586   1.010 -3.0024  1.5791  1.2897
  502SOL    HW2 2291   3.038   1.727   1.024  0.0401  0.6084  0.5708
  503SOL     OW 2292   1.570   5.269   1.085 -0.6081  0.1598  0.2535
  503SOL    HW1 2293   1.479   5.243   1.074 -0.4883  0.5886 -2.4018
  503SOL    HW2 2294   1.620   5.189   1.066 -0.4126  0.1702  0.7187
  504SOL     OW 2295   2.279   3.496   0.550 -0.4142  0.0715  0.1831
  504SOL    HW1 2296   2.213   3.551   0.507 -0.0097 -0.5149 -1.2708
  504SOL    HW2 2297   2.230   3.449   0.618 -2.2028 -2.3066 -2.5036
  505SOL     OW 2298   1.606   2.817   0.269  0.3843  0.0994 -0.0256
  505SOL    HW1 2299   1.680   2.873   0.247  0.3087  0.3501  0.3486
  505SOL    HW2 2300   1.594   2.829   0.363 -1.0204  1.1628 -0.3055
  506SOL     OW 2301   3.010   0.984   0.700  0.4385 -0.1046  0.3257
  506SOL    HW1 2302   2.938   0.921   0.698  0.4601 -0.1415  0.7226
  506SOL    HW2 2303   2.978   1.056   0.755  1.2252 -0.7563  1.6743
  507SOL     OW 2304   1.927   4.982   1.915  1.1744 -0.1440 -0.1694
  507SOL    HW1 2305   1.851   4.925   1.903  0.4581  0.9511 -0.9395
  507SOL    HW2 2306   1.947   4.975   2.009 -2.7501  2.9920  1.1661
  508SOL     OW 2307   3.578   2.025   1.461 -0.9830  0.2035 -0.1689
  508SOL    HW1 2308   3.528   2.009   1.380 -0.6248 -2.6735  0.0746
  508SOL    HW2 2309   3.653   1.965   1.455  0.9536  2.3995  0.7778
  509SOL     OW 2310   2.562   0.550   4.707 -0.9533  0.3147 -0.0549
  509SOL    HW1 2311   2.532   0.637   4.681  1.6428  0.9922 -1.0933
  509SOL    HW2 2312   2.657   0.553   4.696 -0.7180 -2.4789  0.4672
  510SOL     OW 2313   1.999   2.237   4.539  0.6687 -0.5890 -0.1508
  510SOL    HW1 2314   1.917   2.265   4.581 -0.3402 -2.4302 -0.7913
  510SOL    HW2 2315   2.040   2.179   4.604  0.0883 -1.8449 -0.8725
  511SOL     OW 2316   3.066   3.064   4.843  0.2162  0.4230  0.1078
  511SOL    HW1 2317   3.058   3.000   4.772 -0.2408 -1.4700  1.7909
  511SOL    HW2 2318   3.160   3.074   4.856  0.2971 -0.2909  0.1301
  512SOL     OW 2319   3.072   2.830   0.788 -0.0256 -1.0003 -0.7101
  512SOL    HW1 2320   2.987   2.788   0.806 -0.3615 -0.3737 -0.7862
  512SOL    HW2 2321   3.049   2.907   0.734  0.4964 -0.3550 -0.0273
  513SOL     OW 2322   2.603   1.954   1.626 -0.3920 -0.9846 -0.3942
  513SOL    HW1 2323   2.544   1.911   1.563 -0.5349 -1.2159 -0.1059
  513SOL    HW2 2324   2.649   2.019   1.574 -0.6795 -1.0125 -0.6929
  514SOL     OW 2325   2.515   0.371   2.176  0.7284  0.0549  0.1062
  514SOL    HW1 2326   2.565   0.402   2.101 -0.0022 -0.3013 -0.5298
  514SOL    HW2 2327   2.467   0.448   2.206 -2.0104 -0.6145 -2.1926
  515SOL     OW 2328   1.882   0.552   1.214 -0.5448 -0.1789  0.2670
  515SOL    HW1 2329   1.931   0.486   1.264  0.3752  0.5148  0.3021
  515SOL    HW2 2330   1.838   0.605   1.280  1.8799  1.6997  0.5313
  516SOL     OW 2331   2.239   2.826   2.045 -0.7905  0.3223 -0.7690
  516SOL    HW1 2332   2.275   2.753   1.995 -2.4185 -0.6884 -0.5150
  516SOL    HW2 2333   2.275   2.904   2.001  1.4866 -0.5817 -0.6458
  517SOL     OW 2334   2.865   1.889   4.593 -0.2193  0.6232  0.2800
  517SOL    HW1 2335   2.880   1.905   4.500  1.7901  1.0487  0.6275
  517SOL    HW2 2336   2.841   1.796   4.597 -1.1765  0.7999 -0.7148
  518SOL     OW 2337   3.256   4.815   0.266  0.5810  0.5423 -0.8238
  518SOL    HW1 2338   3.173   4.853   0.237 -1.6726 -1.3734  2.4790
  518SOL    HW2 2339   3.271   4.743   0.205 -0.1488  0.9360 -1.4970
  519SOL     OW 2340   1.949   4.166   1.167  0.0104 -0.0606  0.6432
  519SOL    HW1 2341   2.037   4.197   1.190  0.0801 -0.3968  0.8406
  519SOL    HW2 2342   1.904   4.244   1.135 -0.0462  0.4110  1.8111
  520SOL     OW 2343   1.557   1.506   4.341  0.0264 -0.5268 -0.5729
  520SOL    HW1 2344   1.547   1.515   4.246 -0.4587  0.4366 -0.4420
  520SOL    HW2 2345   1.555   1.412   4.356 -1.2424 -0.6528 -1.3754
  521SOL     OW 2346   2.693   3.492   5.252 -0.3191 -0.3457  0.3638
  521SOL    HW1 2347   2.733   3.472   5.337  0.9658  0.0421 -0.1318
  521SOL    HW2 2348   2.732   3.429   5.192 -2.2193 -1.5060  0.2737
  522SOL     OW 2349   2.632   4.354   4.876  0.4440 -0.7554 -0.2071
  522SOL    HW1 2350   2.589   4.275   4.910  0.2414 -0.3493  0.5005
  522SOL    HW2 2351   2.611   4.422   4.940 -1.1717  0.4084 -1.8781
  523SOL     OW 2352   2.627   2.334   1.775 -0.3057  0.1990  0.3825
  523SOL    HW1 2353   2.686   2.268   1.811 -2.1898 -2.3362 -0.8810
  523SOL    HW2 2354   2.551   2.332   1.832 -1.2376 -0.2308 -0.8475
  524SOL     OW 2355   0.058   2.276   0.829 -0.2215 -0.7476  0.2721
  524SOL    HW1 2356   0.139   2.327   0.827 -1.6284  1.6151 -0.5962
  524SOL    HW2 2357   0.062   2.221   0.751  0.0491  0.2079 -0.4009
  525SOL     OW 2358   2.773   2.254   0.043  0.2936 -0.3559  0.0434
  525SOL    HW1 2359   2.809   2.218  -0.038  0.8486  1.0027 -0.3499
  525SOL    HW2 2360   2.832   2.326   0.065  0.1946 -0.7624  1.7216
  526SOL     OW 2361   2.319   0.661   1.740 -0.7683 -0.0062 -0.9029
  526SOL    HW1 2362   2.399   0.637   1.693 -0.2236  0.5670 -0.2822
  526SOL    HW2 2363   2.299   0.749   1.709 -0.4426  0.3506 -0.1289
  527SOL     OW 2364   2.613   4.179   0.040 -0.6868 -0.7509  0.1589
  527SOL    HW1 2365   2.703   4.147   0.027  0.3412  1.0858  2.0632
  527SOL    HW2 2366   2.594   4.229  -0.039  1.2186  1.3650  0.9290
  528SOL     OW 2367   2.209   4.701   2.281  0.8047  0.9457 -0.3634
  528SOL    HW1 2368   2.175   4.787   2.304  1.6549  1.4565 -0.9854
  528SOL    HW2 2369   2.298   4.700   2.317  0.3446 -0.2057  0.8614
  529SOL     OW 2370   1.685   2.925   4.536  0.2589 -1.1805  0.0999
  529SOL    HW1 2371   1.634   2.856   4.578  0.6938 -0.3270  2.1667
  529SOL    HW2 2372   1.771   2.885   4.520 -0.4839 -2.1162 -1.8949
  530SOL     OW 2373   2.075   2.941   0.266 -0.8130  0.0817 -0.7909
  530SOL    HW1 2374   2.061   2.941   0.172 -1.7267  4.6663 -0.8562
  530SOL    HW2 2375   2.153   2.995   0.279 -0.5436 -0.6599  1.1185
  531SOL     OW 2376   2.896   0.351   0.326  0.4764  0.2704 -0.1652
  531SOL    HW1 2377   2.953   0.289   0.281  1.1049  1.5126 -1.1548
  531SOL    HW2 2378   2.941   0.435   0.318  0.0593  0.7464  1.8571
  532SOL     OW 2379   2.192   3.000   0.614 -0.3703 -0.3468 -0.4456
  532SOL    HW1 2380   2.193   2.914   0.573 -1.5100  0.5754 -2.5827
  532SOL    HW2 2381   2.112   3.002   0.667  0.3781 -1.0470  0.7581
  533SOL     OW 2382   1.869   4.726   1.652  0.0501  0.0845  0.4763
  533SOL    HW1 2383   1.867   4.819   1.629 -2.5699 -0.3966 -1.8585
  533SOL    HW2 2384   1.883   4.681   1.569  2.6181 -1.6680  1.7433
  534SOL     OW 2385   1.489   0.640   1.706  0.1757  0.1924 -0.7910
  534SOL    HW1 2386   1.582   0.627   1.693 -0.1207 -0.7298 -2.2224
  534SOL    HW2 2387   1.447   0.594   1.633 -1.5998 -3.0047  1.9595
  535SOL     OW 2388   2.536   0.405   1.872 -0.0227 -0.2858  0.0755
  535SOL    HW1 2389   2.543   0.409   1.776 -1.1616  0.6546  0.0091
  535SOL    HW2 2390   2.453   0.448   1.891  0.7844  0.6526  1.5790
  536SOL     OW 2391   2.153   1.325   4.631 -0.4511 -0.4100 -0.6314
  536SOL    HW1 2392   2.174   1.249   4.575  0.1666 -1.7350  1.2917
  536SOL    HW2 2393   2.236   1.346   4.674 -0.4562  1.8289 -1.5668
  537SOL     OW 2394   1.889   4.032   0.916  0.3338  0.6917 -0.2997
  537SOL    HW1 2395   1.925   4.070   0.996  1.9106  1.5518 -1.3591
  537SOL    HW2 2396   1.949   3.960   0.895 -2.1933 -2.0872  1.2787
  538SOL     OW 2397   2.700   3.039   1.454  0.0666  0.4006  0.5088
  538SOL    HW1 2398   2.782   3.022   1.501 -0.5770 -0.1302  1.4938
  538SOL    HW2 2399   2.640   3.070   1.522 -0.3968  1.3139 -0.3020
  539SOL     OW 2400   2.650   0.397   4.181 -0.3005 -0.1501 -0.3232
  539SOL    HW1 2401   2.605   0.482   4.181 -0.0163  0.0763  1.9881
  539SOL    HW2 2402   2.604   0.346   4.247  0.2728 -1.3754 -0.8507
  540SOL     OW 2403   2.521   4.766   5.140  0.2475 -0.2929  0.4094
  540SOL    HW1 2404   2.490   4.784   5.229  0.8804 -1.1713  0.8215
  540SOL    HW2 2405   2.544   4.852   5.105  0.1602  0.0435  1.1594
  541SOL     OW 2406   1.897   5.090   5.173 -0.2016 -0.0632 -0.5083
  541SOL    HW1 2407   1.877   5.181   5.195  0.0700 -0.6214  2.3097
  541SOL    HW2 2408   1.818   5.042   5.195 -0.4640 -0.5288 -2.3034
  542SOL     OW 2409   2.324   2.311   4.576  0.4664 -0.0047 -0.1359
  542SOL    HW1 2410   2.317   2.279   4.487  1.7505 -1.7415  0.3346
  542SOL    HW2 2411   2.236   2.343   4.597  0.3757  1.3082 -2.2899
  543SOL     OW 2412   2.732   3.413   1.091  0.2393 -0.3588  0.5116
  543SOL    HW1 2413   2.671   3.467   1.040 -0.3256  0.8218  2.3501
  543SOL    HW2 2414   2.811   3.410   1.037  0.4553  2.7232  0.4652
  544SOL     OW 2415   2.124   0.197   1.827 -1.4079 -0.0596 -0.7710
  544SOL    HW1 2416   2.134   0.282   1.784  1.7198  1.3602  2.2817
  544SOL    HW2 2417   2.107   0.219   1.919 -0.7301 -2.7395  0.0806
  545SOL     OW 2418   2.107   3.599   1.372  0.6620  0.4401 -0.3856
  545SOL    HW1 2419   2.172   3.530   1.359 -0.5502 -1.1439  1.4482
  545SOL    HW2 2420   2.024   3.553   1.380 -0.1646  2.0742  1.2148
  546SOL     OW 2421   1.623   0.175   0.253 -0.1708 -0.5751 -0.0428
  546SOL    HW1 2422   1.541   0.186   0.302 -0.5938 -0.1704 -0.8330
  546SOL    HW2 2423   1.630   0.081   0.238 -0.4757 -0.6101  0.0357
  547SOL     OW 2424   2.298   0.873   4.698 -0.1166  1.1876 -0.0807
  547SOL    HW1 2425   2.233   0.943   4.697 -0.5071  0.8372 -1.3654
  547SOL    HW2 2426   2.368   0.906   4.754  0.0004  2.8967 -1.1579
  548SOL     OW 2427   2.318   3.439   4.651 -0.7075  0.6535  0.4220
  548SOL    HW1 2428   2.312   3.470   4.742 -0.4940  1.5640  0.1360
  548SOL    HW2 2429   2.333   3.519   4.600 -0.3223  0.0849 -0.3621
  549SOL     OW 2430   2.437   1.691   4.862  0.9111 -0.1731 -0.0546
  549SOL    HW1 2431   2.466   1.709   4.772  0.8899 -0.6379 -0.1567
  549SOL    HW2 2432   2.435   1.595   4.867  1.7337 -0.1564  0.7078
  550SOL     OW 2433   2.246   4.195   0.366 -0.3274  1.1276  0.4694
  550SOL    HW1 2434   2.161   4.166   0.400 -0.1597 -0.9309 -0.6418
  550SOL    HW2 2435   2.278   4.258   0.430 -1.2229 -0.5187  2.6642
  551SOL     OW 2436   3.771   0.661   1.294 -0.2937  0.2291 -0.1498
  551SOL    HW1 2437   3.811   0.612   1.366 -1.3515  0.9816  0.9998
  551SOL    HW2 2438   3.844   0.704   1.250  0.4064 -0.4906  0.2935
  552SOL     OW 2439   2.939   2.322   1.671 -0.0848 -0.1837  0.1921
  552SOL    HW1 2440   2.880   2.322   1.595  0.0557 -2.6798 -0.0167
  552SOL    HW2 2441   2.983   2.237   1.666  1.8213  0.6545  1.6677
  553SOL     OW 2442   1.523   4.155   1.201  0.2709  0.0856  0.4379
  553SOL    HW1 2443   1.478   4.240   1.207  1.2125  0.6904 -0.6521
  553SOL    HW2 2444   1.555   4.139   1.289 -2.9077 -0.8763  1.5570
  554SOL     OW 2445   3.112   1.918   1.333  0.1413 -0.0440 -0.7013
  554SOL    HW1 2446   3.100   2.002   1.290  3.3557  1.0742  0.2861
  554SOL    HW2 2447   3.040   1.912   1.396 -0.5449  1.6272 -1.2759
  555SOL     OW 2448   3.114   0.845   3.323 -0.4338  0.6103 -0.3235
  555SOL    HW1 2449   3.150   0.770   3.370 -0.2698  1.0135  0.2031
  555SOL    HW2 2450   3.080   0.903   3.392 -1.4669  0.5607 -0.7687
  556SOL     OW 2451   2.383   2.345   1.923  0.0176  0.8633 -0.1654
  556SOL    HW1 2452   2.297   2.303   1.915  0.9850 -0.8818 -2.6310
  556SOL    HW2 2453   2.364   2.439   1.916 -1.7206  0.5593 -0.1369
  557SOL     OW 2454   3.361   0.268   2.094 -0.2723 -0.5274  0.0400
  557SOL    HW1 2455   3.381   0.313   2.175 -0.6253 -2.4098  1.2450
  557SOL    HW2 2456   3.440   0.218   2.073  0.7446  1.7868 -2.1903
  558SOL     OW 2457   1.846   1.292   1.106  0.0979  0.4206 -0.2462
  558SOL    HW1 2458   1.920   1.290   1.166  1.9858  2.2090 -2.3640
  558SOL    HW2 2459   1.814   1.382   1.111 -2.8624 -0.5799  1.5318
  559SOL     OW 2460   1.695   2.575   0.103  0.5725 -0.1271  0.1855
  559SOL    HW1 2461   1.662   2.648   0.154  1.7551 -0.1420  1.0182
  559SOL    HW2 2462   1.752   2.615   0.037 -2.5425  0.1022 -2.6447
  560SOL     OW 2463   3.147   0.099   5.021  0.3391 -0.4019  0.2457
  560SOL    HW1 2464   3.212   0.032   5.041  0.3176 -0.4636  0.1133
  560SOL    HW2 2465   3.170   0.172   5.078  1.0714 -0.0873 -0.4401
  561SOL     OW 2466   2.129   3.800   0.482 -0.9663  0.8102 -0.4089
  561SOL    HW1 2467   2.207   3.854   0.465  0.3288 -0.5204  0.9081
  561SOL    HW2 2468   2.099   3.772   0.395  1.2107 -0.1703 -0.9290
  562SOL     OW 2469   3.537   1.402   4.619 -0.6726  0.3313 -1.0766
  562SOL    HW1 2470   3.517   1.451   4.540  0.2382 -1.6106 -2.6086
  562SOL    HW2 2471   3.506   1.313   4.601 -3.0148  0.3938  1.9066
  563SOL     OW 2472   2.632   0.685   4.970  0.1224 -0.4729 -0.3833
  563SOL    HW1 2473   2.538   0.700   4.983 -0.4134 -2.9397 -0.9925
  563SOL    HW2 2474   2.657   0.749   4.904 -1.1667  0.0770 -0.3719
  564SOL     OW 2475   1.441   0.573   4.965 -0.4158  0.8089  0.1676
  564SOL    HW1 2476   1.430   0.633   5.038  0.9256  1.4934 -0.1393
  564SOL    HW2 2477   1.536   0.556   4.962 -0.6155 -0.3047 -0.5458
  565SOL     OW 2478   3.233   3.327   1.499  0.1321 -0.1495  0.3698
  565SOL    HW1 2479   3.288   3.363   1.568 -0.2459 -0.6600  0.9513
  565SOL    HW2 2480   3.163   3.281   1.546 -1.0999  0.9412 -0.3318
  566SOL     OW 2481   1.555   4.550   0.574  0.4710 -0.6427 -0.9706
  566SOL    HW1 2482   1.577   4.545   0.481  1.9502 -0.4909 -0.6601
  566SOL    HW2 2483   1.464   4.523   0.579 -0.1646  1.0134 -2.6689
  567SOL     OW 2484   2.945   2.486   0.411  0.1647  0.5557  0.6979
  567SOL    HW1 2485   2.965   2.472   0.318 -0.9307  0.5414  0.4459
  567SOL    HW2 2486   2.938   2.581   0.419  0.2775  0.5578  0.7711
  568SOL     OW 2487   1.696   0.533   2.040 -0.6089  0.5457 -0.1921
  568SOL    HW1 2488   1.655   0.528   1.953 -3.0714  2.3328  0.7502
  568SOL    HW2 2489   1.764   0.599   2.031  0.2694 -0.4361 -1.1049
  569SOL     OW 2490   1.115   0.755   1.220 -0.5851 -0.3854  0.3473
  569SOL    HW1 2491   1.099   0.731   1.311 -0.3808 -1.2335  0.1688
  569SOL    HW2 2492   1.166   0.836   1.225  2.2844 -2.1160  1.0818
  570SOL     OW 2493   3.042   4.868   1.635  0.4933 -0.6069 -0.1209
  570SOL    HW1 2494   3.069   4.873   1.726 -0.2958  2.1770  0.0650
  570SOL    HW2 2495   3.093   4.936   1.591 -2.0218  0.9403 -0.8469
  571SOL     OW 2496   1.420   2.866   4.858  0.5270 -0.0110  0.3244
  571SOL    HW1 2497   1.398   2.894   4.946  2.3018  0.7148  0.5777
  571SOL    HW2 2498   1.466   2.940   4.819  0.8927 -0.7707 -0.7585
  572SOL     OW 2499   3.509   1.738   4.951 -0.1274  0.4930  0.0700
  572SOL    HW1 2500   3.592   1.768   4.914 -0.2990  1.2399  0.2892
  572SOL    HW2 2501   3.491   1.656   4.905  0.9797  0.0544  0.3675
  573SOL     OW 2502   3.072   3.668   0.877 -0.1431 -0.2871 -0.1615
  573SOL    HW1 2503   3.159   3.643   0.847  0.4558 -1.0495  2.0216
  573SOL    HW2 2504   3.052   3.748   0.828 -0.3959 -2.6881 -4.3361
  574SOL     OW 2505   1.950   1.002   1.659 -0.7012 -0.1685  0.7822
  574SOL    HW1 2506   1.993   1.083   1.634 -0.8354 -0.9810 -2.4851
  574SOL    HW2 2507   1.992   0.977   1.742  0.1966  2.5400  1.2378
  575SOL     OW 2508   2.989   1.307   5.012  0.4620 -0.2946 -0.0489
  575SOL    HW1 2509   2.935   1.290   4.934 -1.0806  2.2933  0.3481
  575SOL    HW2 2510   2.944   1.260   5.083 -0.4955  0.6902  0.0138
  576SOL     OW 2511   1.622   4.342   1.525  0.2418  0.8855 -0.2670
  576SOL    HW1 2512   1.632   4.249   1.504 -2.1006  0.3443  0.7227
  576SOL    HW2 2513   1.682   4.357   1.598 -0.9343 -0.4616  1.0435
  577SOL     OW 2514   1.147   2.115   5.215  0.0907 -0.0293 -0.5161
  577SOL    HW1 2515   1.161   2.176   5.287 -1.2157 -0.2046 -0.0797
  577SOL    HW2 2516   1.207   2.143   5.146  1.2994  0.1972  0.6012
  578SOL     OW 2517   2.382   3.954   0.462 -0.0137 -0.1990 -0.3612
  578SOL    HW1 2518   2.469   3.982   0.490 -0.3479  0.8574 -0.3349
  578SOL    HW2 2519   2.346   4.030   0.416 -1.8127  0.2382  1.6108
  579SOL     OW 2520   1.503   3.012   5.068 -0.1252  0.3507  0.0558
  579SOL    HW1 2521   1.454   3.060   5.134  2.4935  1.1793  1.5536
  579SOL    HW2 2522   1.550   2.944   5.118 -0.9577 -1.4769 -1.5257
  580SOL     OW 2523   3.527   0.727   0.237  0.4069 -0.3875  0.2067
  580SOL    HW1 2524   3.472   0.718   0.159  0.7873  0.0363 -0.1118
  580SOL    HW2 2525   3.558   0.817   0.234  0.3412 -0.3356  0.9075
  581SOL     OW 2526   2.780   3.078   4.898  0.3112  0.2385 -1.1776
  581SOL    HW1 2527   2.757   3.005   4.841 -0.8460 -1.3631  1.1513
  581SOL    HW2 2528   2.875   3.073   4.906  0.3354 -0.4427 -1.7867
  582SOL     OW 2529   3.602   1.288   4.359 -0.0079 -0.1924 -0.7360
  582SOL    HW1 2530   3.555   1.219   4.406 -0.7252  0.6928 -0.1107
  582SOL    HW2 2531   3.692   1.282   4.391 -0.4127  0.1723  0.5093
  583SOL     OW 2532   3.145   0.448   4.716  0.0865 -0.0010  0.5599
  583SOL    HW1 2533   3.132   0.457   4.621  0.5062  1.7531  0.6190
  583SOL    HW2 2534   3.093   0.519   4.753  0.0808 -0.5571  1.6410
  584SOL     OW 2535   0.914   0.954   1.893 -0.4101 -0.2852  0.1693
  584SOL    HW1 2536   0.947   0.909   1.971 -1.2912 -1.1226  0.0752
  584SOL    HW2 2537   0.821   0.929   1.888 -0.6597  0.7142 -0.4788
  585SOL     OW 2538   2.809   0.004   0.716 -0.0780 -0.7175  0.4650
  585SOL    HW1 2539   2.770   0.012   0.629 -2.3633  0.9295  1.5401
  585SOL    HW2 2540   2.902  -0.015   0.699 -0.0176  1.4135 -2.3711
  586SOL     OW 2541   2.091   1.459   0.936 -0.6538 -0.2940 -0.1516
  586SOL    HW1 2542   2.086   1.539   0.988 -0.9981  0.1906 -0.9295
  586SOL    HW2 2543   2.139   1.398   0.992  2.3223  1.3544 -0.6709
  587SOL     OW 2544   2.777   0.467   3.703 -0.5147  0.3654  0.4785
  587SOL    HW1 2545   2.811   0.378   3.710 -4.2469 -1.4397 -1.1963
  587SOL    HW2 2546   2.826   0.505   3.630  3.1088  0.8995  2.9612
  588SOL     OW 2547   1.593   0.423   1.227 -0.1134  0.6787  0.6609
  588SOL    HW1 2548   1.528   0.430   1.297  0.9736 -0.0478  1.7896
  588SOL    HW2 2549   1.634   0.510   1.225 -1.0692  1.1361 -0.0476
  589SOL     OW 2550   2.877   1.860   1.079 -0.1395  0.0180  0.6026
  589SOL    HW1 2551   2.951   1.838   1.022 -1.2051 -0.7844 -0.5264
  589SOL    HW2 2552   2.851   1.948   1.051  1.0775  0.8119  1.8102
  590SOL     OW 2553   1.292   2.076   0.243  0.0630  0.1059  0.0585
  590SOL    HW1 2554   1.214   2.037   0.283  0.7777  0.2409  1.6650
  590SOL    HW2 2555   1.332   2.005   0.193 -0.2938 -0.3721  0.4488
  591SOL     OW 2556   2.225   4.739   4.646  0.5532  0.3296 -0.5169
  591SOL    HW1 2557   2.133   4.735   4.672  0.0929  0.4467 -2.0226
  591SOL    HW2 2558   2.249   4.648   4.629 -0.1440  0.5020 -2.7904
  592SOL     OW 2559   2.225   0.897   1.622 -0.3227  0.1922  0.2540
  592SOL    HW1 2560   2.141   0.908   1.578 -1.2284 -0.1010  1.8149
  592SOL    HW2 2561   2.282   0.855   1.557 -1.3334  0.5455 -0.8795
  593SOL     OW 2562   1.932   3.555   1.060 -0.2150  0.0262  0.4446
  593SOL    HW1 2563   1.844   3.523   1.036 -1.2535  1.9091  1.5549
  593SOL    HW2 2564   1.917   3.616   1.131  1.7690  2.1890 -0.8645
  594SOL     OW 2565   1.000   0.611   0.508 -0.2464 -0.5313  0.0702
  594SOL    HW1 2566   0.966   0.555   0.578  2.4216 -3.1720 -0.5212
  594SOL    HW2 2567   1.029   0.691   0.553  0.7580 -1.8679  1.9399
  595SOL     OW 2568   3.064   2.042   1.615  0.0901 -0.1478  0.0510
  595SOL    HW1 2569   3.023   2.015   1.697  0.8658  0.1559  0.5440
  595SOL    HW2 2570   3.144   1.990   1.609  1.1231  1.3003  0.5498
  596SOL     OW 2571   2.694   4.079   1.155  0.1951  0.4829 -0.0567
  596SOL    HW1 2572   2.694   3.986   1.134  0.2871 -0.0719  2.2093
  596SOL    HW2 2573   2.604   4.098   1.180  0.5917  0.4990  1.4365
  597SOL     OW 2574   3.618   0.601   0.732 -0.1081 -0.2460 -0.6351
  597SOL    HW1 2575   3.615   0.511   0.699 -2.3069 -0.3522 -0.3173
  597SOL    HW2 2576   3.610   0.656   0.653 -0.9200 -0.4051 -0.6765
  598SOL     OW 2577   2.569   0.183   4.328  0.6009  0.5136  0.0723
  598SOL    HW1 2578   2.568   0.172   4.423  0.4772 -0.7640 -0.0643
  598SOL    HW2 2579   2.548   0.096   4.293 -1.0688  1.3287 -1.1121
  599SOL     OW 2580   3.196   0.709   0.772 -0.1531 -0.1712 -0.5135
  599SOL    HW1 2581   3.106   0.734   0.792  0.8388  2.9160  0.7633
  599SOL    HW2 2582   3.246   0.733   0.850  1.5181 -4.6042  0.0791
  600SOL     OW 2583   1.497   4.346   0.906  0.0477  0.0416 -0.2465
  600SOL    HW1 2584   1.463   4.264   0.941  0.6118  0.4472  1.3302
  600SOL    HW2 2585   1.503   4.332   0.811  0.0033 -1.6722 -0.0121
  601SOL     OW 2586   3.164   2.798   1.646  0.8994 -0.2786 -0.2924
  601SOL    HW1 2587   3.139   2.714   1.683 -0.5341  1.0266  1.9746
  601SOL    HW2 2588   3.174   2.855   1.722  1.4796  1.6951 -1.7624
  602SOL     OW 2589   1.054   2.032   4.947  0.1027  0.3144  0.4454
  602SOL    HW1 2590   1.047   2.019   5.041  4.1549  2.5691  1.3276
  602SOL    HW2 2591   1.079   1.946   4.912  1.1939  0.0026  1.9002
  603SOL     OW 2592   2.425   3.034   1.888 -0.2072  0.0480 -0.1353
  603SOL    HW1 2593   2.357   3.059   1.826  1.2417  1.5641 -1.2177
  603SOL    HW2 2594   2.451   3.116   1.930  0.1169 -0.6819  1.1282
  604SOL     OW 2595   2.724   3.754   4.769  0.0434  0.4590  0.2021
  604SOL    HW1 2596   2.734   3.670   4.813  1.2553  0.5352  0.0992
  604SOL    HW2 2597   2.806   3.767   4.722  0.4346  2.3237  1.2837
  605SOL     OW 2598   3.296   0.028   1.407  0.4427 -0.4696 -0.0480
  605SOL    HW1 2599   3.368   0.090   1.396  2.3394 -1.5522  4.1320
  605SOL    HW2 2600   3.276  -0.002   1.318  2.7876  2.3799 -1.7186
  606SOL     OW 2601   1.810   3.499   1.328 -0.2211  0.0508 -0.3212
  606SOL    HW1 2602   1.825   3.586   1.290  1.0581 -0.4403 -1.0106
  606SOL    HW2 2603   1.760   3.452   1.262  0.1334 -0.1074 -0.4839
  607SOL     OW 2604   2.952   2.106   0.663 -0.1146  0.5996  0.1612
  607SOL    HW1 2605   3.019   2.058   0.614  0.4749 -0.0860  1.5793
  607SOL    HW2 2606   2.896   2.038   0.699 -1.1344  1.1418 -0.3610
  608SOL     OW 2607   2.784   3.323   1.722  0.3594 -0.2738 -0.2502
  608SOL    HW1 2608   2.713   3.388   1.722  1.3518  1.0251 -3.5507
  608SOL    HW2 2609   2.759   3.261   1.654  2.8412  0.9152 -2.4065
  609SOL     OW 2610   2.048   4.328   0.188  0.1571 -0.2516  0.0051
  609SOL    HW1 2611   2.111   4.388   0.228  0.1298  1.3664 -2.2005
  609SOL    HW2 2612   2.080   4.316   0.099 -2.0897 -0.2045 -0.8622
  610SOL     OW 2613   2.358   3.745   1.591 -0.0305 -0.1736  0.2023
  610SOL    HW1 2614   2.303   3.711   1.662  0.3780 -1.6219 -0.1526
  610SOL    HW2 2615   2.302   3.810   1.548 -1.3145 -1.2513  0.1531
  611SOL     OW 2616   1.818   3.005   0.302  0.1735  0.5968 -0.1147
  611SOL    HW1 2617   1.911   2.987   0.289  1.3527  4.2932  1.6426
  611SOL    HW2 2618   1.808   3.014   0.397 -1.8342  0.8878 -0.3076
  612SOL     OW 2619   1.059   0.796   2.046 -0.5033 -0.3592 -0.2594
  612SOL    HW1 2620   1.131   0.755   1.999 -0.2842 -0.7108  0.3672
  612SOL    HW2 2621   1.088   0.886   2.062  1.8244 -1.5944  3.8972
  613SOL     OW 2622   2.821   0.083   2.228  0.1346 -0.3666 -0.0580
  613SOL    HW1 2623   2.872   0.038   2.295  0.6779 -0.8998 -0.8057
  613SOL    HW2 2624   2.875   0.158   2.202 -0.4010  0.2650  0.6021
  614SOL     OW 2625   2.016   1.674   4.613  0.1668  1.0099 -0.1974
  614SOL    HW1 2626   2.109   1.688   4.599  0.2525 -0.6638 -1.6991
  614SOL    HW2 2627   1.977   1.762   4.609  1.5974  1.6686 -0.1417
  615SOL     OW 2628   2.103   1.208   1.607 -0.0519 -0.4424  0.0799
  615SOL    HW1 2629   2.075   1.287   1.652  0.0636 -1.2224  1.5856
  615SOL    HW2 2630   2.193   1.193   1.637 -0.0680 -1.1327 -0.1945
  616SOL     OW 2631   1.115   1.308   1.989 -0.2906 -0.5490  0.1540
  616SOL    HW1 2632   1.056   1.359   2.046  0.2257 -1.4813  1.5735
  616SOL    HW2 2633   1.126   1.225   2.035 -0.0290 -1.4374 -1.4539
  617SOL     OW 2634   0.885   1.427   0.044  0.3265  0.2617  0.0583
  617SOL    HW1 2635   0.972   1.447   0.078  0.3932 -2.8921  2.1473
  617SOL    HW2 2636   0.827   1.442   0.119 -0.6567  0.4548 -0.7290
  618SOL     OW 2637   3.150   1.404   1.198 -0.0980  0.0922  0.0944
  618SOL    HW1 2638   3.148   1.430   1.106 -0.0468 -0.5022 -0.0807
  618SOL    HW2 2639   3.060   1.380   1.218  0.1224 -1.0685 -0.1955
  619SOL     OW 2640   1.732   0.128   0.918  0.5429  0.1231  0.1628
  619SOL    HW1 2641   1.669   0.102   0.985 -0.7707 -0.5374 -1.2610
  619SOL    HW2 2642   1.798   0.059   0.919  0.4448  0.0322  0.6563
  620SOL     OW 2643   2.766   2.747   0.183  0.4775  0.2935 -0.0416
  620SOL    HW1 2644   2.820   2.723   0.259  2.4316  2.5445 -0.5953
  620SOL    HW2 2645   2.705   2.812   0.215 -0.5208 -0.6804  0.1091
  621SOL     OW 2646   3.593   0.957   1.742 -0.0821  0.8495 -0.1098
  621SOL    HW1 2647   3.655   1.004   1.798 -0.7249 -1.6025  2.9339
  621SOL    HW2 2648   3.531   1.024   1.715 -1.1923  1.9504  4.3054
  622SOL     OW 2649   3.678   1.007   0.878  0.3826 -0.4307 -0.0579
  622SOL    HW1 2650   3.724   0.926   0.900  0.5815 -0.6786 -1.3007
  622SOL    HW2 2651   3.593   0.979   0.846 -1.4591  0.0967  3.8478
  623SOL     OW 2652   2.200   3.813   1.108  0.2179 -0.1121 -0.0808
  623SOL    HW1 2653   2.204   3.906   1.086  0.0643 -0.2171 -0.5490
  623SOL    HW2 2654   2.291   3.783   1.102  0.0838 -0.3157 -1.3443
  624SOL     OW 2655   3.353   0.387   4.881 -0.2392  0.0361 -0.0588
  624SOL    HW1 2656   3.410   0.322   4.840 -0.9988 -0.3417 -0.5380
  624SOL    HW2 2657   3.294   0.415   4.810 -1.8161 -0.8938  0.8503
  625SOL     OW 2658   2.378   2.363   0.325 -0.8285  0.1880  0.1200
  625SOL    HW1 2659   2.290   2.332   0.306 -0.8579 -0.0063  0.5704
  625SOL    HW2 2660   2.427   2.346   0.245 -1.0089 -0.3981  0.1295
  626SOL     OW 2661   2.587   0.180   4.601  0.1275  0.2214 -0.5574
  626SOL    HW1 2662   2.550   0.166   4.689  0.9565 -0.6996 -0.3329
  626SOL    HW2 2663   2.658   0.243   4.615  0.8820 -0.6410 -0.3801
  627SOL     OW 2664   1.866   1.925   4.665 -0.3055  0.0593 -0.8270
  627SOL    HW1 2665   1.843   1.900   4.754  0.3395  2.2174 -0.0017
  627SOL    HW2 2666   1.785   1.911   4.615 -0.3032 -2.4795 -0.2708
  628SOL     OW 2667   1.310   0.728   0.474  0.2929  0.1207  0.2806
  628SOL    HW1 2668   1.264   0.755   0.395  0.9407  1.5929  0.3588
  628SOL    HW2 2669   1.249   0.748   0.545  0.0554 -0.3728  0.2191
  629SOL     OW 2670   0.963   1.373   0.862  0.2515  0.6740 -0.7033
  629SOL    HW1 2671   0.924   1.297   0.819  0.8414  0.1056 -0.2631
  629SOL    HW2 2672   0.936   1.366   0.953  1.6545  0.0414 -0.2993
  630SOL     OW 2673   1.789   5.209   4.302 -0.2394  0.2079 -0.0870
  630SOL    HW1 2674   1.786   5.292   4.350 -1.9672  0.5471 -0.7296
  630SOL    HW2 2675   1.714   5.159   4.336  0.4028 -0.8445 -0.1684
  631SOL     OW 2676   2.790   2.712   1.363  0.2304  0.6143 -0.3203
  631SOL    HW1 2677   2.880   2.691   1.337  0.5432  1.2619  0.2158
  631SOL    HW2 2678   2.792   2.713   1.458 -1.0555 -2.3385 -0.1715
  632SOL     OW 2679   2.370   1.020   1.253 -0.0870  0.3265 -0.2283
  632SOL    HW1 2680   2.415   1.035   1.171  2.3160  1.1336  1.1424
  632SOL    HW2 2681   2.407   0.939   1.287 -0.6859  0.2701  0.3219
  633SOL     OW 2682   1.728   0.220   0.640  0.0382 -0.5571  0.0089
  633SOL    HW1 2683   1.730   0.183   0.728 -1.6276 -4.3694 -1.3526
  633SOL    HW2 2684   1.639   0.254   0.631  0.8321  1.7865  0.4025
  634SOL     OW 2685   2.439   5.206   4.290 -0.2489  0.9692 -0.3378
  634SOL    HW1 2686   2.492   5.133   4.321 -0.8363  1.5959  2.4076
  634SOL    HW2 2687   2.352   5.169   4.275 -0.1683  0.8179 -0.4263
  635SOL     OW 2688   1.852   3.751   0.630 -0.5333 -1.0370  0.4068
  635SOL    HW1 2689   1.912   3.723   0.562 -2.0916  1.0587 -1.9947
  635SOL    HW2 2690   1.907   3.762   0.708  1.4226 -2.8781 -0.6027
  636SOL     OW 2691   2.354   4.301   0.593 -0.2855  0.1850 -0.4961
  636SOL    HW1 2692   2.431   4.358   0.593 -1.5055  1.9335  0.7512
  636SOL    HW2 2693   2.377   4.230   0.652 -0.0622  1.4022  0.9531
  637SOL     OW 2694   1.651   1.641   4.668  0.2440  0.4991  0.6200
  637SOL    HW1 2695   1.738   1.674   4.693  0.0472  1.1153  0.4926
  637SOL    HW2 2696   1.592   1.676   4.734 -0.0336  0.7757  0.2261
  638SOL     OW 2697   3.004   2.102   0.167 -0.3404 -0.1681  0.0986
  638SOL    HW1 2698   2.968   2.036   0.227 -1.4291  0.6042  0.3206
  638SOL    HW2 2699   2.980   2.070   0.080  0.6792 -0.9603  0.0954
  639SOL     OW 2700   1.460   2.483   4.718  0.1825 -0.1237 -0.0288
  639SOL    HW1 2701   1.475   2.426   4.793 -1.5525  0.4216  0.7915
  639SOL    HW2 2702   1.435   2.424   4.647  0.9184 -0.5695  0.0818
  640SOL     OW 2703   2.633   4.294   0.339  0.0518  0.7880  0.0557
  640SOL    HW1 2704   2.624   4.220   0.399 -2.3251 -0.1586 -1.3161
  640SOL    HW2 2705   2.692   4.262   0.271  0.8410  0.9915  0.6392
  641SOL     OW 2706   3.400   0.345   0.748  0.2260 -0.5341  1.1651
  641SOL    HW1 2707   3.479   0.353   0.694 -0.7681  1.7620 -0.0918
  641SOL    HW2 2708   3.366   0.434   0.753 -2.6825 -1.5511  1.1217
  642SOL     OW 2709   2.665   1.003   1.554  0.2130 -0.1064  0.2302
  642SOL    HW1 2710   2.624   0.924   1.517  0.4876  0.8109 -2.1959
  642SOL    HW2 2711   2.629   1.075   1.503  3.1181  0.9375 -0.5414
  643SOL     OW 2712   3.277   1.053   0.660 -0.0823 -0.3069  0.9010
  643SOL    HW1 2713   3.198   1.018   0.700 -0.4102 -1.5906 -0.7699
  643SOL    HW2 2714   3.249   1.132   0.614 -1.1714 -2.3465 -2.2690
  644SOL     OW 2715   2.596   0.339   3.874  0.0450 -0.3662 -0.0711
  644SOL    HW1 2716   2.644   0.341   3.957  0.4540 -2.3034 -0.2075
  644SOL    HW2 2717   2.658   0.375   3.810  1.3678 -2.6091 -0.1997
  645SOL     OW 2718   3.485   0.992   0.187 -0.7578 -0.1164  0.0012
  645SOL    HW1 2719   3.471   1.054   0.259 -1.5264 -0.0503 -0.1877
  645SOL    HW2 2720   3.533   1.042   0.121 -1.4269  0.3088 -0.1743
  646SOL     OW 2721   2.248   0.089   4.805  0.5067 -0.5762 -0.2168
  646SOL    HW1 2722   2.199   0.037   4.742 -1.1468  0.1760  0.3826
  646SOL    HW2 2723   2.302   0.025   4.852  1.2952 -1.2215 -1.9171
  647SOL     OW 2724   3.177   1.057   5.147  1.0806 -0.3998  0.1385
  647SOL    HW1 2725   3.120   1.128   5.177  0.4747 -1.1102  0.7328
  647SOL    HW2 2726   3.184   0.999   5.223  0.6410 -1.5518 -0.6648
  648SOL     OW 2727   2.850   1.864   1.696 -0.0684  0.3526 -0.1220
  648SOL    HW1 2728   2.872   1.773   1.674  1.1756  0.2086  1.5368
  648SOL    HW2 2729   2.763   1.877   1.659 -1.1611 -2.1882  1.3041
  649SOL     OW 2730   2.528   2.625   1.587  0.2119  0.4642 -0.0228
  649SOL    HW1 2731   2.529   2.697   1.650 -4.1014 -0.7355  1.7803
  649SOL    HW2 2732   2.516   2.667   1.502 -2.0265  2.0176  0.9562
  650SOL     OW 2733   2.789   4.994   0.108  0.6050  0.7476  0.3772
  650SOL    HW1 2734   2.764   5.051   0.035 -0.3721  1.0810  0.9484
  650SOL    HW2 2735   2.749   5.035   0.185 -0.1734 -0.7305  0.7978
  651SOL     OW 2736   1.774   4.944   1.360  0.6325  0.6228 -0.7069
  651SOL    HW1 2737   1.815   4.937   1.274 -0.3765  2.5289 -1.3953
  651SOL    HW2 2738   1.680   4.941   1.343  0.4208 -0.5741  0.5197
  652SOL     OW 2739   2.290   3.017   4.719 -0.1040 -0.0608 -0.6319
  652SOL    HW1 2740   2.350   3.009   4.794  2.3669 -2.0809 -2.6641
  652SOL    HW2 2741   2.341   3.064   4.653 -1.3764 -0.4056 -1.8831
  653SOL     OW 2742   1.144   2.475   0.323  0.7386  0.7375  0.1230
  653SOL    HW1 2743   1.068   2.513   0.281  0.2182  1.5816  1.7514
  653SOL    HW2 2744   1.219   2.522   0.285  0.5126 -0.1426 -1.5288
  654SOL     OW 2745   2.540   3.557   0.563  0.7761 -0.4745  0.2811
  654SOL    HW1 2746   2.449   3.531   0.553  0.6272 -0.4433  1.3768
  654SOL    HW2 2747   2.553   3.627   0.498 -1.8970  4.2376  4.1164
  655SOL     OW 2748   3.958   0.343   1.803  0.3928  0.5485  0.2812
  655SOL    HW1 2749   3.893   0.356   1.872 -1.0981 -1.1752 -0.7235
  655SOL    HW2 2750   3.992   0.255   1.819 -0.0389  0.0926 -1.2155
  656SOL     OW 2751   2.721   2.684   4.323  0.5915  0.1524  0.9205
  656SOL    HW1 2752   2.667   2.606   4.336 -0.0946  0.6407  1.1015
  656SOL    HW2 2753   2.664   2.744   4.274  1.3049  0.3278  0.2940
  657SOL     OW 2754   3.244   5.205   1.153  0.4827  0.0428  0.1417
  657SOL    HW1 2755   3.224   5.115   1.129  1.9031  0.2431 -2.1061
  657SOL    HW2 2756   3.282   5.243   1.074 -3.3576  3.7173 -0.3340
  658SOL     OW 2757   3.185   0.910   0.124 -0.1186 -0.1480 -0.3770
  658SOL    HW1 2758   3.277   0.925   0.146  0.1726 -0.1608 -1.4979
  658SOL    HW2 2759   3.174   0.815   0.128 -0.4315 -0.0723  1.0002
  659SOL     OW 2760   1.537   1.126   5.117 -0.5731 -0.2739  0.2247
  659SOL    HW1 2761   1.618   1.173   5.101 -2.2911  1.7475 -4.2270
  659SOL    HW2 2762   1.561   1.034   5.111  1.3005  0.2695 -2.4671
  660SOL     OW 2763   3.061   2.507   5.148  0.1027 -0.9159  0.4165
  660SOL    HW1 2764   3.095   2.575   5.089 -1.3807  1.2687  1.9695
  660SOL    HW2 2765   2.993   2.550   5.199 -0.2456 -3.3390  2.1750
  661SOL     OW 2766   1.639   1.004   4.808  0.1435 -0.6166 -0.3046
  661SOL    HW1 2767   1.682   1.087   4.827 -2.7392  0.8549  0.3504
  661SOL    HW2 2768   1.667   0.945   4.878  0.0963  0.6695  0.8213
  662SOL     OW 2769   3.381   0.361   2.357  0.3586 -0.2592 -1.1419
  662SOL    HW1 2770   3.440   0.424   2.400  1.5163 -0.8906 -1.7703
  662SOL    HW2 2771   3.299   0.368   2.406  0.3265  2.0081 -1.4340
  663SOL     OW 2772   1.776   0.011   1.500 -0.2636 -0.1927  0.3446
  663SOL    HW1 2773   1.706  -0.001   1.564 -0.9794 -1.7688 -0.6920
  663SOL    HW2 2774   1.737   0.063   1.430  0.3701  1.0799  0.8942
  664SOL     OW 2775   1.278   0.060   0.865  0.3283  0.6760 -0.2781
  664SOL    HW1 2776   1.307   0.017   0.945  0.8846  0.1177 -0.7728
  664SOL    HW2 2777   1.342   0.034   0.799 -1.1679 -0.4733 -1.3677
  665SOL     OW 2778   3.167   2.172   1.095 -0.7899  0.7604 -0.7726
  665SOL    HW1 2779   3.260   2.157   1.108 -1.3242 -1.5483  1.1892
  665SOL    HW2 2780   3.136   2.206   1.179 -1.8757  0.3807 -0.9936
  666SOL     OW 2781   2.056   1.335   0.209  0.0004 -0.5137 -0.1089
  666SOL    HW1 2782   2.100   1.350   0.125  0.4914 -1.9131 -0.1252
  666SOL    HW2 2783   2.086   1.249   0.237 -0.2169 -0.1160  1.4817
  667SOL     OW 2784   2.089   0.481   1.763 -0.0350 -0.5677  0.8096
  667SOL    HW1 2785   2.167   0.533   1.784 -1.6042  1.4348  2.0113
  667SOL    HW2 2786   2.080   0.489   1.668 -0.5827  2.0061  1.0112
  668SOL     OW 2787   1.326   0.962   4.992  0.6468 -0.3726  0.5929
  668SOL    HW1 2788   1.388   1.029   4.961  1.5678 -1.9245 -1.1331
  668SOL    HW2 2789   1.284   0.930   4.912 -2.7727  0.8641  1.7161
  669SOL     OW 2790   1.021   1.720   4.949  0.1769 -0.1950  0.1616
  669SOL    HW1 2791   0.947   1.722   5.010 -2.0648  1.2106 -2.3768
  669SOL    HW2 2792   1.002   1.648   4.889  1.5072 -0.5635  0.1484
  670SOL     OW 2793   2.121   3.425   0.765  0.7510 -0.7716  0.9372
  670SOL    HW1 2794   2.063   3.384   0.701  2.0881 -1.0184 -0.1534
  670SOL    HW2 2795   2.104   3.377   0.846 -1.0198 -0.4025  0.8287
  671SOL     OW 2796   2.747   4.589   5.111  0.5614  0.5092 -0.0263
  671SOL    HW1 2797   2.688   4.517   5.134  2.2787 -1.3767 -1.1976
  671SOL    HW2 2798   2.689   4.662   5.089 -1.2377 -0.3524  1.5620
  672SOL     OW 2799   3.417   0.878   3.887  0.0139  0.1527  0.5160
  672SOL    HW1 2800   3.452   0.964   3.864 -0.4939  0.3342  0.4033
  672SOL    HW2 2801   3.342   0.866   3.829  0.1890 -0.4494  0.4006
  673SOL     OW 2802   2.512   1.756   4.483  0.0124  0.6708 -0.1722
  673SOL    HW1 2803   2.457   1.700   4.428 -0.3067  0.2881  0.5137
  673SOL    HW2 2804   2.593   1.706   4.495 -0.3392  0.2635  0.5813
  674SOL     OW 2805   1.099   1.461   4.741 -0.1648  0.2324  0.9465
  674SOL    HW1 2806   1.143   1.532   4.694 -1.2178  1.4668  1.7655
  674SOL    HW2 2807   1.166   1.393   4.749  0.1053 -0.0258 -2.2029
  675SOL     OW 2808   3.124   1.641   1.397  0.4516 -0.0360  0.5033
  675SOL    HW1 2809   3.138   1.555   1.359 -1.6266 -0.5007  0.6888
  675SOL    HW2 2810   3.180   1.642   1.475 -0.2919 -1.6260  1.0907
  676SOL     OW 2811   3.363   0.579   1.231 -0.0629  0.1001 -0.0414
  676SOL    HW1 2812   3.416   0.586   1.152 -0.9374 -1.2375 -0.7871
  676SOL    HW2 2813   3.318   0.663   1.238  1.4550  0.9290  0.1197
  677SOL     OW 2814   2.305   0.855   4.410  0.0403 -0.2551 -1.0010
  677SOL    HW1 2815   2.394   0.831   4.383  0.6254  2.2066 -1.4904
  677SOL    HW2 2816   2.313   0.875   4.503 -0.4502 -1.8554 -0.5876
  678SOL     OW 2817   1.564   1.335   0.034 -0.0716 -0.6206 -0.3999
  678SOL    HW1 2818   1.486   1.386   0.056 -0.0917 -1.4291  1.5997
  678SOL    HW2 2819   1.530   1.252   0.001 -0.0168 -0.0120 -2.1468
  679SOL     OW 2820   1.576   4.857   0.591  0.1567  0.6767  0.4982
  679SOL    HW1 2821   1.495   4.909   0.594  0.6575  1.4693  0.5220
  679SOL    HW2 2822   1.547   4.767   0.607 -1.2902  0.2670 -3.2885
  680SOL     OW 2823   2.311   4.215   0.049  0.1120  0.0736 -0.2762
  680SOL    HW1 2824   2.297   4.207   0.143 -0.0298 -3.5269 -0.4664
  680SOL    HW2 2825   2.406   4.219   0.040  0.3049 -2.2212  0.0238
  681SOL     OW 2826   2.293   4.979   2.130  0.7143  0.0930  0.1066
  681SOL    HW1 2827   2.282   5.007   2.039  2.2602 -1.9437 -0.7933
  681SOL    HW2 2828   2.384   5.002   2.151  1.2144 -1.7760  0.1906
  682SOL     OW 2829   2.024   5.141   1.727  0.1944 -0.2398 -0.0843
  682SOL    HW1 2830   1.994   5.080   1.794  0.9245 -1.4566 -0.8335
  682SOL    HW2 2831   2.075   5.206   1.774 -0.0705 -0.5566  0.6494
  683SOL     OW 2832   1.403   1.766   1.569 -0.4731  0.0442 -0.6626
  683SOL    HW1 2833   1.325   1.804   1.609 -2.4665 -0.6148 -3.6004
  683SOL    HW2 2834   1.424   1.825   1.496  1.2219 -0.2921 -0.4878
  684SOL     OW 2835   1.953   2.819   1.882  0.9281 -0.6413  1.2089
  684SOL    HW1 2836   1.918   2.905   1.862 -3.8043 -2.1200  1.8757
  684SOL    HW2 2837   1.998   2.830   1.966 -1.8505  0.8148  2.6320
  685SOL     OW 2838   2.454   1.194   1.438  0.2309 -0.0166 -0.6162
  685SOL    HW1 2839   2.422   1.141   1.365  0.5342 -3.5211  1.5996
  685SOL    HW2 2840   2.396   1.173   1.510 -0.0820  3.3789  0.3029
  686SOL     OW 2841   2.973   0.409   0.030 -0.1546  0.2659 -0.7190
  686SOL    HW1 2842   3.029   0.475  -0.010 -0.8668 -0.2551 -2.6729
  686SOL    HW2 2843   2.884   0.441   0.016 -0.4958 -0.9330 -1.4282
  687SOL     OW 2844   1.320   4.780   1.003 -0.5013 -0.6916  0.2894
  687SOL    HW1 2845   1.402   4.801   0.957 -0.1087  0.2753  1.3728
  687SOL    HW2 2846   1.251   4.798   0.939  0.0751 -0.2710 -0.2219
  688SOL     OW 2847   1.823   3.165   4.676  0.2820  0.1233  0.0995
  688SOL    HW1 2848   1.767   3.193   4.748 -0.1261 -0.3640 -0.0259
  688SOL    HW2 2849   1.769   3.105   4.625  0.8407 -0.1777 -0.1479
  689SOL     OW 2850   1.809   4.416   1.705  0.0065  0.2681 -0.6539
  689SOL    HW1 2851   1.877   4.349   1.699 -0.1272  0.2301 -2.6590
  689SOL    HW2 2852   1.856   4.496   1.728  0.7854  0.2404 -1.9912
  690SOL     OW 2853   1.767   3.132   1.143  0.0312 -0.0740 -0.1222
  690SOL    HW1 2854   1.816   3.056   1.174 -2.0135 -0.2688  3.1458
  690SOL    HW2 2855   1.683   3.096   1.114  0.3767  0.6305 -2.1703
  691SOL     OW 2856   1.081   1.026   0.936  0.3239  0.3741 -0.1540
  691SOL    HW1 2857   1.092   1.091   0.866  1.3222  0.9128  0.4774
  691SOL    HW2 2858   1.167   1.021   0.978  0.5181 -1.9324 -0.6577
  692SOL     OW 2859   2.576   1.386   1.191  0.0295  0.2291 -0.2255
  692SOL    HW1 2860   2.568   1.329   1.114  0.2351  3.3880 -2.7869
  692SOL    HW2 2861   2.512   1.351   1.253  0.9719 -3.4421 -1.0580
  693SOL     OW 2862   0.431   4.378   2.914  0.3791  0.1773  0.3788
  693SOL    HW1 2863   0.404   4.404   3.003 -2.2293  0.2473 -0.3432
  693SOL    HW2 2864   0.358   4.325   2.883  0.2225  1.8936 -2.4959
  694SOL     OW 2865   1.054   1.072   0.650 -0.4055 -0.2496 -0.6358
  694SOL    HW1 2866   0.991   1.042   0.584  0.7083  0.5676 -2.1537
  694SOL    HW2 2867   1.111   1.132   0.602  1.0524 -0.3716  0.8678
  695SOL     OW 2868   1.358   1.273   4.869 -0.2409  0.2508  0.1160
  695SOL    HW1 2869   1.407   1.285   4.788  0.0484  1.8824  0.5024
  695SOL    HW2 2870   1.308   1.192   4.855 -0.3127  0.5799 -1.7388
  696SOL     OW 2871   2.774   0.598   1.327  0.2020  0.3473  0.1821
  696SOL    HW1 2872   2.777   0.526   1.389 -0.2137  0.5592  0.4572
  696SOL    HW2 2873   2.841   0.577   1.262 -0.3768 -0.6237 -0.1202
  697SOL     OW 2874   1.777   5.004   0.709 -0.0788 -0.0643  0.0668
  697SOL    HW1 2875   1.815   4.959   0.633  0.5199 -0.2572  0.4674
  697SOL    HW2 2876   1.696   4.957   0.726  1.1377 -1.8618  1.2477
  698SOL     OW 2877   1.991   5.114   0.218 -0.4020  0.2398 -0.6512
  698SOL    HW1 2878   1.981   5.194   0.269 -0.3668  0.8630 -1.5788
  698SOL    HW2 2879   1.943   5.131   0.137  1.2601  0.1279 -1.7247
  699SOL     OW 2880   3.477   1.131   4.598  0.4636  0.5206 -0.3783
  699SOL    HW1 2881   3.413   1.156   4.665  1.6876  5.7573 -0.7702
  699SOL    HW2 2882   3.507   1.044   4.626 -1.8984  0.7018  3.5987
  700SOL     OW 2883   2.993   1.804   4.082  0.2286 -0.7809  0.4106
  700SOL    HW1 2884   2.921   1.749   4.114  0.0114 -1.2906 -0.8850
  700SOL    HW2 2885   2.980   1.888   4.125 -2.1308 -0.3374 -0.9833
  701SOL     OW 2886   3.188   2.637   0.642  0.4121  0.2159  0.0497
  701SOL    HW1 2887   3.273   2.666   0.609  0.7799 -0.6580  0.2102
  701SOL    HW2 2888   3.167   2.700   0.712  0.0554  1.5204 -1.1880
  702SOL     OW 2889   1.123   1.855   0.291 -0.2036 -0.4639  0.2074
  702SOL    HW1 2890   1.158   1.818   0.210  0.5453  0.3222  0.1617
  702SOL    HW2 2891   1.186   1.832   0.358  1.2242  2.1087 -0.1023
  703SOL     OW 2892   3.462   5.271   0.650  0.1557  0.3316 -0.1694
  703SOL    HW1 2893   3.544   5.320   0.661 -0.5616  1.1834  2.0029
  703SOL    HW2 2894   3.420   5.276   0.736 -2.5906  0.6635 -1.4405
  704SOL     OW 2895   2.567   0.156   3.591 -0.0766 -0.5230 -0.4540
  704SOL    HW1 2896   2.487   0.129   3.546 -1.7196  0.8671  1.4450
  704SOL    HW2 2897   2.539   0.226   3.649  3.0775  2.1870 -1.8572
  705SOL     OW 2898   2.540   1.877   5.022  0.6376 -0.1872  0.4654
  705SOL    HW1 2899   2.502   1.819   4.955  1.1632  1.6546 -1.5573
  705SOL    HW2 2900   2.634   1.876   5.004  0.6299  1.4943  0.1308
  706SOL     OW 2901   2.304   3.146   0.844  0.2467  0.7142 -0.3413
  706SOL    HW1 2902   2.264   3.101   0.769 -1.4902 -0.9653  1.4813
  706SOL    HW2 2903   2.273   3.236   0.838 -0.6554  0.3659 -1.0863
  707SOL     OW 2904   3.561   0.854   5.196 -0.2392 -0.7665 -0.3479
  707SOL    HW1 2905   3.548   0.913   5.121 -3.4287  0.5143  1.0396
  707SOL    HW2 2906   3.623   0.901   5.252  0.2969 -0.6104 -1.0506
  708SOL     OW 2907   1.951   2.834   1.214 -0.2686 -0.5451 -0.0272
  708SOL    HW1 2908   1.983   2.867   1.130  2.5769 -0.8318  0.8267
  708SOL    HW2 2909   1.914   2.748   1.194  2.1976 -1.5079 -0.7735
  709SOL     OW 2910   2.446   3.357   4.944 -0.2362 -0.4826  0.8569
  709SOL    HW1 2911   2.424   3.265   4.933 -1.3080 -0.3315  1.5607
  709SOL    HW2 2912   2.506   3.360   5.018 -0.3779 -0.5990  0.9762
  710SOL     OW 2913   2.826   2.080   4.760  0.0138 -0.7333  0.8601
  710SOL    HW1 2914   2.847   2.025   4.684 -2.5444 -1.6163  0.6709
  710SOL    HW2 2915   2.762   2.143   4.727 -0.6776 -0.7310  2.1291
  711SOL     OW 2916   2.503   3.252   5.211  0.3652  0.7889  0.5498
  711SOL    HW1 2917   2.542   3.281   5.293 -0.7913  2.8642  0.4116
  711SOL    HW2 2918   2.434   3.191   5.238  1.3591 -0.2059  0.9571
  712SOL     OW 2919   3.015   4.285   5.196 -0.0782  0.0995  0.2851
  712SOL    HW1 2920   2.997   4.378   5.210 -2.0308 -0.2618  0.4716
  712SOL    HW2 2921   3.105   4.273   5.225  0.3407  1.9990 -0.1201
  713SOL     OW 2922   2.755   3.349   0.670  0.0767  0.0865  0.4145
  713SOL    HW1 2923   2.759   3.374   0.762  1.6591 -0.0995  0.4260
  713SOL    HW2 2924   2.704   3.418   0.628  1.2624  1.4146  1.0595
  714SOL     OW 2925   3.395   2.431   0.437 -0.6762 -0.4839  0.3208
  714SOL    HW1 2926   3.437   2.346   0.427 -0.1189  0.0093 -2.0179
  714SOL    HW2 2927   3.302   2.410   0.452 -1.1262 -1.6024 -3.0993
  715SOL     OW 2928   1.163   0.705   0.261  0.2207 -0.2547  0.0029
  715SOL    HW1 2929   1.097   0.726   0.195 -1.3387 -1.2731  1.1322
  715SOL    HW2 2930   1.124   0.632   0.310  1.4197  0.2801  1.8426
  716SOL     OW 2931   3.727   0.206   2.042 -0.4577 -0.2369 -0.3205
  716SOL    HW1 2932   3.733   0.301   2.042 -1.2327 -0.1827  0.1194
  716SOL    HW2 2933   3.745   0.181   1.951  2.0452  0.1448  0.0098
  717SOL     OW 2934   3.056   1.539   5.126 -0.1342  0.3199  0.2138
  717SOL    HW1 2935   2.992   1.609   5.116 -0.7414  0.0734  2.0395
  717SOL    HW2 2936   3.022   1.467   5.072 -1.4464  0.1864  1.1596
  718SOL     OW 2937   2.333   4.581   5.198  0.4198 -0.1751 -0.0095
  718SOL    HW1 2938   2.277   4.643   5.245 -1.1572 -1.2740 -0.3395
  718SOL    HW2 2939   2.403   4.635   5.162 -0.5637  1.3343  0.2125
  719SOL     OW 2940   1.324   5.041   0.641 -0.3319 -0.0290 -0.4700
  719SOL    HW1 2941   1.363   5.121   0.674  1.2776 -0.1802 -1.8914
  719SOL    HW2 2942   1.266   5.070   0.570  1.1012 -0.1586 -1.7378
  720SOL     OW 2943   3.131   1.489   4.758  0.4564 -0.6826 -0.5037
  720SOL    HW1 2944   3.058   1.530   4.804  0.0276 -0.7278 -1.1360
  720SOL    HW2 2945   3.202   1.553   4.764  0.8413 -1.2272  1.3547
  721SOL     OW 2946   2.403   4.537   1.358  0.0566  0.4530  0.3979
  721SOL    HW1 2947   2.364   4.531   1.445  1.2032 -0.1208  0.8934
  721SOL    HW2 2948   2.451   4.455   1.347 -1.9604 -0.5809 -1.7541
  722SOL     OW 2949   3.234   2.296   0.145  0.0484  0.4793 -0.3076
  722SOL    HW1 2950   3.168   2.228   0.135 -0.7055  1.5376 -3.8755
  722SOL    HW2 2951   3.316   2.248   0.156 -0.8211 -0.9209  0.3643
  723SOL     OW 2952   3.492   3.489   0.860  0.5612 -0.2021 -0.4241
  723SOL    HW1 2953   3.545   3.426   0.910 -0.0928 -0.8137 -0.4769
  723SOL    HW2 2954   3.543   3.506   0.781  1.6247  0.7931  0.4267
  724SOL     OW 2955   1.173   0.355   4.196  0.9820  0.4304 -0.0771
  724SOL    HW1 2956   1.257   0.394   4.173  1.2749  0.0402  0.3202
  724SOL    HW2 2957   1.108   0.418   4.166  1.4030  0.5643 -0.7289
  725SOL     OW 2958   2.309   5.040   4.626 -0.1194  1.0483  0.0817
  725SOL    HW1 2959   2.253   4.965   4.606  2.2310 -0.9066  0.3161
  725SOL    HW2 2960   2.253   5.117   4.615 -2.4220 -0.6918 -0.9583
  726SOL     OW 2961   2.598   5.280   5.032 -0.5289 -0.8601  0.2461
  726SOL    HW1 2962   2.605   5.235   4.948 -2.2444 -2.5026  0.9320
  726SOL    HW2 2963   2.539   5.354   5.015 -0.0258 -0.5542 -0.2104
  727SOL     OW 2964   3.045   0.676   5.204 -0.7939 -1.2222  0.0565
  727SOL    HW1 2965   2.968   0.731   5.190 -0.8696 -0.3968  3.0976
  727SOL    HW2 2966   3.118   0.730   5.175 -0.9970  0.0067  1.6705
  728SOL     OW 2967   2.922   0.588   4.147 -0.6986  0.0216  0.4147
  728SOL    HW1 2968   2.948   0.602   4.056 -3.6959  0.4526 -0.5017
  728SOL    HW2 2969   2.956   0.501   4.168 -0.5182 -0.3835 -1.3730
  729SOL     OW 2970   1.493   1.528   1.817 -0.0775 -0.1827 -0.3659
  729SOL    HW1 2971   1.530   1.551   1.732 -1.7790 -1.7288 -1.6170
  729SOL    HW2 2972   1.403   1.502   1.797 -1.3400  1.7354  2.2671
  730SOL     OW 2973   2.116   2.054   4.705 -0.5066  0.2276 -0.5576
  730SOL    HW1 2974   2.041   1.995   4.705  0.7734 -1.6823 -3.7058
  730SOL    HW2 2975   2.115   2.096   4.791 -4.2266 -0.8442  0.0788
  731SOL     OW 2976   3.042   5.035   1.026  0.5506  0.6216 -0.1022
  731SOL    HW1 2977   2.965   4.986   1.056 -0.6318  1.2954 -1.8721
  731SOL    HW2 2978   3.077   4.982   0.954  0.8770  1.0219 -0.2427
  732SOL     OW 2979   1.722   3.386   0.608 -1.2259  0.4024  0.1268
  732SOL    HW1 2980   1.708   3.426   0.694  1.2488 -2.2961  1.9983
  732SOL    HW2 2981   1.690   3.297   0.617 -0.3182 -0.1429 -1.5239
  733SOL     OW 2982   2.605   1.056   4.225 -0.3635 -0.4327 -0.1527
  733SOL    HW1 2983   2.652   1.033   4.145  0.3466 -2.0284  0.6789
  733SOL    HW2 2984   2.600   0.975   4.275 -2.0053  0.2178  0.8348
  734SOL     OW 2985   2.768   1.576   1.151  0.2931  0.1579 -0.0696
  734SOL    HW1 2986   2.702   1.527   1.199 -0.1968  0.1077 -0.7802
  734SOL    HW2 2987   2.805   1.512   1.089  0.8379  0.2473  0.1611
  735SOL     OW 2988   1.473   2.253   4.846 -0.5754  0.1710  0.5105
  735SOL    HW1 2989   1.442   2.180   4.900 -0.6853 -1.2440 -1.3519
  735SOL    HW2 2990   1.423   2.245   4.765  0.7885  1.1608 -0.4632
  736SOL     OW 2991   1.808   0.147   4.514 -0.6168  0.3110  0.6451
  736SOL    HW1 2992   1.723   0.102   4.514 -0.6995  0.3895 -1.0730
  736SOL    HW2 2993   1.787   0.238   4.535 -1.0124  0.3813 -0.0014
  737SOL     OW 2994   2.604   2.982   0.647 -0.4858 -0.1443  0.1970
  737SOL    HW1 2995   2.538   2.990   0.716 -0.0397  1.8056  0.4574
  737SOL    HW2 2996   2.589   2.895   0.610 -3.9708  0.6161 -0.5285
  738SOL     OW 2997   2.114   2.362   1.698  0.3286  0.3892  0.3533
  738SOL    HW1 2998   2.148   2.412   1.624  0.6361 -1.7496 -1.0391
  738SOL    HW2 2999   2.130   2.418   1.774  0.4712  2.4462 -1.1055
  739SOL     OW 3000   2.265   2.357   5.244  0.1028  0.1184 -0.4386
  739SOL    HW1 3001   2.359   2.377   5.246  0.3314 -0.8185  1.8985
  739SOL    HW2 3002   2.222   2.437   5.275  0.3511 -0.1356  0.6274
  740SOL     OW 3003   3.648   0.778   1.059 -0.8269 -1.1248  0.4081
  740SOL    HW1 3004   3.671   0.719   1.130 -1.2788 -2.7883 -0.7707
  740SOL    HW2 3005   3.702   0.856   1.074 -0.5338 -1.6395  2.2452
  741SOL     OW 3006   3.693   0.894   4.089  0.1291 -0.5664 -0.3913
  741SOL    HW1 3007   3.667   0.822   4.030  0.8021 -0.1272 -1.2376
  741SOL    HW2 3008   3.714   0.850   4.171  0.2523 -1.3196 -0.8111
  742SOL     OW 3009   3.381   1.880   1.214  0.1111  0.5041 -0.2655
  742SOL    HW1 3010   3.286   1.886   1.229  0.1470 -1.5850  1.1919
  742SOL    HW2 3011   3.397   1.787   1.199  2.0481  0.7150  0.2748
  743SOL     OW 3012   2.004   4.689   0.826  0.2155 -0.6769  0.3037
  743SOL    HW1 3013   2.049   4.752   0.770 -0.1308  0.2713  1.0478
  743SOL    HW2 3014   1.989   4.737   0.908  0.1104 -1.7980  0.9620
  744SOL     OW 3015   2.998   3.825   0.664 -0.9621  0.3195  0.4759
  744SOL    HW1 3016   2.926   3.886   0.679 -0.9231  0.6927 -0.8005
  744SOL    HW2 3017   2.964   3.761   0.602 -1.3787 -1.6729  2.6184
  745SOL     OW 3018   2.309   2.042   1.705  0.5840 -0.1082  0.1541
  745SOL    HW1 3019   2.401   2.059   1.685  0.4280  0.7709  0.1311
  745SOL    HW2 3020   2.271   2.129   1.718  0.0908 -0.5236  1.6843
  746SOL     OW 3021   3.112   0.860   4.191  0.1074 -0.5916 -0.2975
  746SOL    HW1 3022   3.035   0.806   4.208  1.3686 -2.2513  0.5072
  746SOL    HW2 3023   3.129   0.905   4.274 -0.4651  0.4332 -0.7245
  747SOL     OW 3024   1.857   1.880   1.249 -0.2340  0.0200  0.6290
  747SOL    HW1 3025   1.769   1.871   1.285 -0.5000  2.5210  0.7955
  747SOL    HW2 3026   1.914   1.878   1.326 -0.2859 -0.0868  0.6646
  748SOL     OW 3027   1.865   0.949   1.295  0.0840 -0.7868 -0.5294
  748SOL    HW1 3028   1.944   0.942   1.349 -1.2389 -2.5385  1.3385
  748SOL    HW2 3029   1.897   0.966   1.207  2.3762  2.7422  0.7753
  749SOL     OW 3030   1.587   2.051   1.685 -0.0534 -0.5723 -0.7378
  749SOL    HW1 3031   1.644   2.046   1.762 -2.4485  0.3078  1.2307
  749SOL    HW2 3032   1.615   2.131   1.640  0.7344 -0.5600 -0.2463
  750SOL     OW 3033   3.586   1.524   1.292  0.4446  0.2693 -0.3840
  750SOL    HW1 3034   3.544   1.557   1.213  5.4230  1.3739 -2.9340
  750SOL    HW2 3035   3.596   1.430   1.277  0.8525  0.3810 -0.8418
  751SOL     OW 3036   1.844   5.138   0.939 -0.3300 -0.4325  0.3033
  751SOL    HW1 3037   1.820   5.067   0.880 -0.2601  1.4359 -2.1343
  751SOL    HW2 3038   1.890   5.095   1.011 -2.8080 -3.1172  0.4498
  752SOL     OW 3039   1.084   0.718   0.927 -0.1973  0.2660 -0.8566
  752SOL    HW1 3040   1.092   0.683   1.016  0.6004  1.7963 -0.2867
  752SOL    HW2 3041   1.054   0.808   0.939  0.1341  0.5684 -2.1210
  753SOL     OW 3042   3.152   2.940   1.024 -0.1103  0.5682  0.3420
  753SOL    HW1 3043   3.128   2.880   1.095 -0.4241  0.1901 -0.0835
  753SOL    HW2 3044   3.134   2.891   0.944  0.3911  0.9367 -0.0028
  754SOL     OW 3045   2.202   4.123   0.745  0.5822 -0.3426  0.1709
  754SOL    HW1 3046   2.207   4.082   0.659  0.2373  1.3719 -0.7099
  754SOL    HW2 3047   2.127   4.182   0.739 -0.3679 -1.2695  2.1520
  755SOL     OW 3048   2.143   5.141   4.248  0.7911 -0.4838 -0.4550
  755SOL    HW1 3049   2.161   5.059   4.294  1.9025  1.4535  2.8960
  755SOL    HW2 3050   2.056   5.167   4.279  0.7687 -0.0172 -0.8982
  756SOL     OW 3051   3.118   2.251   5.059 -0.0082 -0.0224 -0.0140
  756SOL    HW1 3052   3.202   2.212   5.080  0.1903  0.6706  0.5055
  756SOL    HW2 3053   3.115   2.332   5.110 -0.9671 -0.0116 -0.0599
  757SOL     OW 3054   2.530   4.435   5.141 -0.0981 -0.5228  0.6013
  757SOL    HW1 3055   2.482   4.369   5.091 -1.5682  1.2877 -0.5218
  757SOL    HW2 3056   2.465   4.474   5.199 -0.2158  2.2068 -1.1697
  758SOL     OW 3057   3.210   0.349   5.119  0.6988 -0.3783 -1.9462
  758SOL    HW1 3058   3.251   0.384   5.040  3.5419  1.0710 -0.0055
  758SOL    HW2 3059   3.221   0.418   5.185  1.1708 -2.5997  0.4852
  759SOL     OW 3060   2.516   3.444   1.682  0.3974 -0.0133  0.2387
  759SOL    HW1 3061   2.525   3.489   1.598 -2.8293  0.3140 -0.0741
  759SOL    HW2 3062   2.452   3.496   1.730  3.3667  0.7752  3.7356
  760SOL     OW 3063   3.011   4.551   5.201 -0.2575  0.1237  0.5414
  760SOL    HW1 3064   2.929   4.526   5.160 -0.4169 -0.7734  1.3877
  760SOL    HW2 3065   3.002   4.646   5.215 -1.1894  0.0164  0.7364
  761SOL     OW 3066   2.430   0.572   4.266  0.2975 -0.1527 -0.2146
  761SOL    HW1 3067   2.358   0.514   4.292  1.4672 -3.1996 -2.9475
  761SOL    HW2 3068   2.388   0.639   4.213 -0.8908  0.3220  1.2556
  762SOL     OW 3069   2.760   4.715   0.948  0.1958 -0.7176  0.2533
  762SOL    HW1 3070   2.673   4.678   0.965  0.4160 -0.8478  1.1000
  762SOL    HW2 3071   2.768   4.712   0.852 -0.0361 -2.3174  0.2515
  763SOL     OW 3072   2.182   5.257   5.106 -0.5460  0.5115 -0.5129
  763SOL    HW1 3073   2.124   5.231   5.035  0.7817 -0.4017 -1.2928
  763SOL    HW2 3074   2.252   5.192   5.106  0.0211  1.0693  0.9782
  764SOL     OW 3075   2.733   1.412   4.941 -0.4267  0.5916 -0.5260
  764SOL    HW1 3076   2.715   1.378   5.029  0.5545 -0.8962 -0.8754
  764SOL    HW2 3077   2.648   1.415   4.898 -0.7806  0.4047  0.1535
  765SOL     OW 3078   1.380   2.023   4.654  0.6866  0.2872  0.4001
  765SOL    HW1 3079   1.434   1.986   4.585  1.2843 -0.0724  1.0479
  765SOL    HW2 3080   1.338   1.947   4.694  1.0839  0.4001  1.0459
  766SOL     OW 3081   1.053   1.751   1.656 -0.1362 -0.4056 -0.2355
  766SOL    HW1 3082   1.127   1.812   1.657 -0.2928 -0.1905  1.6253
  766SOL    HW2 3083   0.976   1.806   1.672 -0.3602 -0.9768  0.7444
  767SOL     OW 3084   3.022   5.116   0.356 -0.6202 -0.9439 -0.4975
  767SOL    HW1 3085   2.928   5.101   0.348 -0.9622  1.5933 -2.6320
  767SOL    HW2 3086   3.030   5.186   0.421 -0.0612 -1.8852  0.4889
  768SOL     OW 3087   1.425   0.605   5.279  0.5738  1.0207  0.1080
  768SOL    HW1 3088   1.377   0.688   5.288 -1.0271  0.3400 -1.6288
  768SOL    HW2 3089   1.394   0.552   5.352 -1.9556  0.3511 -1.3497
  769SOL     OW 3090   3.178   1.688   0.128  0.3329 -0.0547 -0.1511
  769SOL    HW1 3091   3.226   1.609   0.155  2.5171  0.8139 -1.1732
  769SOL    HW2 3092   3.220   1.713   0.045 -4.6873 -1.5218 -3.5683
  770SOL     OW 3093   2.682   3.921   0.208  0.4786 -0.2700 -0.3146
  770SOL    HW1 3094   2.623   3.991   0.179  3.2582  1.7054 -1.6735
  770SOL    HW2 3095   2.735   3.901   0.131 -0.8045 -4.7570 -0.3157
  771SOL     OW 3096   2.073   2.666   4.913 -0.4650  0.2611  0.6716
  771SOL    HW1 3097   2.026   2.584   4.903 -0.2930  0.3082 -0.6610
  771SOL    HW2 3098   2.022   2.730   4.864  0.6794  0.4217 -0.3597
  772SOL     OW 3099   2.576   0.214   2.638 -0.3237  1.3470  0.1725
  772SOL    HW1 3100   2.558   0.180   2.725 -1.7580  0.9981 -0.2324
  772SOL    HW2 3101   2.561   0.308   2.645 -3.2910  1.0293 -0.2854
  773SOL     OW 3102   2.386   2.627   0.343 -0.2622 -0.0404 -0.3033
  773SOL    HW1 3103   2.472   2.642   0.381 -0.0782 -0.0866 -0.6974
  773SOL    HW2 3104   2.370   2.533   0.355 -1.6664  0.4673  2.6940
  774SOL     OW 3105   2.568   3.131   1.068  0.3846 -0.1579  0.5365
  774SOL    HW1 3106   2.512   3.189   1.119  1.1552  0.9235  0.1940
  774SOL    HW2 3107   2.513   3.103   0.995  0.0949  0.4248  0.5226
  775SOL     OW 3108   1.231   0.885   1.848 -0.4208 -0.4233 -0.5463
  775SOL    HW1 3109   1.303   0.929   1.803 -0.4129  1.6452  1.3174
  775SOL    HW2 3110   1.155   0.942   1.833 -0.2564  0.7992  2.5255
  776SOL     OW 3111   3.021   1.004   1.102  0.2771  0.1763  0.2896
  776SOL    HW1 3112   3.056   0.940   1.163  0.3203 -1.2334 -1.1663
  776SOL    HW2 3113   2.926   0.992   1.106  0.1822  1.0569  1.0822
  777SOL     OW 3114   1.316   4.710   1.260 -0.0921 -0.0253  0.0604
  777SOL    HW1 3115   1.304   4.744   1.171 -0.4893  1.0855  0.5347
  777SOL    HW2 3116   1.411   4.709   1.273  0.2345 -3.1363 -1.4770
  778SOL     OW 3117   1.070   2.036   1.288  0.1532  0.0217  0.2051
  778SOL    HW1 3118   1.004   2.026   1.357  0.7910 -0.6705  0.7332
  778SOL    HW2 3119   1.094   2.129   1.291  1.0895 -0.2285  1.8096
  779SOL     OW 3120   1.876   0.599   4.761  0.3117  0.3878  0.1855
  779SOL    HW1 3121   1.801   0.649   4.731  0.9605  0.8103 -0.7764
  779SOL    HW2 3122   1.951   0.656   4.745  0.8118  0.1158  1.4645
  780SOL     OW 3123   3.503   4.483   4.946 -0.6998 -0.7166 -0.5732
  780SOL    HW1 3124   3.441   4.555   4.956  1.4381  1.1268  0.1116
  780SOL    HW2 3125   3.582   4.512   4.992 -0.0860 -3.9768  0.6653
  781SOL     OW 3126   1.952   0.026   0.422 -0.1100  0.0873  0.2933
  781SOL    HW1 3127   1.992  -0.012   0.501  2.0109  1.7996  0.1510
  781SOL    HW2 3128   2.003   0.105   0.405 -0.2873 -0.3423 -2.9706
  782SOL     OW 3129   1.524   0.067   1.855 -0.1345 -0.2134  0.0316
  782SOL    HW1 3130   1.511   0.127   1.929 -0.6915 -3.2686  2.6487
  782SOL    HW2 3131   1.604   0.019   1.878 -0.0049 -0.8544 -1.6692
  783SOL     OW 3132   2.112   4.891   0.649 -0.1745  0.2350  0.3331
  783SOL    HW1 3133   2.185   4.950   0.630  0.0795  0.5381  2.0764
  783SOL    HW2 3134   2.054   4.899   0.573  1.5222  0.0626 -1.0439
  784SOL     OW 3135   2.523   4.140   5.006  0.0379  0.5708  0.3250
  784SOL    HW1 3136   2.506   4.056   4.963 -0.4941 -0.4067  2.3134
  784SOL    HW2 3137   2.437   4.173   5.030  0.3535 -0.7213  3.7733
  785SOL     OW 3138   2.397   4.325   1.057  0.9170  0.1107  0.7369
  785SOL    HW1 3139   2.481   4.319   1.010  1.2585  1.4426  1.1204
  785SOL    HW2 3140   2.339   4.371   0.996  0.3549 -1.0951  0.3461
  786SOL     OW 3141   3.255   0.856   1.283 -0.1249 -0.5858  0.2720
  786SOL    HW1 3142   3.308   0.930   1.312  0.2575 -1.1255  0.9847
  786SOL    HW2 3143   3.226   0.881   1.195 -2.6429  1.8258  1.6279
  787SOL     OW 3144   3.394   0.662   4.470 -0.2946 -0.6151  0.1740
  787SOL    HW1 3145   3.358   0.711   4.396  0.5834 -0.7804 -0.3772
  787SOL    HW2 3146   3.364   0.573   4.456  0.9871 -0.9297 -0.7558
  788SOL     OW 3147   2.194   2.755   0.501 -0.3330  0.2901 -0.4337
  788SOL    HW1 3148   2.263   2.693   0.476  0.4931  1.1008 -0.2032
  788SOL    HW2 3149   2.146   2.771   0.419 -0.6581 -0.7613 -0.4623
  789SOL     OW 3150   1.796   0.420   1.488 -0.9054  0.2393 -0.0607
  789SOL    HW1 3151   1.738   0.431   1.563 -4.1693 -1.6725 -2.0346
  789SOL    HW2 3152   1.843   0.339   1.505 -0.7029  0.4529  0.4209
  790SOL     OW 3153   2.829   1.905   4.974 -0.6205  0.3947 -0.1186
  790SOL    HW1 3154   2.846   1.823   4.926 -0.7107 -0.6283  1.5175
  790SOL    HW2 3155   2.810   1.969   4.906  1.0404 -0.5531 -1.5445
  791SOL     OW 3156   1.303   1.722   0.459 -0.0924  0.4446  0.4386
  791SOL    HW1 3157   1.233   1.777   0.496  3.5421  4.5592  2.0949
  791SOL    HW2 3158   1.350   1.689   0.535  2.8742  2.4345 -0.3539
  792SOL     OW 3159   2.759   1.880   1.376 -0.3696 -0.5480  0.5467
  792SOL    HW1 3160   2.673   1.874   1.334  0.7306  0.1097 -1.9961
  792SOL    HW2 3161   2.772   1.974   1.390  0.3619 -0.5607 -0.0416
  793SOL     OW 3162   2.851   2.898   1.763  0.3988  0.0447 -0.4460
  793SOL    HW1 3163   2.899   2.815   1.760  2.2557  1.0494 -4.0279
  793SOL    HW2 3164   2.918   2.964   1.779 -0.8450  1.0125  0.9868
  794SOL     OW 3165   1.595   0.943   4.542 -0.1791 -0.4259  0.3398
  794SOL    HW1 3166   1.663   0.881   4.515 -0.4158 -0.7879  0.5547
  794SOL    HW2 3167   1.601   0.944   4.638  0.9312  1.1588  0.2922
  795SOL     OW 3168   2.805   1.732   4.249 -0.4568  0.8376 -0.4222
  795SOL    HW1 3169   2.831   1.657   4.302  2.6743 -0.4743 -3.4407
  795SOL    HW2 3170   2.726   1.703   4.204  0.0510 -0.2396 -0.6591
  796SOL     OW 3171   2.244   2.207   5.020 -0.2020  0.7569 -0.0261
  796SOL    HW1 3172   2.335   2.177   5.021 -1.6617 -4.8002  2.1872
  796SOL    HW2 3173   2.238   2.266   5.096  1.4100  1.0382 -0.0694
  797SOL     OW 3174   2.064   3.170   4.856  0.1590 -0.8607  0.4768
  797SOL    HW1 3175   2.019   3.234   4.910 -2.7959 -1.5506 -0.9866
  797SOL    HW2 3176   2.115   3.118   4.918  1.3991  1.7895  1.8676
  798SOL     OW 3177   2.055   0.749   4.453 -0.7075 -0.0222  0.2553
  798SOL    HW1 3178   2.138   0.795   4.439 -0.8993  0.3880  0.4567
  798SOL    HW2 3179   2.061   0.672   4.397 -1.9198  2.1029 -3.0810
  799SOL     OW 3180   0.885   1.273   0.528  0.1455 -0.0036  0.4821
  799SOL    HW1 3181   0.800   1.301   0.493  0.6572 -0.2471 -1.0374
  799SOL    HW2 3182   0.879   1.178   0.533  0.6227 -0.0976 -0.4952
  800SOL     OW 3183   1.811   4.819   5.188  0.0053  1.1938 -0.1289
  800SOL    HW1 3184   1.896   4.856   5.162 -0.1836  1.3490 -0.5183
  800SOL    HW2 3185   1.833   4.761   5.261  0.3537  1.7798  0.2423
  801SOL     OW 3186   3.115   0.509   4.441 -0.9045 -0.1288  0.4025
  801SOL    HW1 3187   3.046   0.446   4.463 -0.1350 -0.5913  1.5100
  801SOL    HW2 3188   3.076   0.594   4.461 -1.9136 -0.2112 -1.0087
  802SOL     OW 3189   1.505   4.927   1.298  0.1673  0.1979  0.0685
  802SOL    HW1 3190   1.502   4.872   1.220 -1.3822  0.0039  0.2393
  802SOL    HW2 3191   1.461   4.876   1.365 -0.2680  1.1796  0.5460
  803SOL     OW 3192   1.612   0.407   4.547  1.1661  0.0724 -0.2228
  803SOL    HW1 3193   1.531   0.433   4.503 -0.0442  0.2195  1.9454
  803SOL    HW2 3194   1.676   0.473   4.522  0.1988  0.8168 -0.7865
  804SOL     OW 3195   1.131   0.803   0.662  0.1045 -0.4831  0.5071
  804SOL    HW1 3196   1.105   0.895   0.668  3.3699  0.5481  0.8109
  804SOL    HW2 3197   1.122   0.770   0.752 -1.5679 -0.6788  0.3032
  805SOL     OW 3198   3.284   0.880   1.000 -0.2861 -0.5129  0.8474
  805SOL    HW1 3199   3.259   0.969   0.973 -3.4970 -2.3707 -3.6029
  805SOL    HW2 3200   3.365   0.863   0.953 -2.2956 -1.3734 -2.6918
  806SOL     OW 3201   1.626   4.064   1.516 -0.6202  0.4429  0.1723
  806SOL    HW1 3202   1.700   4.056   1.456 -0.5639 -0.6484  0.3588
  806SOL    HW2 3203   1.641   3.996   1.581 -1.8396  0.1249  0.1496
  807SOL     OW 3204   2.597   3.288   1.332  0.6262 -0.8538 -0.1344
  807SOL    HW1 3205   2.670   3.333   1.289  1.0729 -0.1321  1.3450
  807SOL    HW2 3206   2.634   3.204   1.359 -0.0199 -1.9103 -2.2662
  808SOL     OW 3207   2.219   0.943   1.026 -0.4894 -0.8470 -0.3102
  808SOL    HW1 3208   2.280   0.946   1.100 -0.3759 -0.9749 -0.3985
  808SOL    HW2 3209   2.135   0.922   1.066 -0.4040 -1.0451 -0.2308
  809SOL     OW 3210   2.736   5.097   0.366  0.1783 -0.1637  0.3518
  809SOL    HW1 3211   2.701   5.184   0.386  2.6635  1.2391 -1.0192
  809SOL    HW2 3212   2.747   5.056   0.452  2.8748  2.5491  1.4828
  810SOL     OW 3213   1.625   2.244   4.156  1.0531 -0.5929  0.2597
  810SOL    HW1 3214   1.709   2.241   4.110  0.6879 -1.8296 -0.3786
  810SOL    HW2 3215   1.562   2.271   4.089  0.8196 -0.4292  0.5419
  811SOL     OW 3216   2.025   3.829   0.834  0.3255  0.3654  0.1027
  811SOL    HW1 3217   2.038   3.772   0.910 -0.2079 -0.0443 -0.1066
  811SOL    HW2 3218   2.106   3.822   0.784  0.2186 -0.3037  0.0187
  812SOL     OW 3219   1.567   5.172   4.767  0.0502  0.8979 -0.2078
  812SOL    HW1 3220   1.558   5.247   4.709  0.1393  2.1172  1.3016
  812SOL    HW2 3221   1.505   5.187   4.838 -1.0613 -1.2488 -0.6305
  813SOL     OW 3222   3.258   4.516   0.675 -0.7133  0.0136 -0.0089
  813SOL    HW1 3223   3.346   4.487   0.699 -1.0884  0.2210  1.7080
  813SOL    HW2 3224   3.261   4.611   0.683 -1.5731 -0.0747  1.9402
  814SOL     OW 3225   3.201   1.161   0.948  0.4777  0.5479 -0.5361
  814SOL    HW1 3226   3.122   1.149   1.001 -1.6322  0.2032 -3.4776
  814SOL    HW2 3227   3.180   1.235   0.891  3.0154  1.5512 -0.2796
  815SOL     OW 3228   2.262   2.077   0.093  0.7532  0.1007  0.2203
  815SOL    HW1 3229   2.229   2.053   0.006  1.5983 -0.1194 -0.0519
  815SOL    HW2 3230   2.308   2.160   0.078  0.4338  0.3438  0.5692
  816SOL     OW 3231   1.366   1.519   0.046 -0.1458 -0.2432 -0.8065
  816SOL    HW1 3232   1.330   1.507  -0.042  0.3088 -0.0552 -1.0210
  816SOL    HW2 3233   1.407   1.605   0.044  0.2720 -0.4289 -0.5523
  817SOL     OW 3234   2.963   5.213   1.378 -0.5750  0.0610  0.2654
  817SOL    HW1 3235   2.991   5.301   1.407 -1.3476 -0.1188  1.6501
  817SOL    HW2 3236   3.022   5.153   1.425  0.5763 -0.1753 -1.3967
  818SOL     OW 3237   2.659   1.114   0.612 -0.0618 -0.0368 -0.2642
  818SOL    HW1 3238   2.665   1.039   0.554  0.7028  0.0728 -0.3391
  818SOL    HW2 3239   2.724   1.176   0.578  0.4478 -0.0001  0.7359
  819SOL     OW 3240   2.763   4.961   1.530  0.2056 -0.1930 -0.2671
  819SOL    HW1 3241   2.692   4.912   1.571 -1.4515  2.1508 -0.1494
  819SOL    HW2 3242   2.842   4.915   1.557 -1.0539 -1.0498  2.2978
  820SOL     OW 3243   2.366   4.736   0.389 -0.5286  0.2646  0.0064
  820SOL    HW1 3244   2.435   4.670   0.398  0.4425  1.3504  0.8199
  820SOL    HW2 3245   2.378   4.772   0.301 -1.8544 -1.4401 -0.9479
  821SOL     OW 3246   2.042   3.231   1.007 -0.4836 -0.2859 -0.7402
  821SOL    HW1 3247   2.020   3.140   0.988  1.0831 -0.7785 -0.2878
  821SOL    HW2 3248   1.978   3.257   1.074 -0.1209 -1.4832  0.1110
  822SOL     OW 3249   1.271   1.994   1.599 -0.1390  0.3675 -0.1540
  822SOL    HW1 3250   1.269   2.060   1.531 -2.2340  0.7179  0.1933
  822SOL    HW2 3251   1.339   2.024   1.660 -0.3951  1.6716 -0.4934
  823SOL     OW 3252   2.920   0.415   2.023  0.1093  0.3602 -0.8794
  823SOL    HW1 3253   2.963   0.333   2.046 -1.2419  0.8330  4.5713
  823SOL    HW2 3254   2.832   0.389   1.998 -0.9622 -0.0298  2.7300
  824SOL     OW 3255   1.613   4.522   1.327 -0.1084  0.1089  0.0586
  824SOL    HW1 3256   1.605   4.448   1.387 -1.1214 -1.3414 -1.7336
  824SOL    HW2 3257   1.696   4.563   1.349 -0.2137 -0.6623  2.0801
  825SOL     OW 3258   2.023   1.271   1.318  0.3680 -0.7385  0.6195
  825SOL    HW1 3259   2.042   1.247   1.409 -0.9688 -1.8454  0.6336
  825SOL    HW2 3260   2.057   1.360   1.310  0.2442 -0.4998  2.3012
  826SOL     OW 3261   2.830   0.848   1.375 -0.6115  0.1584  0.3627
  826SOL    HW1 3262   2.777   0.869   1.453 -2.9518  0.1567 -1.1285
  826SOL    HW2 3263   2.810   0.757   1.356  2.2613 -0.7724  1.3917
  827SOL     OW 3264   1.937   4.622   0.072 -0.0471 -0.2316 -0.0668
  827SOL    HW1 3265   2.031   4.639   0.064  0.1146 -0.0751  1.7901
  827SOL    HW2 3266   1.928   4.528   0.055 -0.0004  0.2218 -3.1742
  828SOL     OW 3267   2.840   0.643   0.352  0.4460  0.4448 -0.6994
  828SOL    HW1 3268   2.778   0.571   0.367 -1.1891  1.3451 -2.6481
  828SOL    HW2 3269   2.838   0.693   0.434 -0.5919 -0.1571 -0.3317
  829SOL     OW 3270   2.439   1.254   4.349 -0.6693  0.0435 -0.6597
  829SOL    HW1 3271   2.360   1.219   4.308 -0.0819 -1.1589 -0.8081
  829SOL    HW2 3272   2.512   1.212   4.302  0.0858  1.4649 -0.8310
  830SOL     OW 3273   1.622   1.975   1.969 -0.4746  0.0487 -0.3354
  830SOL    HW1 3274   1.549   2.025   2.006 -0.4608 -2.3572  3.3325
  830SOL    HW2 3275   1.603   1.884   1.989  1.9161 -1.0288 -2.3480
  831NA      NA 3276   2.154   1.632   0.002  0.9181  0.0915  0.1330
  832NA      NA 3277   1.587   1.775   1.150 -0.2407  0.1391  0.5692
  833NA      NA 3278   2.447   1.825   0.623 -0.6149 -0.0224  0.2633
  834NA      NA 3279   1.313   2.222   0.729 -0.6998 -0.3975 -0.1808
  835NA      NA 3280   2.699   0.606   0.878  0.0601 -0.2423  0.6436
  836NA      NA 3281   1.699   2.112   0.689  0.6517  0.2916  0.6037
  837NA      NA 3282   1.203   1.891   1.147  0.4918 -0.1966 -0.7177
  838NA      NA 3283   2.528   0.285   0.593  0.1272  0.3733  0.0741
  839NA      NA 3284   1.811   1.318   0.844  0.2487 -0.1323  0.7289
  840NA      NA 3285   1.659   2.502   0.644  0.3962 -0.8321 -0.3418
  841NA      NA 3286   1.995   2.359   0.540 -0.7518  0.4312 -0.1540
  842NA      NA 3287   2.049   3.121   4.636 -0.0590 -0.0870 -0.1534
  843NA      NA 3288   2.672   2.890   1.236 -0.1302 -0.2012  0.0098
  844NA      NA 3289   2.106   0.075   1.083 -0.0798  0.0608  0.5524
  845NA      NA 3290   2.932   1.742   1.291 -0.4039  0.0681 -0.0516
  846NA      NA 3291   2.526   1.432   0.781 -0.0711  0.2535 -0.1738
  847NA      NA 3292   2.037   0.861   0.587  0.0042 -0.3496 -0.2323
  848NA      NA 3293   1.784   1.681   0.797  0.3455 -0.0815  0.0174
  849NA      NA 3294   1.549   0.635   0.505 -0.1789 -0.1412 -0.7870
  850NA      NA 3295   1.980   1.464   4.723  0.5246  0.0007 -0.5340
  851NA      NA 3296   1.438   1.463   0.902 -0.4900 -0.2606  0.4220
  852NA      NA 3297   2.090   0.161   5.254  0.0687  0.5754  0.7444
  853NA      NA 3298   2.737   5.156   1.382  0.3820  0.3637 -0.4131
  854NA      NA 3299   2.237   0.807   0.251 -0.0705  0.6034  0.4992
  855NA      NA 3300   2.570   0.667   0.180 -0.2018  0.0064 -0.0856
  856NA      NA 3301   2.589   2.129   0.879  0.2293  0.8503  0.0324
  857NA      NA 3302   2.244   0.057   0.737 -0.1683 -0.1872 -0.0941
  858NA      NA 3303   1.878   2.055   0.331 -0.0484  0.1964 -0.3983
  859NA      NA 3304   2.081   1.963   0.711  1.1486  0.3126 -0.0341
  860NA      NA 3305   2.540   2.392   1.564  0.1841 -0.4587 -0.3329
  861NA      NA 3306   2.178   2.692   0.728 -0.1593 -0.2205  0.1080
  862NA      NA 3307   1.496   2.215   0.333 -0.3020  0.1335  0.3693
  863NA      NA 3308   2.115   0.450   0.659  0.4904  0.6833  0.5191
  864NA      NA 3309   1.893   0.567   0.354  0.1165  0.0364 -0.0089
  865NA      NA 3310   2.393   4.978   0.771 -0.0754 -0.0459  0.3331
  866NA      NA 3311   2.893   2.394   0.645 -0.1804 -0.5943 -0.2004
  867NA      NA 3312   2.713   2.067   0.482 -0.0159 -0.1572  0.1109
  868NA      NA 3313   2.080   0.568   5.271 -0.2786 -0.0034  0.1952
  869NA      NA 3314   1.791   2.862   0.811  0.6359  0.1583  0.3624
  870NA      NA 3315   1.962   1.684   0.429  0.2808 -0.8099  0.0610
  871NA      NA 3316   2.192   1.551   0.718  0.0664  0.5885  0.2940
  872NA      NA 3317   2.704   0.268   0.198  1.0686 -0.1496  0.1594
  873NA      NA 3318   2.473   5.237   1.043 -0.3525  0.4097  0.7300
  874NA      NA 3319   2.783   0.141   1.701  0.2848  0.7619 -0.4449
  875NA      NA 3320   1.409   2.877   0.695 -0.7898  0.0131  0.4222
  876NA      NA 3321   1.985   0.473   1.022  0.3986 -0.2264  0.3201
  877NA      NA 3322   2.214   4.997   1.140 -0.0088 -0.0220 -0.1052
  878NA      NA 3323   2.608   0.973   0.802  0.1896  0.0571 -0.2990
  879NA      NA 3324   2.530   0.612   1.229  0.1181 -0.1089  0.4570
  880NA      NA 3325   3.114   0.427   1.625 -0.7491 -0.3687 -0.3256
  881NA      NA 3326   1.761   0.321   0.153 -0.2344  0.2616 -0.1690
  882NA      NA 3327   2.214   2.286   0.879  0.6464  0.1109  0.0215
  883NA      NA 3328   2.842   1.670   0.583  0.6605 -0.2815 -0.1215
  884NA      NA 3329   1.931   5.082   1.510 -0.1577  0.2871  0.2527
  885NA      NA 3330   2.067   2.306   1.294 -0.2711 -0.0396  0.0817
  886NA      NA 3331   2.547   1.052   0.135 -0.3401  0.1634  0.2679
  887NA      NA 3332   2.351   5.230   1.411  0.3230  0.5188  0.5195
  888NA      NA 3333   1.789   1.377   0.134 -0.0955  0.2880  0.0391
  889NA      NA 3334   2.703   0.435   4.985  0.4617  0.0063 -0.2505
  890NA      NA 3335   2.780   0.189   0.886  0.1906 -0.0653 -0.2792
  891NA      NA 3336   2.380   2.231   0.535 -0.0697  0.4815  0.1786
  892NA      NA 3337   2.954   1.603   0.214 -0.0422 -0.1670  0.3043
  893NA      NA 3338   2.365   0.337   0.961  0.4633 -0.9438 -0.0158
  894NA      NA 3339   2.516   1.405   0.039 -0.4012  0.5851  0.3079
  895NA      NA 3340   2.228   1.092   0.845  0.7139 -0.1804 -0.5708
  896NA      NA 3341   1.671   1.495   5.067 -0.3802 -0.0584  0.2979
  897NA      NA 3342   1.537   2.186   1.066  0.0307  0.4936 -0.3530
  898NA      NA 3343   2.604   0.241   1.275  0.0793 -0.1740 -0.1294
  899NA      NA 3344   2.408   0.011   0.337 -0.2810 -0.3287  0.7094
  900NA      NA 3345   2.260   0.390   0.281 -0.3972 -0.0062 -0.3960
  901NA      NA 3346   1.570   1.825   0.471 -0.0934 -0.2729  0.2259
  902NA      NA 3347   1.838   0.988   0.243 -0.3423  0.0125 -0.1391
  903NA      NA 3348   1.765   1.774   0.080 -0.2670 -0.3784 -0.5691
  904NA      NA 3349   2.292   0.735   0.911  0.0092 -0.3834  0.0735
  905NA      NA 3350   2.376   1.210   5.015  0.0282  0.0169 -0.2390
  906NA      NA 3351   2.370   1.102   0.472  0.0057 -0.7712  0.0294
  907NA      NA 3352   1.417   1.842   0.830 -0.4342 -0.1364 -0.0889
  908NA      NA 3353   2.570   1.368   4.532 -0.2988  0.2316 -0.2451
  909NA      NA 3354   2.465   0.705   0.558 -0.0060  0.3816 -0.0277
  910NA      NA 3355   2.627   1.793   0.181 -0.0010 -0.1996  0.1829
  911NA      NA 3356   2.941   0.845   0.259 -0.2579  0.2794 -0.0078
  912NA      NA 3357   2.290   1.874   1.000  0.6874 -0.0683  0.5958
  913NA      NA 3358   2.251   1.890   0.251 -0.2631  0.4288 -0.2675
  914NA      NA 3359   2.003   1.268   5.083 -0.5012 -0.0245 -0.0091
  915NA      NA 3360   2.450   2.153   1.228  0.2454  0.1765  0.1930
  916NA      NA 3361   1.645   1.421   0.522  0.2499  0.2041 -0.2097
  917NA      NA 3362   1.942   0.930   5.145  0.1213  0.5006  0.0981
  918NA      NA 3363   2.667   1.754   0.936 -0.4531  0.7828 -0.2602
  919NA      NA 3364   2.405   0.374   5.202 -0.0562  0.0060  0.2132
  920NA      NA 3365   1.684   1.030   0.609  0.6800 -0.4099 -0.0656
  921NA      NA 3366   1.624   0.698   0.019 -0.8520 -0.1796 -0.3634
  922NA      NA 3367   1.896   2.017   1.057  0.1256 -0.1191  0.1638
  923NA      NA 3368   2.018   1.269   0.525 -0.3433 -0.0124  0.0925
  924NA      NA 3369   2.537   2.528   0.766 -0.6487  0.2871  0.0824
  925NA      NA 3370   2.338   2.540   1.179 -0.1592 -0.1104 -0.1131
  926NA      NA 3371   1.869   2.458   0.954  0.4838  0.3363 -0.5779
  927NA      NA 3372   2.224   0.325   4.823 -0.0589 -0.3896  0.1766
  928NA      NA 3373   2.301   2.935   1.016  0.7661 -0.4639  0.2478
  929NA      NA 3374   2.378   1.489   0.387 -0.0426  0.4137 -0.1331
  930NA      NA 3375   3.000   5.266   1.094  0.2531  0.3249  0.5204
  931CL      CL 3376   2.200   1.749   0.530 -0.3442  0.3515  0.2226
  932CL      CL 3377   2.015   0.386   0.172  0.2805 -0.0132 -0.3841
  933CL      CL 3378   1.897   1.576   5.247  0.3620  0.0244  0.1180
  934CL      CL 3379   1.696   0.821   5.063 -0.1455  0.1833  0.1261
  935CL      CL 3380   1.958   2.199   0.807  0.3368  0.2962 -0.2773
  936CL      CL 3381   1.961   0.786   0.102 -0.5212 -0.4356  0.1545
  937CL      CL 3382   1.520   1.644   0.674  0.4504  0.4368 -0.2835
  938CL      CL 3383   1.640   1.988   0.225  0.2465  0.2572  0.3521
  939CL      CL 3384   1.909   2.593   0.725 -0.3445  0.0205  0.5130
  940CL      CL 3385   1.769   0.786   0.484  0.3901  0.4665  0.4637
  941CL      CL 3386   2.426   1.363   4.786  0.0610  0.1858 -0.5210
  942CL      CL 3387   1.232   2.043   0.921  0.3257 -0.0513 -0.1988
  943CL      CL 3388   2.247   2.439   0.659 -0.2136  0.2473 -0.1539
  944CL      CL 3389   1.480   2.660   0.527 -0.1035  0.6330 -0.0605
  945CL      CL 3390   2.588   0.026   1.555 -0.1850  0.1007  0.2201
  946CL      CL 3391   2.001   0.700   0.838  0.2034  0.2481  0.8793
  947CL      CL 3392   1.436   2.032   0.587  0.0509 -0.1273  0.1161
  948CL      CL 3393   2.142   1.054   5.010  0.0279 -0.2560  0.0471
  949CL      CL 3394   2.319   5.096   0.533  0.0182 -0.1358  0.2981
  950CL      CL 3395   2.251   0.222   0.511 -0.0287  0.2228 -0.1395
  951CL      CL 3396   1.811   1.344   4.907  0.0436  0.1854 -0.0981
  952CL      CL 3397   2.277   1.331   0.609 -0.1153  0.0707 -0.3592
  953CL      CL 3398   2.635   0.416   1.067  0.0134  0.0673  0.0962
  954CL      CL 3399   1.564   2.874   0.954  0.1503 -0.3291  0.5664
  955CL      CL 3400   2.373   1.662   0.154  0.4694  0.0387  0.0498
  956CL      CL 3401   2.424   1.265   0.253 -0.0489 -0.2914 -0.4143
  957CL      CL 3402   1.967   1.123   0.762  0.7149  0.2975 -0.3426
  958CL      CL 3403   1.996   1.849   0.200  0.4638 -0.0861  0.0410
  959CL      CL 3404   2.312   2.394   1.406 -0.0859  0.3474  0.0600
  960CL      CL 3405   2.112   2.466   1.068 -0.0038  0.2534  0.0262
  961CL      CL 3406   2.409   2.803   1.236  0.2640 -0.0695  0.0828
  962CL      CL 3407   2.541   1.938   1.090 -0.1889 -0.6018  0.0713
  963CL      CL 3408   2.160   0.366   5.097 -0.2760  0.1583  0.0603
  964CL      CL 3409   2.486   1.221   0.929  0.0759  0.0277  0.0634
  965CL      CL 3410   2.183   2.088   1.167 -0.5920  0.2790  0.0579
  966CL      CL 3411   1.447   1.989   1.255 -0.5073  0.0483 -0.4915
  967CL      CL 3412   2.329   0.154   0.122 -0.2994 -0.0712 -0.2906
  968CL      CL 3413   1.557   1.259   0.745 -0.0079  0.2697  0.2359
  969CL      CL 3414   2.657   0.100   0.436 -0.0375 -0.1148  0.1464
  970CL      CL 3415   2.364   0.155   1.208 -0.0935  0.6776 -0.3511
  971CL      CL 3416   2.796   2.625   0.742 -0.0093 -0.2742  0.2941
  972CL      CL 3417   2.340   2.037   0.755 -0.2641 -0.2061  0.6326
  973CL      CL 3418   2.800   1.507   0.837  0.3183 -0.2149  0.1499
  974CL      CL 3419   2.760   1.590   4.539 -0.0450  0.1615 -0.4115
  975CL      CL 3420   2.468   2.348   1.014  0.4985 -0.4954  0.1574
  976CL      CL 3421   2.110   1.039   0.365 -0.0115 -0.0692 -0.1438
  977CL      CL 3422   2.684   2.197   1.436  0.3991 -0.2127 -0.0337
  978CL      CL 3423   1.836   1.147   0.001  0.4921 -0.2581  0.1565
  979CL      CL 3424   1.358   1.675   1.041 -0.3967 -0.0322 -0.1111
  980CL      CL 3425   1.790   2.255   1.186  0.4025 -0.6219 -0.1890
  981CL      CL 3426   2.426   2.773   0.817  0.2417  0.1051 -0.1583
  982CL      CL 3427   2.486   5.063   1.239 -0.0008 -0.6126  0.0042
  983CL      CL 3428   2.855   0.359   1.535 -0.0853  0.2414 -0.0345
  984CL      CL 3429   1.563   2.326   0.829 -0.1862  0.2532 -0.3977
  985CL      CL 3430   2.117   0.273   0.886  0.1223 -0.1165 -0.6265
  986CL      CL 3431   2.511   0.283   4.929  0.6330 -0.2511  0.2259
  987CL      CL 3432   2.045   1.787   0.909 -0.2677  0.4308 -0.0198
  988CL      CL 3433   3.010   5.276   1.773  0.1244  0.2360 -0.0348
  989CL      CL 3434   1.645   0.557   0.249  0.4566 -0.2167 -0.0079
  990CL      CL 3435   1.827   0.087   0.005 -0.0345 -0.4372  0.2198
  991CL      CL 3436   3.048   0.160   0.890  0.3274  0.2094  0.0855
  992CL      CL 3437   2.606   1.208   5.176 -0.0672 -0.1742 -0.4620
  993CL      CL 3438   2.239   1.369   5.199  0.5009 -0.0558  0.1103
  994CL      CL 3439   2.335   0.605   0.091 -0.4160 -0.0584  0.2124
  995CL      CL 3440   2.550   0.812   1.025  0.0743  0.5245 -0.0816
  996CL      CL 3441   1.897   1.482   0.642 -0.1220  0.3264 -0.0446
  997CL      CL 3442   1.699   1.594   0.300  0.0487 -0.2725  0.2846
  998CL      CL 3443   1.697   3.001   0.597 -0.1945 -0.3271  0.1209
  999CL      CL 3444   2.503   0.129   0.841 -0.1154  0.3026  0.2683
 1000CL      CL 3445   2.559   0.475   0.383 -0.7017 -0.0530  0.0039
 1001CL      CL 3446   2.487   0.890   0.339 -0.2500  0.1355 -0.1503
 1002CL      CL 3447   2.149   0.632   0.443  0.2210 -0.0333 -0.2631
 1003CL      CL 3448   2.335   0.894   0.688  0.3130 -0.9328 -0.4950
 1004CL      CL 3449   2.876   1.853   0.339 -0.1387 -0.2609  0.2139
 1005CL      CL 3450   2.244   5.171   0.935 -0.2853  0.4891  0.2139
 1006CL      CL 3451   2.713   0.846   4.644 -0.1470 -0.7656  0.0792
 1007CL      CL 3452   1.736   2.278   0.451  0.0291  0.0300 -0.0883
 1008CL      CL 3453   2.448   0.774   1.455 -0.7369  0.4540  0.5892
 1009CL      CL 3454   1.813   1.886   0.572  0.0320 -0.0985  0.1343
 1010CL      CL 3455   2.728   1.548   0.099  0.0511 -0.2660 -0.0467
 1011CL      CL 3456   2.124   2.182   0.410  0.5512  0.3645 -0.1442
 1012CL      CL 3457   2.741   0.848   0.074 -0.1195  0.4274  0.1449
 1013CL      CL 3458   2.491   1.995   0.364  0.3298  0.2879  0.1466
 1014CL      CL 3459   2.740   0.027   1.134 -0.3204 -0.1749  0.1616
 1015CL      CL 3460   2.086   5.219   1.311 -0.0902  0.1998 -0.0511
 1016CL      CL 3461   1.983   4.839   1.111 -0.1122 -0.1454  0.4298
 1017CL      CL 3462   1.665   1.946   0.912 -0.0132 -0.3578 -0.0031
 1018CL      CL 3463   1.763   1.197   0.417 -0.2018 -0.0840 -0.1756
 1019CL      CL 3464   2.270   0.553   1.138  0.0390 -0.0167 -0.0969
 1020CL      CL 3465   2.638   2.284   0.641 -0.0725  0.0892  0.1995
 1021CL      CL 3466   2.666   0.449   5.274  0.3435  0.1058  0.4459
 1022CL      CL 3467   1.697   1.558   1.038 -0.3991  0.6340  0.2848
 1023CL      CL 3468   2.739   0.754   0.667 -0.2326 -0.5405  0.1473
 1024CL      CL 3469   1.599   1.747   5.133  0.2656 -0.0016 -0.4626
 1025CL      CL 3470   3.044   1.526   0.451 -0.3556  0.5816 -0.5742
 1026CL      CL 3471   2.589   1.579   0.524  0.4389 -0.4394  0.4174
 1027CL      CL 3472   2.415   1.662   0.868  0.4315 -0.1130  0.5044
 1028CL      CL 3473   2.036   2.903   0.933 -0.3164 -0.3853 -0.6058
 1029CL      CL 3474   2.430   0.511   0.747  0.2474 -0.1440  0.6231
 1030CL      CL 3475   2.729   1.887   0.701  0.1225  0.2281 -0.2315
   5.28748   5.28748   5.28748
