Generic title in water
 3475
    1PET     C9    1   0.374   0.810   1.685  0.4102  0.4125  1.1793
    1PET     H6    2   0.331   0.883   1.754 -2.2432  1.3870 -1.3244
    1PET     H7    3   0.436   0.735   1.736  1.8277 -2.0779 -3.6133
    1PET     O2    4   0.448   0.878   1.579  0.6646  0.2923 -0.0080
    1PET     C8    5   0.387   0.921   1.467  0.0512 -0.2678 -0.1742
    1PET     O1    6   0.263   0.919   1.453 -0.2879 -0.0144  0.0451
    1PET     C4    7   0.482   0.963   1.364 -0.6061 -0.6195  0.2464
    1PET     C5    8   0.622   0.951   1.378 -0.6198 -0.4379 -0.4756
    1PET     C6    9   0.710   1.016   1.291  0.5946 -0.3203 -0.1233
    1PET     H4   10   0.818   1.010   1.304  0.4352  0.2433  1.8329
    1PET     H3   11   0.668   0.911   1.468  3.3401  0.4536 -1.9069
    1PET     C3   12   0.438   1.037   1.254 -0.2763 -0.6958  0.3673
    1PET     H2   13   0.333   1.061   1.237  0.3579  0.8336 -1.8083
    1PET     C2   14   0.524   1.096   1.161  1.0835  0.2576 -0.0593
    1PET     H1   15   0.478   1.164   1.090  0.2323  0.0578  0.2949
    1PET     C1   16   0.663   1.091   1.180 -0.7613  0.2903 -0.2875
    1PET     C7   17   0.761   1.154   1.082  0.0088  0.8328 -0.4584
    1PET     O3   18   0.877   1.125   1.072 -0.0622  0.0601  0.3520
    1PET     O4   19   0.699   1.251   1.004  0.2912  0.4974  0.8166
    1PET    C10   20   0.779   1.311   0.896 -0.0347 -0.5649 -0.3693
    1PET     H8   21   0.837   1.232   0.847  0.4426 -0.1183 -0.5307
    1PET     H9   22   0.852   1.382   0.937  0.1552 -0.8470 -0.2095
    1PET    C11   23   0.690   1.387   0.799 -0.7590 -0.3305 -0.4949
    1PET    H10   24   0.620   1.446   0.859  0.3360 -0.3781  0.8707
    1PET    H11   25   0.627   1.325   0.734  0.6108 -0.7232 -1.5011
    1PET    C12   26   0.762   1.501   0.710  0.0913  0.1322  0.5409
    1PET    H13   27   0.824   1.448   0.636 -1.7183 -1.1809 -0.0880
    1PET    H14   28   0.842   1.553   0.765  0.9035  0.6936 -1.1200
    2PEO     C1   29   0.679   1.617   0.646  0.4875 -0.4225  0.1332
    2PEO     H3   30   0.618   1.573   0.566  1.6636 -2.9818  0.5453
    2PEO     H4   31   0.748   1.688   0.598  0.2515 -0.6079 -0.4948
    2PEO      O   32   0.595   1.671   0.754  0.2845  0.1258 -0.1173
    2PEO     C2   33   0.496   1.769   0.713 -0.1014  0.0468 -0.3117
    2PEO     H5   34   0.434   1.795   0.800 -1.7413  1.1776 -1.7561
    2PEO     H6   35   0.429   1.725   0.638  1.5854 -0.2684 -1.7133
    2PEO     C3   36   0.563   1.898   0.653  0.0151  0.0941  0.0759
    2PEO     H7   37   0.477   1.965   0.636  0.8651  1.3613  0.6773
    2PEO     H8   38   0.605   1.878   0.554 -1.3345  1.3212 -0.7938
    2PEO     O1   39   0.659   1.949   0.747 -0.0976  0.4156 -0.2851
    2PEO     C4   40   0.616   2.003   0.876  0.5603  0.0667 -0.1027
    2PEO     H9   41   0.696   2.056   0.929 -0.9545  1.3489  1.0095
    2PEO    H10   42   0.577   1.926   0.945 -0.7614  0.7210 -0.1058
    2PEO     C5   43   0.505   2.111   0.852  0.1607 -0.1131 -0.1310
    2PEO    H11   44   0.520   2.177   0.765  0.4147  0.6959  0.5223
    2PEO    H12   45   0.492   2.173   0.941  1.9774  0.0757  0.0396
    2PEO     O2   46   0.379   2.044   0.831  0.2170 -0.5807 -0.4876
    2PEO     C6   47   0.257   2.118   0.870  0.2260  0.0374  0.1221
    2PEO    H13   48   0.256   2.134   0.979 -1.2785  2.3406 -0.1583
    2PEO    H14   49   0.163   2.066   0.849 -0.1509  0.6797  0.1616
    2PEO     C7   50   0.241   2.253   0.791 -0.4446  0.8335 -0.2631
    2PEO    H15   51   0.135   2.277   0.799 -0.9413 -0.7033 -1.7096
    2PEO    H16   52   0.262   2.231   0.686 -0.6696  0.8898 -0.3203
    2PEO     O3   53   0.331   2.357   0.841 -0.1547 -0.0290  0.1855
    2PEO     C8   54   0.308   2.393   0.980  0.4017 -0.4640 -0.6491
    2PEO    H17   55   0.375   2.475   1.009  1.1674 -0.9928 -0.8862
    2PEO    H18   56   0.314   2.302   1.042 -2.6088 -1.4303 -1.6107
    2PEO     C9   57   0.170   2.457   1.000  0.2330  0.2456  0.5018
    2PEO    H19   58   0.152   2.512   0.906  0.7317  0.3887  0.4906
    2PEO    H20   59   0.169   2.526   1.085 -1.1580  0.7353  0.1228
    2PEO     O4   60   0.074   2.348   1.021 -0.3176  0.3029 -0.2123
    2PEO    C10   61  -0.061   2.385   1.026 -0.4259 -0.1571  0.1891
    2PEO    H21   62  -0.090   2.460   0.951  0.3551  0.2156  0.2527
    2PEO    H22   63  -0.076   2.437   1.121  1.9684 -1.0768  1.1604
    3PET     C9   64  -0.157   2.266   1.019  0.1836  0.3968 -0.6440
    3PET     H6   65  -0.257   2.298   1.049  0.6256  0.7425  0.5404
    3PET     H7   66  -0.132   2.196   1.099 -1.6032  0.3304 -0.1013
    3PET     O2   67  -0.152   2.197   0.891  0.1864 -0.0199  0.4720
    3PET     C8   68  -0.202   2.262   0.775  0.3489 -0.2953 -0.4393
    3PET     O1   69  -0.268   2.367   0.781  0.3462 -0.1334 -0.6846
    3PET     C4   70  -0.149   2.204   0.646 -0.3923 -0.3295  0.3306
    3PET     C5   71  -0.071   2.089   0.647 -0.1329 -0.3658 -0.1192
    3PET     C6   72  -0.012   2.037   0.527 -0.5182 -0.1554  0.2290
    3PET     H4   73   0.055   1.952   0.533  0.8031  0.9147  1.7224
    3PET     H3   74  -0.049   2.037   0.739 -1.1690  0.0315  0.3623
    3PET     C3   75  -0.163   2.279   0.524  0.5988 -0.0759  0.1795
    3PET     H2   76  -0.203   2.380   0.531 -0.3733 -0.4055 -0.3823
    3PET     C2   77  -0.098   2.230   0.407 -0.2513 -0.3406  0.2678
    3PET     H1   78  -0.098   2.285   0.314 -0.1412 -1.8308 -0.6450
    3PET     C1   79  -0.031   2.107   0.407 -0.4663  0.5244  0.1801
    3PET     C7   80   0.029   2.047   0.279 -0.2024  0.3862 -0.1474
    3PET     O3   81   0.036   2.114   0.175 -0.1019  0.0686 -0.1184
    3PET     O4   82   0.079   1.919   0.295  0.4899  0.1735  0.3099
    3PET    C10   83   0.142   1.857   0.182 -0.1807  0.2048  0.2361
    3PET     H8   84   0.234   1.909   0.152 -0.4702  0.9026  0.5262
    3PET     H9   85   0.065   1.867   0.104 -0.1876  2.0655  0.4406
    3PET    C11   86   0.175   1.710   0.223 -0.0572 -0.1350  0.0787
    3PET    H10   87   0.199   1.647   0.136  2.4470 -0.1379  0.7014
    3PET    H11   88   0.091   1.663   0.275  0.7108 -3.0960 -1.1592
    3PET    C12   89   0.302   1.712   0.313 -0.5860 -0.1187  0.5158
    3PET    H13   90   0.289   1.780   0.398 -0.9771  1.0342 -0.4203
    3PET    H14   91   0.387   1.740   0.249 -1.1583 -1.5399 -0.9375
    4PET     C9   92   0.343   1.579   0.376  0.3864  0.0177 -0.0636
    4PET     H6   93   0.439   1.594   0.427 -1.4056  0.6596  3.3820
    4PET     H7   94   0.361   1.494   0.309 -0.5662 -1.6455  1.6932
    4PET     O2   95   0.244   1.540   0.472 -0.3840 -0.0505  0.1432
    4PET     C8   96   0.270   1.429   0.548 -0.6770  0.3356 -0.4186
    4PET     O1   97   0.385   1.387   0.570 -0.2534 -0.3840 -0.6116
    4PET     C4   98   0.155   1.374   0.626  0.2253  0.2463  0.1637
    4PET     C5   99   0.162   1.291   0.739 -0.2293 -0.0527  0.5068
    4PET     C6  100   0.047   1.233   0.795 -0.3757  0.1664 -0.0481
    4PET     H4  101   0.049   1.150   0.865  0.1757 -1.5880 -2.0381
    4PET     H3  102   0.259   1.257   0.775  0.5334  2.0642  0.6085
    4PET     C3  103   0.024   1.412   0.583  0.1874 -0.0724 -0.2761
    4PET     H2  104   0.010   1.486   0.505 -0.9730  2.6941  2.3428
    4PET     C2  105  -0.088   1.366   0.641  0.4688 -0.4419  0.2162
    4PET     H1  106  -0.184   1.390   0.598  0.7081 -2.1886 -1.4043
    4PET     C1  107  -0.074   1.266   0.738  0.5766  0.3046 -0.4952
    4PET     C7  108  -0.194   1.193   0.778 -0.1911  0.1939 -0.3902
    4PET     O3  109  -0.206   1.157   0.890  0.3547 -0.0922 -0.0360
    4PET     O4  110  -0.290   1.183   0.682 -0.3391 -0.1285  0.3943
    4PET    C10  111  -0.406   1.100   0.710  0.0643  0.1572 -0.1554
    4PET     H8  112  -0.488   1.127   0.643 -1.7205 -0.5758  1.6309
    4PET     H9  113  -0.454   1.132   0.803 -2.1059 -0.5893 -0.9512
    4PET    C11  114  -0.368   0.951   0.707 -0.3660  0.1800 -0.1920
    4PET    H10  115  -0.454   0.892   0.742  0.5816  0.1441  2.2658
    4PET    H11  116  -0.285   0.922   0.772 -0.5772  1.2460  0.5628
    4PET    C12  117  -0.339   0.900   0.560 -0.2653 -0.0126 -0.0643
    4PET    H13  118  -0.426   0.917   0.495  0.8637  0.7363 -1.4533
    4PET    H14  119  -0.337   0.791   0.558 -1.1725 -0.0289 -0.9602
    5PET     C9  120  -0.217   0.961   0.485  0.3247  0.0602  0.1591
    5PET     H6  121  -0.230   1.069   0.471 -0.0923  0.3968  2.6763
    5PET     H7  122  -0.208   0.904   0.391 -0.8272 -3.3827  1.9817
    5PET     O2  123  -0.106   0.934   0.568 -0.2141  0.0572  0.2367
    5PET     C8  124   0.013   0.994   0.537  0.0274 -0.0118 -0.0806
    5PET     O1  125   0.033   1.056   0.431  0.3377 -0.1610  0.3925
    5PET     C4  126   0.120   0.977   0.642  0.3188 -0.7327 -0.0321
    5PET     C5  127   0.252   1.018   0.615  0.4598  0.3372 -0.5291
    5PET     C6  128   0.357   0.988   0.704  0.2505  0.1985  0.1048
    5PET     H4  129   0.458   1.013   0.674  0.7256 -2.2526 -0.5876
    5PET     H3  130   0.275   1.066   0.520  0.3914  0.3225 -0.5528
    5PET     C3  131   0.093   0.905   0.761 -0.3165 -0.4475 -0.2195
    5PET     H2  132  -0.004   0.859   0.781 -0.1801  0.6468  3.6993
    5PET     C2  133   0.200   0.871   0.849  0.5825  0.0820 -0.0886
    5PET     H1  134   0.178   0.826   0.945  0.1822  0.2395 -0.1057
    5PET     C1  135   0.332   0.908   0.819 -0.1606  0.6753 -0.3218
    5PET     C7  136   0.448   0.873   0.908 -0.5273 -0.0127  0.0709
    5PET     O3  137   0.558   0.913   0.875  0.0797 -0.4561 -0.1413
    5PET     O4  138   0.428   0.796   1.019  0.2917 -0.0123 -0.2620
    5PET    C10  139   0.537   0.737   1.090  0.4154 -0.3237 -0.4337
    5PET     H8  140   0.612   0.811   1.122 -1.3191  0.3892  2.4281
    5PET     H9  141   0.576   0.657   1.026 -0.4088 -0.0157 -1.3421
    5PET    C11  142   0.476   0.661   1.210 -0.0833 -0.0213  0.0147
    5PET    H10  143   0.413   0.578   1.177  0.4176 -0.4812  0.2007
    5PET    H11  144   0.402   0.724   1.260  0.4660  0.9883 -0.4206
    5PET    C12  145   0.589   0.594   1.301 -0.3018 -0.4386  0.7339
    5PET    H13  146   0.661   0.670   1.334 -1.9243  1.5699 -0.2020
    5PET    H14  147   0.645   0.518   1.245  2.7741  2.2203 -0.1053
    6PEO     C1  148   0.527   0.543   1.438  0.0274  0.0530  0.8484
    6PEO     H3  149   0.479   0.628   1.488 -1.1193  0.2953 -0.5801
    6PEO     H4  150   0.602   0.499   1.504  3.3848 -1.0384 -3.2009
    6PEO      O  151   0.420   0.455   1.414 -0.0231  0.1223  0.3278
    6PEO     C2  152   0.443   0.339   1.340 -0.5698  0.4578 -0.3536
    6PEO     H5  153   0.517   0.359   1.262  0.2628  0.2839  0.3761
    6PEO     H6  154   0.346   0.299   1.306  0.2722  0.5124 -2.9949
    6PEO     C3  155   0.508   0.238   1.439  0.1409 -0.0414 -0.2130
    6PEO     H7  156   0.594   0.277   1.494  0.3393 -0.8349  0.0526
    6PEO     H8  157   0.548   0.165   1.368 -0.2575 -0.4015 -0.0760
    6PEO     O1  158   0.412   0.181   1.532  0.2146  0.1121 -0.4185
    6PEO     C4  159   0.367   0.254   1.639  0.0649 -0.4776 -0.4524
    6PEO     H9  160   0.279   0.305   1.598 -0.9420 -2.8489 -1.3983
    6PEO    H10  161   0.446   0.326   1.666 -0.2465  0.2382 -1.3876
    6PEO     C5  162   0.331   0.162   1.759 -0.1160 -0.4456  0.6236
    6PEO    H11  163   0.276   0.082   1.708 -1.4300  1.0352 -0.4048
    6PEO    H12  164   0.277   0.217   1.838 -1.2690  0.5574 -0.7941
    6PEO     O2  165   0.456   0.107   1.813  0.4551 -0.6921  0.7878
    6PEO     C6  166   0.439  -0.010   1.891  0.3395  0.1237  0.1304
    6PEO    H13  167   0.535  -0.047   1.930  0.1909 -0.5849 -0.1567
    6PEO    H14  168   0.407  -0.098   1.832  0.6645  0.6845 -0.9161
    6PEO     C7  169   0.343   0.023   2.012 -0.4623  0.1406  0.1145
    6PEO    H15  170   0.367   0.117   2.063 -0.9061  1.3193 -1.7416
    6PEO    H16  171   0.361  -0.055   2.087  0.4859 -0.4902 -0.7406
    6PEO     O3  172   0.201   0.025   1.968  0.2890  0.0602 -0.9902
    6PEO     C8  173   0.104   0.055   2.069  0.3108 -0.0515  0.2176
    6PEO    H17  174   0.116  -0.019   2.149 -0.0975  0.3992  0.7025
    6PEO    H18  175   0.003   0.038   2.031 -0.2328  0.9845  1.1428
    6PEO     C9  176   0.107   0.204   2.114  0.0479 -0.5911 -0.1523
    6PEO    H19  177   0.194   0.254   2.069 -0.3560 -1.4175 -1.9200
    6PEO    H20  178   0.119   0.202   2.223 -0.7708  0.3999 -0.0253
    6PEO     O4  179  -0.020   0.261   2.079  0.4327 -0.0749 -0.4894
    6PEO    C10  180  -0.036   0.406   2.104  0.1039 -0.1650  0.3921
    6PEO    H21  181  -0.017   0.437   2.207  0.2833 -2.8155  1.2253
    6PEO    H22  182  -0.139   0.437   2.083  1.1839  3.7551  0.1891
    7PET     C9  183   0.049   0.490   2.006 -0.0442  0.2107  0.0662
    7PET     H6  184   0.155   0.488   2.034  0.4626  0.9636 -1.6787
    7PET     H7  185   0.022   0.596   2.010 -1.5843 -0.1138 -1.0043
    7PET     O2  186   0.029   0.451   1.870 -0.3616 -0.0888 -0.2362
    7PET     C8  187   0.099   0.523   1.772  0.1226 -0.0810  0.0293
    7PET     O1  188   0.169   0.621   1.797  0.2712 -0.0768 -0.0797
    7PET     C4  189   0.071   0.477   1.631  0.2649  0.3330 -0.2588
    7PET     C5  190  -0.024   0.372   1.605  0.0222 -0.3397  0.2091
    7PET     C6  191  -0.047   0.327   1.471  0.0492  0.0040  0.3175
    7PET     H4  192  -0.111   0.241   1.451 -2.1726  1.8549 -0.9773
    7PET     H3  193  -0.064   0.319   1.691  1.5764 -0.3829  0.9385
    7PET     C3  194   0.131   0.545   1.518  0.1203 -0.2320  0.0160
    7PET     H2  195   0.199   0.628   1.534 -0.5089  0.4806 -0.9006
    7PET     C2  196   0.112   0.490   1.388  0.1797 -0.8631 -0.1451
    7PET     H1  197   0.161   0.536   1.304 -1.0582  0.5465 -0.1261
    7PET     C1  198   0.022   0.386   1.364  0.6603 -0.0097 -0.5893
    7PET     C7  199   0.003   0.323   1.225  0.1941  0.3215  0.5675
    7PET     O3  200  -0.064   0.226   1.214  0.3356  0.2319  0.6250
    7PET     O4  201   0.071   0.385   1.126 -0.3634 -0.4224 -0.5465
    7PET    C10  202   0.076   0.319   0.998  0.0970 -0.1726  0.4999
    7PET     H8  203  -0.029   0.302   0.969 -0.2080  0.1204  1.4104
    7PET     H9  204   0.124   0.221   0.999 -0.0842 -0.2588  1.4244
    7PET    C11  205   0.141   0.413   0.893 -0.2438 -0.7479  0.3661
    7PET    H10  206   0.092   0.510   0.902 -0.6957 -0.7992 -1.2000
    7PET    H11  207   0.112   0.371   0.796  0.0332  2.2249 -1.1028
    7PET    C12  208   0.290   0.430   0.908  0.4875 -0.0926 -0.4535
    7PET    H13  209   0.339   0.338   0.874  1.2600  0.8235 -1.9405
    7PET    H14  210   0.311   0.447   1.014  0.1597  1.4040 -0.6105
    8PET     C9  211   0.357   0.531   0.826  0.1868 -0.2174 -0.4619
    8PET     H6  212   0.466   0.513   0.830  0.0397 -0.9615  0.8218
    8PET     H7  213   0.338   0.635   0.857 -1.5221 -0.8441  0.7234
    8PET     O2  214   0.313   0.518   0.694 -0.0060 -0.1801  0.5441
    8PET     C8  215   0.344   0.617   0.606 -0.5390 -0.0290 -0.1978
    8PET     O1  216   0.444   0.691   0.612 -0.1588 -0.4155 -0.6431
    8PET     C4  217   0.235   0.635   0.513  0.0162 -0.3261 -0.2298
    8PET     C5  218   0.109   0.578   0.534  0.4505 -0.4783 -0.1214
    8PET     C6  219   0.006   0.597   0.442 -0.2889 -0.3273  0.3090
    8PET     H4  220  -0.088   0.543   0.451 -0.8497  0.6322  0.3887
    8PET     H3  221   0.086   0.525   0.626  1.3480 -0.8608 -0.1083
    8PET     C3  222   0.249   0.722   0.404  0.4596 -0.8839 -0.1200
    8PET     H2  223   0.340   0.780   0.390 -0.4417  0.4940 -0.4302
    8PET     C2  224   0.147   0.748   0.314 -0.0256 -0.8859 -0.6142
    8PET     H1  225   0.166   0.810   0.227 -1.6631 -0.0452 -0.4176
    8PET     C1  226   0.022   0.683   0.332  0.3963  0.4800 -0.6733
    8PET     C7  227  -0.087   0.704   0.233  0.0193 -0.3289 -0.8815
    8PET     O3  228  -0.203   0.690   0.258  0.0437  0.3826 -0.1764
    8PET     O4  229  -0.038   0.731   0.111  0.3992  0.1541  0.5876
    8PET    C10  230  -0.129   0.727  -0.004 -0.4339 -0.1221 -0.6447
    8PET     H8  231  -0.216   0.665   0.019  0.2507 -0.7341  0.3611
    8PET     H9  232  -0.071   0.688  -0.089 -1.8933 -2.0348 -0.8174
    8PET    C11  233  -0.174   0.870  -0.037  0.3318 -0.0335 -0.0580
    8PET    H10  234  -0.210   0.858  -0.140  0.0136  1.1450 -0.1024
    8PET    H11  235  -0.079   0.925  -0.040  0.7689 -0.7966 -0.9791
    8PET    C12  236  -0.275   0.941   0.054 -0.0382  0.1125  0.3423
    8PET    H13  237  -0.221   0.962   0.148  0.0346  3.4048 -0.3255
    8PET    H14  238  -0.355   0.871   0.081 -1.0640  1.0265 -0.2915
    9PET     C9  239  -0.333   1.076  -0.000  0.0210 -0.5757  0.0602
    9PET     H6  240  -0.406   1.055  -0.079  0.6475  0.1789 -0.7341
    9PET     H7  241  -0.257   1.137  -0.049  1.7143 -1.4367  1.4954
    9PET     O2  242  -0.381   1.161   0.105  0.4010  0.0477 -0.1281
    9PET     C8  243  -0.413   1.291   0.079 -0.1393 -0.4330  0.0997
    9PET     O1  244  -0.402   1.340  -0.036 -0.4595 -0.2628  0.0766
    9PET     C4  245  -0.457   1.364   0.197 -0.2909 -0.0342  0.1637
    9PET     C5  246  -0.448   1.307   0.329  0.3194  0.0765  0.0058
    9PET     C6  247  -0.491   1.385   0.439 -0.4295  0.2404 -0.2413
    9PET     H4  248  -0.482   1.348   0.541  1.8037  0.0609 -0.4578
    9PET     H3  249  -0.418   1.203   0.342  0.1925 -0.0134 -0.4106
    9PET     C3  250  -0.501   1.498   0.189  0.5529 -0.2866 -0.0026
    9PET     H2  251  -0.527   1.533   0.090 -0.5947 -0.0773  0.3630
    9PET     C2  252  -0.527   1.577   0.299  0.2009 -0.4584 -0.4746
    9PET     H1  253  -0.561   1.679   0.282 -1.2191 -0.8042  0.1739
    9PET     C1  254  -0.528   1.522   0.424  0.2873  0.0230 -1.2114
    9PET     C7  255  -0.573   1.604   0.543 -0.5224  0.9566  0.0765
    9PET     O3  256  -0.599   1.722   0.535  0.0883  0.0687 -0.3120
    9PET     O4  257  -0.584   1.530   0.655  0.6184  0.0007  0.1433
    9PET    C10  258  -0.633   1.604   0.765  0.0798 -0.4829  0.4263
    9PET     H8  259  -0.736   1.641   0.763 -0.1275 -0.9308  1.6861
    9PET     H9  260  -0.557   1.680   0.787  0.7288 -1.6321  2.4811
    9PET    C11  261  -0.623   1.507   0.886 -0.1094  0.0380 -0.0039
    9PET    H10  262  -0.674   1.413   0.861 -2.6155  1.2293  0.3047
    9PET    H11  263  -0.667   1.548   0.977 -0.4288 -0.2117 -0.0429
    9PET    C12  264  -0.472   1.461   0.921  0.2165 -0.3795 -0.2755
    9PET    H13  265  -0.423   1.542   0.976 -0.5534 -0.8109  1.1112
    9PET    H14  266  -0.410   1.439   0.833  1.3872 -2.1660  0.9241
   10PET     C9  267  -0.470   1.347   1.027  0.2024  0.4086 -0.1174
   10PET     H6  268  -0.386   1.281   1.003  2.0927  2.8983 -0.7921
   10PET     H7  269  -0.563   1.290   1.014  0.8787 -0.9337  0.7303
   10PET     O2  270  -0.452   1.403   1.158  0.2017 -0.3333 -0.3723
   10PET     C8  271  -0.477   1.328   1.266 -0.3781  0.6110  0.0238
   10PET     O1  272  -0.509   1.214   1.253 -0.1013  0.1789  0.1516
   10PET     C4  273  -0.444   1.400   1.398 -0.5357 -0.1154  0.6479
   10PET     C5  274  -0.499   1.353   1.518 -0.0809  0.4057 -0.5917
   10PET     C6  275  -0.481   1.420   1.643  0.0343 -0.2887  0.1713
   10PET     H4  276  -0.527   1.381   1.733  0.8122 -0.9659  0.2882
   10PET     H3  277  -0.557   1.261   1.527 -1.3182  1.1896 -0.2012
   10PET     C3  278  -0.353   1.510   1.405  0.1148  0.5110 -0.3821
   10PET     H2  279  -0.294   1.557   1.326  1.8876  1.9476  1.6683
   10PET     C2  280  -0.329   1.568   1.531  0.1521 -0.0363  0.5287
   10PET     H1  281  -0.254   1.647   1.537  1.1129 -0.8678 -0.1461
   10PET     C1  282  -0.389   1.525   1.650 -0.4048  0.1661 -0.5035
   10PET     C7  283  -0.350   1.589   1.783 -0.2809 -0.1082 -0.2916
   10PET     O3  284  -0.259   1.667   1.795 -0.6648 -0.1669  0.2371
   10PET     O4  285  -0.417   1.541   1.889 -0.6136  0.2204  0.1039
   10PET    C10  286  -0.384   1.583   2.027 -0.3162  0.1410 -0.3245
   10PET     H8  287  -0.399   1.692   2.029  0.3171  0.2415  1.6418
   10PET     H9  288  -0.284   1.551   2.058 -0.8422 -0.8341  0.4109
   10PET    C11  289  -0.489   1.517   2.117  0.7087 -0.1030  0.6360
   10PET    H10  290  -0.590   1.548   2.089  0.2506 -1.9043  0.1677
   10PET    H11  291  -0.484   1.568   2.215 -0.5399  0.5854  0.3645
   10PET    C12  292  -0.471   1.364   2.137  0.6349  1.0403 -0.0505
   10PET    H13  293  -0.376   1.338   2.185 -0.8777  0.2194  2.6958
   10PET    H14  294  -0.473   1.309   2.042  0.3800  0.2252  0.4128
   11PET     C9  295  -0.585   1.306   2.221  0.5014  0.1782  0.0536
   11PET     H6  296  -0.573   1.200   2.245  0.1658 -0.1294 -1.0677
   11PET     H7  297  -0.677   1.318   2.162 -0.7821 -1.9849  1.5147
   11PET     O2  298  -0.592   1.379   2.343  0.2136  0.0955  0.0353
   11PET     C8  299  -0.504   1.358   2.442 -0.2339 -0.4854  0.5280
   11PET     O1  300  -0.434   1.263   2.454 -0.1411  0.1181 -0.1937
   11PET     C4  301  -0.523   1.465   2.552  0.1651  0.1977 -0.0255
   11PET     C5  302  -0.459   1.451   2.677 -0.2576  0.1941  0.1934
   11PET     C6  303  -0.481   1.541   2.781 -0.2405 -0.6589 -0.4591
   11PET     H4  304  -0.436   1.521   2.878  1.0861  0.9338 -0.6863
   11PET     H3  305  -0.398   1.362   2.695  0.5728  0.8741  0.8037
   11PET     C3  306  -0.595   1.589   2.531 -0.0862  0.1879  0.0407
   11PET     H2  307  -0.652   1.612   2.442 -2.3661  1.0013  1.6358
   11PET     C2  308  -0.605   1.684   2.629  0.1911  0.0281 -0.1197
   11PET     H1  309  -0.663   1.774   2.611 -1.5700 -0.7277  1.4118
   11PET     C1  310  -0.561   1.662   2.762  0.2521 -0.9092  0.1530
   11PET     C7  311  -0.597   1.769   2.864  0.0411 -0.0793  0.1975
   11PET     O3  312  -0.668   1.865   2.834  0.0962 -0.4774 -0.2910
   11PET     O4  313  -0.544   1.748   2.986 -0.0110  0.4129 -0.1262
   11PET    C10  314  -0.569   1.844   3.092 -0.2235  0.6357 -0.1526
   11PET     H8  315  -0.540   1.798   3.187  1.1254 -0.0119 -0.8439
   11PET     H9  316  -0.675   1.869   3.102  0.0995  2.2863 -0.5658
   11PET    C11  317  -0.482   1.970   3.081 -0.6974  0.3718 -0.2741
   11PET    H10  318  -0.482   2.021   3.179  1.7338 -2.4308  1.3290
   11PET    H11  319  -0.525   2.030   3.000 -0.9988 -0.6872 -0.9068
   11PET    C12  320  -0.327   1.957   3.062 -0.6589 -0.6132 -0.3332
   11PET    H13  321  -0.291   2.060   3.054 -0.8322 -0.3797  1.4601
   11PET    H14  322  -0.302   1.929   2.959  0.1464  1.0307 -0.6139
   12PET     C9  323  -0.249   1.874   3.170  0.0228  0.0769 -0.0954
   12PET     H6  324  -0.293   1.889   3.270  0.9439  0.5394  0.2571
   12PET     H7  325  -0.148   1.918   3.170 -0.3554  1.0298  1.0359
   12PET     O2  326  -0.243   1.742   3.125  0.3381  0.3568  0.1600
   12PET     C8  327  -0.162   1.697   3.022  0.5405  0.4957 -0.2084
   12PET     O1  328  -0.082   1.769   2.976 -0.1840  0.0500 -0.0519
   12PET     C4  329  -0.174   1.561   2.978  0.3593  0.0027 -0.1281
   12PET     C5  330  -0.232   1.462   3.057  0.1882  0.0059  0.0462
   12PET     C6  331  -0.246   1.328   3.007  0.1534  0.0649 -0.1766
   12PET     H4  332  -0.292   1.255   3.073  1.1479 -1.0694 -0.6977
   12PET     H3  333  -0.282   1.494   3.148 -1.1902  3.3777 -1.7385
   12PET     C3  334  -0.130   1.530   2.844 -0.4094  0.4518 -0.3730
   12PET     H2  335  -0.091   1.598   2.768 -1.1846 -1.1271 -2.2562
   12PET     C2  336  -0.134   1.392   2.803  0.2560  0.6399 -1.3145
   12PET     H1  337  -0.089   1.368   2.707  1.3193  0.0104 -0.6868
   12PET     C1  338  -0.198   1.291   2.879  0.3104  0.0305  0.1224
   12PET     C7  339  -0.195   1.147   2.832  0.5870  0.3889  0.3155
   12PET     O3  340  -0.212   1.056   2.906 -0.9744  0.1558 -0.4811
   12PET     O4  341  -0.153   1.131   2.707 -0.1757 -0.1595 -0.0482
   12PET    C10  342  -0.142   1.000   2.651 -0.2294 -0.8586 -0.0946
   12PET     H8  343  -0.099   0.930   2.723 -0.0302  0.1332  0.7837
   12PET     H9  344  -0.065   1.002   2.573  0.9594 -1.0332  1.0447
   12PET    C11  345  -0.278   0.957   2.599  0.1059  0.0239  0.4813
   12PET    H10  346  -0.324   1.027   2.529 -0.2203 -0.6397  0.0148
   12PET    H11  347  -0.345   0.967   2.686 -0.6604  2.7234 -0.3220
   12PET    C12  348  -0.289   0.815   2.544 -0.1661  0.0429  0.1634
   12PET    H13  349  -0.396   0.790   2.550  0.2811 -2.2845 -0.5565
   12PET    H14  350  -0.237   0.753   2.618 -0.6107  0.3298  0.7242
   13PET     C9  351  -0.231   0.798   2.405  0.3749  0.1570 -0.6741
   13PET     H6  352  -0.278   0.874   2.340  1.4371  0.9747 -0.5091
   13PET     H7  353  -0.267   0.700   2.372  0.8622 -0.0561 -0.5762
   13PET     O2  354  -0.088   0.797   2.409 -0.5658 -0.3230 -0.9806
   13PET     C8  355  -0.027   0.774   2.292  0.0231  0.3786  0.3904
   13PET     O1  356  -0.089   0.752   2.187  0.2264  0.0813 -0.7201
   13PET     C4  357   0.120   0.765   2.309  0.4322 -0.3739  0.1385
   13PET     C5  358   0.208   0.754   2.197 -0.0594  0.9237 -0.3880
   13PET     C6  359   0.343   0.743   2.215  0.3049  0.1648 -0.1147
   13PET     H4  360   0.410   0.739   2.130 -0.5961 -1.4942 -0.7705
   13PET     H3  361   0.172   0.751   2.095 -0.4726 -0.9480 -0.2117
   13PET     C3  362   0.173   0.787   2.438  0.6782  0.6774  0.3717
   13PET     H2  363   0.107   0.803   2.523  0.7242  3.6097 -0.0189
   13PET     C2  364   0.308   0.777   2.456 -0.3607 -0.0396  0.5603
   13PET     H1  365   0.352   0.789   2.555  0.5874  1.1634  0.0189
   13PET     C1  366   0.396   0.751   2.345  0.6372  0.1847 -0.0939
   13PET     C7  367   0.543   0.737   2.366  0.6916 -0.1888  0.4700
   13PET     O3  368   0.593   0.743   2.473  0.2343  0.3170  0.1758
   13PET     O4  369   0.613   0.724   2.251  0.0366  0.4567  0.4636
   13PET    C10  370   0.757   0.746   2.250  0.2215 -0.0949 -0.9143
   13PET     H8  371   0.802   0.684   2.328  1.9157 -0.6692 -2.2940
   13PET     H9  372   0.779   0.851   2.275  1.9045  0.2694 -3.5935
   13PET    C11  373   0.804   0.718   2.111 -0.3610  0.3422 -0.0490
   13PET    H10  374   0.799   0.611   2.085  1.5869  0.0399  0.6610
   13PET    H11  375   0.909   0.750   2.109 -0.4070  0.6831  1.7462
   13PET    C12  376   0.734   0.800   1.995 -0.1481  0.3637 -0.6910
   13PET    H13  377   0.626   0.785   1.996 -0.1295  0.2093 -1.0042
   13PET    H14  378   0.773   0.748   1.907 -0.1265  0.2878 -0.6366
   14PET     C9  379   0.772   0.950   1.977  0.1933  0.3759  0.0708
   14PET     H6  380   0.727   0.979   1.881  1.5953  2.6315  0.0286
   14PET     H7  381   0.880   0.966   1.967 -0.0243  1.1303 -1.4344
   14PET     O2  382   0.716   1.017   2.088 -0.0751  0.3765 -0.1008
   14PET     C8  383   0.583   1.038   2.093  0.6246  0.0592 -0.0495
   14PET     O1  384   0.509   1.030   1.992  0.0770  0.1287  0.4625
   14PET     C4  385   0.535   1.071   2.227 -0.0257 -0.1374 -0.7681
   14PET     C5  386   0.620   1.094   2.339 -0.4526  0.4733  0.2831
   14PET     C6  387   0.561   1.130   2.468 -0.3778  0.5007  0.2100
   14PET     H4  388   0.624   1.156   2.552 -1.0317  1.0309  0.5392
   14PET     H3  389   0.728   1.094   2.327 -0.5753 -0.5434 -1.1349
   14PET     C3  390   0.392   1.076   2.247  0.1175  0.8318  0.0113
   14PET     H2  391   0.318   1.060   2.168 -1.6738  1.4126  1.4957
   14PET     C2  392   0.343   1.096   2.376  0.4740  0.3021 -0.4056
   14PET     H1  393   0.235   1.096   2.393  0.5434 -1.2681  0.1584
   14PET     C1  394   0.422   1.126   2.484 -0.1580  0.3143 -0.5999
   14PET     C7  395   0.368   1.131   2.620 -0.3968 -0.7517 -0.0865
   14PET     O3  396   0.269   1.067   2.656  0.1746 -0.1387  0.2573
   14PET     O4  397   0.445   1.203   2.708  0.6141 -0.5205  0.6041
   14PET    C10  398   0.389   1.236   2.840 -0.3273 -0.4330 -0.8950
   14PET     H8  399   0.458   1.300   2.896  1.1517 -1.1885 -1.7771
   14PET     H9  400   0.361   1.150   2.903 -0.5575 -0.3279 -0.8519
   14PET    C11  401   0.264   1.325   2.817 -0.2377 -0.0222 -0.2461
   14PET    H10  402   0.185   1.272   2.764 -0.8040 -0.0379  0.5940
   14PET    H11  403   0.298   1.407   2.753  1.7156  0.0293  0.7745
   14PET    C12  404   0.202   1.382   2.942 -0.5437  0.3214 -0.5919
   14PET    H13  405   0.113   1.439   2.914  0.2160  1.5480 -0.5725
   14PET    H14  406   0.269   1.431   3.013 -0.7886 -0.6780  0.3580
   15PET     C9  407   0.147   1.268   3.035  0.0572 -0.2278  0.1687
   15PET     H6  408   0.225   1.202   3.075  1.0500  0.9816  0.3008
   15PET     H7  409   0.074   1.209   2.978  0.1613  0.0152 -0.2212
   15PET     O2  410   0.075   1.335   3.146  0.2321  0.3588 -0.0506
   15PET     C8  411   0.067   1.281   3.273  0.2132  0.0016  0.3281
   15PET     O1  412   0.113   1.173   3.311 -0.4722  0.0951  0.5574
   15PET     C4  413  -0.016   1.371   3.364  0.1154 -0.1554  0.4557
   15PET     C5  414  -0.040   1.322   3.495  0.6970  0.3186 -0.4430
   15PET     C6  415  -0.106   1.406   3.595 -0.1719 -0.1336  0.7837
   15PET     H4  416  -0.133   1.355   3.687 -1.2427 -1.4965 -0.2396
   15PET     H3  417  -0.010   1.220   3.519 -0.0400 -0.1591 -1.4552
   15PET     C3  418  -0.058   1.498   3.333  0.0746 -0.3104 -0.0784
   15PET     H2  419  -0.027   1.541   3.238  1.3464  0.1102  0.4952
   15PET     C2  420  -0.118   1.583   3.428 -0.1053 -0.6702 -0.1263
   15PET     H1  421  -0.138   1.685   3.396  2.3217 -0.1545 -0.1632
   15PET     C1  422  -0.148   1.538   3.561 -0.0357  0.1512  0.2248
   15PET     C7  423  -0.207   1.632   3.666 -0.2568  0.3874  0.7593
   15PET     O3  424  -0.204   1.595   3.786 -0.3667  0.1696  0.4210
   15PET     O4  425  -0.269   1.743   3.616  0.6460 -0.6766  0.1880
   15PET    C10  426  -0.307   1.854   3.703 -0.2990  0.0111 -0.5640
   15PET     H8  427  -0.217   1.897   3.746  1.5327 -1.4377 -2.7036
   15PET     H9  428  -0.374   1.823   3.784 -1.0232  0.4637 -0.9770
   15PET    C11  429  -0.370   1.958   3.610  0.0675  0.1485  0.1471
   15PET    H10  430  -0.456   1.910   3.562  0.0110  0.5711 -0.1751
   15PET    H11  431  -0.302   1.976   3.526 -1.3975  0.7516 -0.9504
   15PET    C12  432  -0.429   2.081   3.675 -0.4721  0.4942 -0.2634
   15PET    H13  433  -0.356   2.149   3.721 -1.3720  2.1491 -1.1547
   15PET    H14  434  -0.503   2.054   3.752  0.3765  2.5031  1.3808
   16PET     C9  435  -0.509   2.163   3.573  0.3476  0.4958  0.1614
   16PET     H6  436  -0.551   2.252   3.621  1.8716  0.8506  0.9216
   16PET     H7  437  -0.584   2.094   3.534  2.1140 -1.7004  0.4315
   16PET     O2  438  -0.413   2.199   3.473 -0.4524 -0.1012  0.5252
   16PET     C8  439  -0.463   2.246   3.360 -0.1382 -0.6912  0.3868
   16PET     O1  440  -0.585   2.265   3.342 -0.2741 -0.1262 -0.1036
   16PET     C4  441  -0.353   2.272   3.252  0.3162 -0.0163  0.1731
   16PET     C5  442  -0.215   2.230   3.272  0.2378 -0.5270 -0.4866
   16PET     C6  443  -0.117   2.260   3.183 -0.6235 -0.3078 -0.0150
   16PET     H4  444  -0.014   2.241   3.213 -0.5675  2.6446  2.1109
   16PET     H3  445  -0.195   2.188   3.370  0.2713 -0.6876 -0.5627
   16PET     C3  446  -0.391   2.332   3.139 -0.1405 -0.1198 -0.3104
   16PET     H2  447  -0.494   2.357   3.114 -0.4660 -0.7776  0.3554
   16PET     C2  448  -0.297   2.369   3.042 -0.0636 -0.0394 -0.2203
   16PET     H1  449  -0.324   2.402   2.942 -0.5530 -0.4409 -0.2212
   16PET     C1  450  -0.155   2.339   3.068 -0.3916 -0.2806  0.3961
   16PET     C7  451  -0.047   2.377   2.971  0.3862 -0.4022  0.0620
   16PET     O3  452  -0.062   2.455   2.878  0.0725  0.2512  0.0702
   16PET     O4  453   0.066   2.311   2.995  0.1538  0.1441  0.4291
   16PET    C10  454   0.180   2.324   2.909 -0.6420 -0.0879  0.0159
   16PET     H8  455   0.266   2.294   2.971 -0.3770 -0.1714 -0.3828
   16PET     H9  456   0.179   2.431   2.885 -1.0449  0.0587  0.6620
   16PET    C11  457   0.155   2.233   2.782  0.4063 -0.2015  0.2728
   16PET    H10  458   0.048   2.234   2.762  0.8604 -2.4934 -3.0080
   16PET    H11  459   0.181   2.132   2.816  1.8819  0.2393  0.5381
   16PET    C12  460   0.240   2.271   2.656 -0.3422 -0.3534  0.5824
   16PET    H13  461   0.342   2.239   2.677 -0.7477 -1.3035  1.2044
   16PET    H14  462   0.237   2.380   2.647  1.1705 -0.4035 -0.9629
   17PET     C9  463   0.186   2.204   2.525  0.0040  0.8428  0.5865
   17PET     H6  464   0.193   2.095   2.536 -0.1940  0.7543 -0.1117
   17PET     H7  465   0.251   2.225   2.440 -0.3806 -2.7181 -0.7628
   17PET     O2  466   0.045   2.239   2.501  0.0917  0.0216  0.3718
   17PET     C8  467  -0.017   2.209   2.384  0.0452 -0.4157 -0.2473
   17PET     O1  468   0.039   2.148   2.295 -0.3078 -0.2725  0.4598
   17PET     C4  469  -0.160   2.249   2.368  0.4301  0.3971 -0.4631
   17PET     C5  470  -0.234   2.204   2.252  0.0872 -0.2809  0.7743
   17PET     C6  471  -0.365   2.240   2.218 -0.3210 -0.4537 -0.2379
   17PET     H4  472  -0.414   2.201   2.129 -1.2329 -1.5061  0.6927
   17PET     H3  473  -0.184   2.136   2.184 -3.3210 -1.1018 -1.1383
   17PET     C3  474  -0.224   2.330   2.460 -0.1030  0.9845 -0.6010
   17PET     H2  475  -0.173   2.353   2.553 -1.3584  0.4454  0.2459
   17PET     C2  476  -0.356   2.365   2.429 -0.1805  0.4600  0.1028
   17PET     H1  477  -0.406   2.424   2.505  0.6218  0.2686  0.7868
   17PET     C1  478  -0.428   2.323   2.310 -0.3927 -0.0986 -0.4707
   17PET     C7  479  -0.574   2.367   2.293  0.0628 -0.9732  0.1271
   17PET     O3  480  -0.643   2.411   2.381  0.2250 -0.2946 -0.5512
   17PET     O4  481  -0.623   2.337   2.168 -0.0010 -0.0568 -0.3064
   17PET    C10  482  -0.769   2.343   2.150 -0.0097 -0.0700 -0.4049
   17PET     H8  483  -0.807   2.440   2.183 -0.1684  0.4675 -2.0804
   17PET     H9  484  -0.819   2.261   2.203  0.8102 -0.9930 -1.0243
   17PET    C11  485  -0.796   2.328   2.000  0.5552  0.5029  0.1698
   17PET    H10  486  -0.742   2.397   1.936 -0.7517  1.9497  0.5596
   17PET    H11  487  -0.900   2.359   1.985  0.1069 -0.5422  0.9238
   17PET    C12  488  -0.774   2.181   1.940 -0.5559 -0.2041 -0.2919
   17PET    H13  489  -0.802   2.190   1.834  1.6713  0.0318 -0.9032
   17PET    H14  490  -0.843   2.109   1.986 -0.2566  0.2070  0.8473
   18PET     C9  491  -0.635   2.125   1.947  0.0404  0.1762 -0.2065
   18PET     H6  492  -0.642   2.021   1.912  1.2086  0.3885 -1.1202
   18PET     H7  493  -0.608   2.127   2.053  2.7617 -0.7142 -0.7796
   18PET     O2  494  -0.544   2.201   1.861  0.0666 -0.0905 -0.0248
   18PET     C8  495  -0.411   2.166   1.864 -0.6000  0.5907 -0.9031
   18PET     O1  496  -0.367   2.068   1.918  0.2678  0.0418  0.2157
   18PET     C4  497  -0.318   2.269   1.793  0.7576 -0.1391  0.4939
   18PET     C5  498  -0.372   2.355   1.693  0.3167 -0.3522  0.4424
   18PET     C6  499  -0.290   2.457   1.643  0.1715  0.0156  0.1638
   18PET     H4  500  -0.329   2.526   1.569 -0.2165 -0.1304  0.2274
   18PET     H3  501  -0.477   2.359   1.667  0.7504  3.3190 -1.3629
   18PET     C3  502  -0.187   2.279   1.832 -0.5513 -1.0444  0.0863
   18PET     H2  503  -0.147   2.235   1.922 -0.3201  0.2537  0.6450
   18PET     C2  504  -0.098   2.368   1.770 -0.1838  0.2677  0.0566
   18PET     H1  505   0.007   2.358   1.795 -0.5298 -2.9016  0.7018
   18PET     C1  506  -0.154   2.454   1.674 -0.4754 -0.5106 -0.1571
   18PET     C7  507  -0.064   2.547   1.591 -0.5534 -0.1034  0.6627
   18PET     O3  508  -0.103   2.597   1.487 -0.0751  0.1976 -0.0518
   18PET     O4  509   0.065   2.552   1.637  0.0809 -0.4123 -0.2324
   18PET    C10  510   0.162   2.624   1.558  0.3383 -0.2706 -0.2872
   18PET     H8  511   0.243   2.659   1.622  0.1495 -0.1475 -0.1144
   18PET     H9  512   0.127   2.713   1.503 -1.5854 -1.6957 -1.5034
   18PET    C11  513   0.207   2.534   1.442  0.0361  0.2491 -0.3793
   18PET    H10  514   0.269   2.586   1.368 -1.2002  0.8411 -1.0331
   18PET    H11  515   0.118   2.503   1.387 -0.3535 -1.6767  1.2182
   18PET    C12  516   0.282   2.407   1.494  0.0153 -0.1726  0.2704
   18PET    H13  517   0.238   2.377   1.589 -1.0531 -1.6548 -0.6548
   18PET    H14  518   0.387   2.428   1.518 -0.3910  1.3199  0.8114
   19PET     C9  519   0.270   2.287   1.398 -0.1546 -0.2395 -0.0225
   19PET     H6  520   0.333   2.202   1.426 -0.2048  0.0087  0.8872
   19PET     H7  521   0.303   2.335   1.305 -0.8429  0.9001  0.3005
   19PET     O2  522   0.135   2.256   1.390  0.1252  0.0420  0.1104
   19PET     C8  523   0.095   2.150   1.466 -0.0801 -0.3504  0.4742
   19PET     O1  524   0.171   2.077   1.536 -0.3215 -0.1997  0.2009
   19PET     C4  525  -0.054   2.134   1.468 -0.3668  0.3669 -0.4276
   19PET     C5  526  -0.107   2.043   1.561 -0.2592  0.0647 -0.2186
   19PET     C6  527  -0.242   2.017   1.572 -0.4967  0.1307  0.1252
   19PET     H4  528  -0.270   1.949   1.651 -0.0356  1.3523  1.3801
   19PET     H3  529  -0.035   1.995   1.627 -1.0014  0.2936  0.7675
   19PET     C3  530  -0.143   2.206   1.386 -0.1380 -0.3917  0.8041
   19PET     H2  531  -0.105   2.276   1.311  1.4085  0.1808  2.0499
   19PET     C2  532  -0.278   2.182   1.399  0.1962  0.2223  0.4094
   19PET     H1  533  -0.347   2.235   1.334  0.4696  1.0449  0.7757
   19PET     C1  534  -0.329   2.085   1.487 -0.1286  0.5436 -0.7997
   19PET     C7  535  -0.474   2.050   1.483 -0.2313 -0.3964  0.3319
   19PET     O3  536  -0.552   2.097   1.402 -0.3495 -0.4866  0.0853
   19PET     O4  537  -0.505   1.951   1.573  0.4682 -0.3224  0.0347
   19PET    C10  538  -0.639   1.902   1.576 -0.7459  0.6684 -0.1472
   19PET     H8  539  -0.667   1.850   1.484 -0.9116 -1.5351  1.0498
   19PET     H9  540  -0.712   1.982   1.593 -0.5922  1.0295 -1.1266
   19PET    C11  541  -0.635   1.798   1.692 -0.1624  0.1061 -0.6495
   19PET    H10  542  -0.585   1.843   1.778 -1.9586  0.2844  0.3511
   19PET    H11  543  -0.569   1.712   1.675  0.2079  0.3946 -0.6796
   19PET    C12  544  -0.772   1.753   1.752 -0.0783 -0.8904 -0.3536
   19PET    H13  545  -0.823   1.698   1.672 -0.5085  0.5464 -1.1058
   19PET    H14  546  -0.827   1.845   1.774  2.2281  0.3752  0.3878
   20PET     C9  547  -0.753   1.660   1.880  0.2155 -0.3971  0.4729
   20PET     H6  548  -0.680   1.584   1.850 -0.8654 -0.3537 -2.6563
   20PET     H7  549  -0.850   1.620   1.913  0.1314  0.3404  1.1482
   20PET     O2  550  -0.696   1.746   1.987  0.3871  0.8352 -0.1083
   20PET     C8  551  -0.780   1.831   2.060  0.3847 -0.0305 -0.1367
   20PET     O1  552  -0.903   1.831   2.041 -0.2994 -0.1292 -0.0461
   20PET     C4  553  -0.715   1.918   2.174  0.9132 -0.5270  0.8239
   20PET     C5  554  -0.795   1.988   2.262 -0.2582 -0.0505 -0.1369
   20PET     C6  555  -0.738   2.041   2.378 -0.3441  0.1108  0.1777
   20PET     H4  556  -0.797   2.081   2.459  1.2479  0.0193  1.4406
   20PET     H3  557  -0.904   1.989   2.253 -0.2450 -1.2683 -0.5310
   20PET     C3  558  -0.575   1.922   2.186 -0.4147 -0.1363  0.4444
   20PET     H2  559  -0.522   1.873   2.105  0.1984 -1.0800  1.3899
   20PET     C2  560  -0.511   1.966   2.306  0.5013 -0.0200  0.2406
   20PET     H1  561  -0.406   1.947   2.325  0.3978 -0.9960 -0.1243
   20PET     C1  562  -0.596   2.031   2.399  0.6885 -0.1549  0.1053
   20PET     C7  563  -0.541   2.081   2.531  0.0772 -0.0231  0.2217
   20PET     O3  564  -0.599   2.155   2.609 -0.0597  0.4944 -0.0913
   20PET     O4  565  -0.415   2.033   2.554 -0.4907 -0.3903 -0.4058
   20PET    C10  566  -0.342   2.067   2.665  0.3751  0.2521 -0.6632
   20PET     H8  567  -0.393   2.044   2.759 -0.2097  0.4813 -0.9204
   20PET     H9  568  -0.326   2.176   2.661  0.7645  0.2256  0.0193
   20PET    C11  569  -0.202   2.006   2.653 -0.0870  0.0137  0.0960
   20PET    H10  570  -0.144   2.054   2.733 -1.0074 -0.5254  1.1225
   20PET    H11  571  -0.161   2.031   2.555 -1.3715 -0.4186 -0.5666
   20PET    C12  572  -0.201   1.855   2.670 -0.0555 -0.1312 -0.1596
   20PET    H13  573  -0.252   1.823   2.762  2.0478 -1.9173  0.4733
   20PET    H14  574  -0.096   1.830   2.686 -0.0515 -0.3267 -0.4795
   21PET     C9  575  -0.247   1.773   2.539  0.0406  0.2517  0.4583
   21PET     H6  576  -0.345   1.796   2.497  0.0695 -2.0112 -1.0098
   21PET     H7  577  -0.239   1.670   2.573  1.5791  0.1745 -0.0242
   21PET     O2  578  -0.142   1.792   2.441  0.2642 -0.0476  0.5477
   21PET     C8  579  -0.154   1.750   2.314  0.2695 -0.0066  0.1721
   21PET     O1  580  -0.263   1.714   2.273 -0.4015 -0.5956 -0.0571
   21PET     C4  581  -0.025   1.756   2.237 -0.3630  0.3815  0.0532
   21PET     C5  582  -0.010   1.701   2.107  0.1659  0.2555 -0.4004
   21PET     C6  583   0.114   1.702   2.041 -0.7236 -0.0233 -0.1806
   21PET     H4  584   0.117   1.645   1.949 -2.5758 -0.2510 -0.1330
   21PET     H3  585  -0.101   1.666   2.060  0.4078  0.0659 -0.7391
   21PET     C3  586   0.094   1.810   2.303  0.5122  0.1663 -0.0017
   21PET     H2  587   0.088   1.860   2.400  1.2939 -1.2304  0.7992
   21PET     C2  588   0.214   1.818   2.230 -0.0751  0.5562  0.3034
   21PET     H1  589   0.295   1.876   2.273 -0.0447 -0.7042  2.0526
   21PET     C1  590   0.234   1.759   2.102  0.5974  0.1095  0.4612
   21PET     C7  591   0.372   1.752   2.032 -0.0288 -0.2588  0.1920
   21PET     O3  592   0.452   1.846   2.041 -0.0212 -0.0004  0.2317
   21PET     O4  593   0.384   1.642   1.951 -0.6409  0.0697 -0.0890
   21PET    C10  594   0.506   1.632   1.869 -1.1085 -0.3822 -0.0655
   21PET     H8  595   0.533   1.530   1.839  0.1415  0.0021 -0.2947
   21PET     H9  596   0.595   1.661   1.926 -1.5846 -1.4966  1.3003
   21PET    C11  597   0.486   1.715   1.743 -0.1390  0.2987  0.5943
   21PET    H10  598   0.491   1.820   1.776 -1.1687 -0.4119  3.3302
   21PET    H11  599   0.381   1.699   1.714  0.2652 -1.5790  0.0291
   21PET    C12  600   0.581   1.675   1.628  0.1675  0.0363 -0.2158
   21PET    H13  601   0.579   1.568   1.603 -0.2731  0.2115 -0.9575
   21PET    H14  602   0.684   1.689   1.664  0.3926  0.1562 -0.8972
   22PET     C9  603   0.556   1.764   1.502  0.0549 -0.0244  0.2969
   22PET     H6  604   0.623   1.728   1.424  2.3679  1.9962  1.2449
   22PET     H7  605   0.588   1.863   1.536  2.3419 -0.8013  0.5719
   22PET     O2  606   0.416   1.764   1.460 -0.4693 -0.3339  0.0631
   22PET     C8  607   0.383   1.863   1.369  0.1520  0.0459  0.4019
   22PET     O1  608   0.465   1.948   1.327  0.1841  0.1816 -0.1969
   22PET     C4  609   0.243   1.864   1.330  0.5863 -0.1345 -0.3493
   22PET     C5  610   0.145   1.775   1.388  0.8145 -0.0701 -0.1819
   22PET     C6  611   0.012   1.779   1.342 -0.0783  0.0459 -0.3296
   22PET     H4  612  -0.056   1.702   1.376 -2.5229  1.3494 -1.9924
   22PET     H3  613   0.166   1.699   1.462 -0.5349 -0.7265 -0.4419
   22PET     C3  614   0.196   1.953   1.231  0.0678 -0.6058  0.3040
   22PET     H2  615   0.269   2.024   1.193 -0.3484 -0.2648  0.1384
   22PET     C2  616   0.061   1.955   1.191  0.0756  0.1443 -0.3403
   22PET     H1  617   0.033   2.030   1.117 -1.4294  1.6164  1.6227
   22PET     C1  618  -0.036   1.869   1.245  0.4681  0.4338  0.2140
   22PET     C7  619  -0.182   1.871   1.200  0.3627  0.1342 -0.4120
   22PET     O3  620  -0.262   1.788   1.244 -0.3813  0.3007 -0.2200
   22PET     O4  621  -0.218   1.959   1.102 -0.1683  0.4465  0.3001
   22PET    C10  622  -0.354   1.963   1.043 -0.3447  0.0408  0.5863
   22PET     H8  623  -0.369   2.054   0.983 -0.1057  0.0428  0.5282
   22PET     H9  624  -0.428   1.965   1.124  0.7066  1.8510  1.5865
   22PET    C11  625  -0.359   1.834   0.954  0.6841 -0.0433  0.2737
   22PET    H10  626  -0.464   1.816   0.931  0.4882  1.3576 -0.0018
   22PET    H11  627  -0.339   1.744   1.014  1.1823 -0.1353 -0.0170
   22PET    C12  628  -0.269   1.848   0.825 -0.1624 -1.5440 -0.7187
   22PET    H13  629  -0.185   1.906   0.864 -0.0763 -1.4813 -0.9977
   22PET    H14  630  -0.331   1.892   0.746  0.7433 -1.2733 -1.2842
   23PET     C9  631  -0.233   1.708   0.773 -0.0379  0.5870 -0.7604
   23PET     H6  632  -0.204   1.714   0.667 -0.8520 -0.0270 -1.0221
   23PET     H7  633  -0.328   1.655   0.768  0.8379 -1.0174 -0.9704
   23PET     O2  634  -0.141   1.652   0.856  0.7693 -0.1496 -0.3327
   23PET     C8  635  -0.011   1.684   0.834 -0.6813  0.7764  0.2612
   23PET     O1  636   0.021   1.771   0.751 -0.2442 -0.5210 -0.1243
   23PET     C4  637   0.083   1.613   0.927 -0.5364  0.8552  0.2206
   23PET     C5  638   0.217   1.603   0.888 -0.5601  0.4460 -0.2619
   23PET     C6  639   0.316   1.563   0.981  0.1646  0.4150  0.3220
   23PET     H4  640   0.420   1.555   0.949 -0.2457 -0.1976 -0.9025
   23PET     H3  641   0.249   1.624   0.786 -0.5400 -3.5227 -1.2348
   23PET     C3  642   0.045   1.582   1.055 -0.4711  0.3040 -0.5993
   23PET     H2  643  -0.059   1.586   1.084  0.0530  1.1907  1.3585
   23PET     C2  644   0.141   1.548   1.152 -0.0754  0.2905  0.0639
   23PET     H1  645   0.114   1.512   1.251 -0.4787  0.8916  0.1756
   23PET     C1  646   0.279   1.538   1.114  0.4075 -0.3252  0.0047
   23PET     C7  647   0.378   1.483   1.210 -0.5430 -0.1962 -0.2146
   23PET     O3  648   0.500   1.517   1.204  0.6414  0.0899 -0.2591
   23PET     O4  649   0.328   1.405   1.312  0.1901  0.2317 -0.2341
   23PET    C10  650   0.403   1.374   1.429 -0.3388 -0.3209  0.1705
   23PET     H8  651   0.459   1.463   1.461 -0.6313 -0.1320  0.1684
   23PET     H9  652   0.477   1.294   1.418 -0.7450 -0.9263  1.6098
   23PET    C11  653   0.311   1.323   1.532  0.2566 -0.0428 -0.0767
   23PET    H10  654   0.246   1.248   1.487 -0.5499  0.8108 -0.3752
   23PET    H11  655   0.240   1.398   1.569  0.8217  0.5345 -0.1326
   23PET    C12  656   0.384   1.265   1.660 -0.3794  0.5089  0.3192
   23PET    H13  657   0.472   1.326   1.683 -0.6404  0.7930  0.5624
   23PET    H14  658   0.423   1.166   1.633 -0.4076  0.3620  0.8124
   24PET     C9  659   0.290   1.233   1.777  0.0150 -0.0490  0.2153
   24PET     H6  660   0.227   1.319   1.803 -0.6145 -0.1978 -0.7885
   24PET     H7  661   0.352   1.206   1.864  0.5392 -0.7312 -0.3519
   24PET     O2  662   0.205   1.127   1.747 -0.2209  0.3556  0.6236
   24PET     C8  663   0.126   1.083   1.848 -0.0059 -0.9416 -0.1573
   24PET     O1  664   0.121   1.141   1.957 -0.3374 -0.0594 -0.0734
   24PET     C4  665   0.035   0.963   1.807 -0.2715 -0.3217 -0.0562
   24PET     C5  666   0.018   0.928   1.671  0.2112 -0.5801 -0.3901
   24PET     C6  667  -0.072   0.830   1.636 -0.5195  0.4265  0.5485
   24PET     H4  668  -0.097   0.828   1.530 -0.5767  1.3300  0.5374
   24PET     H3  669   0.074   0.977   1.592  0.5149  1.1489  0.8263
   24PET     C3  670  -0.031   0.894   1.903 -0.2950 -0.1200  0.3856
   24PET     H2  671  -0.017   0.913   2.009 -0.0118 -1.1827  0.5498
   24PET     C2  672  -0.126   0.795   1.871  0.1652  0.6059 -0.4104
   24PET     H1  673  -0.172   0.736   1.951  0.1812  1.4769  0.2522
   24PET     C1  674  -0.144   0.758   1.737 -0.8741  0.3933  0.1244
   24PET     C7  675  -0.257   0.665   1.691  0.1240  0.3022  0.0484
   24PET     O3  676  -0.332   0.618   1.772  0.3181 -0.2672 -0.1331
   24PET     O4  677  -0.250   0.629   1.561  0.3423  0.5035 -0.3142
   24PET    C10  678  -0.351   0.544   1.502  0.3799  0.3593 -0.1583
   24PET     H8  679  -0.447   0.595   1.514  0.4508  1.1540 -2.4277
   24PET     H9  680  -0.369   0.454   1.562 -1.3118  1.5452  1.2111
   24PET    C11  681  -0.333   0.519   1.353  0.1192 -0.3539 -0.1343
   24PET    H10  682  -0.225   0.538   1.341 -0.1741  1.9598  0.3567
   24PET    H11  683  -0.397   0.599   1.315 -1.0181 -0.0957  2.1393
   24PET    C12  684  -0.383   0.386   1.289  0.1292  0.2091 -0.0008
   24PET    H13  685  -0.489   0.386   1.314  0.3663  0.3347  1.0241
   24PET    H14  686  -0.327   0.303   1.333  0.0642  0.3886  0.4268
   25PEO     C1  687  -0.377   0.379   1.141  0.0193 -0.1182  0.7045
   25PEO     H3  688  -0.269   0.388   1.125  0.0444 -0.0923  0.8845
   25PEO     H4  689  -0.441   0.460   1.104 -0.8320 -1.1883 -0.2150
   25PEO      O  690  -0.425   0.259   1.086  0.0646  0.0302  0.1866
   25PEO     C2  691  -0.455   0.264   0.949 -0.4154  0.2677  0.4258
   25PEO     H5  692  -0.536   0.335   0.927  0.6753  0.8740 -2.0333
   25PEO     H6  693  -0.493   0.168   0.914  1.3208 -1.3262  2.6311
   25PEO     C3  694  -0.333   0.301   0.861 -0.2554  0.0542 -0.3660
   25PEO     H7  695  -0.335   0.253   0.763  0.2512  1.0168 -0.8646
   25PEO     H8  696  -0.239   0.266   0.905 -0.2357 -0.8272 -1.0891
   25PEO     O1  697  -0.330   0.446   0.845  0.1567  0.3755 -0.3133
   25PEO     C4  698  -0.224   0.486   0.762  0.3002  0.0240 -0.4965
   25PEO     H9  699  -0.234   0.440   0.663 -1.3120 -3.0444  0.9370
   25PEO    H10  700  -0.133   0.444   0.807  0.8056  1.0358 -0.5422
   25PEO     C5  701  -0.217   0.640   0.774 -0.2672  0.2372  0.1228
   25PEO    H11  702  -0.318   0.679   0.794 -1.0687 -1.6034 -0.1234
   25PEO    H12  703  -0.177   0.680   0.680 -0.0925 -1.1751 -0.4237
   25PEO     O2  704  -0.122   0.678   0.871  0.0669 -0.4256  0.0516
   25PEO     C6  705  -0.139   0.638   1.006 -0.0395  0.2616 -0.4690
   25PEO    H13  706  -0.143   0.529   1.012  0.6823  0.2404 -0.3445
   25PEO    H14  707  -0.235   0.673   1.047  0.7870  1.6685  0.3455
   25PEO     C7  708  -0.021   0.681   1.096  0.0341 -0.1980  0.0123
   25PEO    H15  709   0.073   0.668   1.041  0.4619  2.0561  0.1241
   25PEO    H16  710  -0.025   0.625   1.190 -2.6631  0.1228  0.1608
   25PEO     O3  711  -0.039   0.820   1.126  0.3473  0.1277  0.0373
   25PEO     C8  712   0.065   0.871   1.209  0.4965 -0.3409 -0.1226
   25PEO    H17  713   0.159   0.878   1.152  0.1997  1.0997 -0.4939
   25PEO    H18  714   0.082   0.812   1.299 -0.3402 -0.7154 -0.1999
   25PEO     C9  715   0.026   1.016   1.251 -0.3458 -0.0462 -0.4819
   25PEO    H19  716   0.085   1.055   1.335 -0.2132 -1.4760  0.1033
   25PEO    H20  717  -0.075   1.002   1.291 -0.2779 -0.5450 -0.4810
   25PEO     O4  718   0.021   1.094   1.137  0.5112 -0.2798  0.0228
   25PEO    C10  719   0.005   1.233   1.170  0.7572 -0.1845  0.3920
   25PEO    H21  720   0.038   1.293   1.085  0.4597 -0.6041 -0.0245
   25PEO    H22  721   0.072   1.257   1.254 -1.5917  0.0324  2.3021
   26PET     C9  722  -0.139   1.267   1.210  0.2270 -0.1218 -0.4226
   26PET     H6  723  -0.206   1.204   1.150  0.4036 -0.5399 -0.1882
   26PET     H7  724  -0.152   1.373   1.188  1.5908  0.6964  2.2809
   26PET     O2  725  -0.161   1.234   1.347 -0.5215  0.0038 -0.3815
   26PET     C8  726  -0.104   1.311   1.438 -0.2749  0.0474  0.3458
   26PET     O1  727  -0.040   1.410   1.414  0.5484 -0.0393 -0.2655
   26PET     C4  728  -0.131   1.263   1.585  0.4213 -0.3873  0.7591
   26PET     C5  729  -0.230   1.165   1.605  0.4195 -0.4140  0.3460
   26PET     C6  730  -0.268   1.136   1.736 -0.1001  0.2953  0.1414
   26PET     H4  731  -0.335   1.054   1.761 -0.0430  0.4925  0.9783
   26PET     H3  732  -0.287   1.122   1.523 -1.6615  0.9575  1.0035
   26PET     C3  733  -0.068   1.336   1.694 -0.1456 -0.8292 -0.1906
   26PET     H2  734   0.000   1.419   1.679 -0.4472 -0.6183 -0.4140
   26PET     C2  735  -0.111   1.301   1.828 -0.4001 -0.1437 -0.1800
   26PET     H1  736  -0.063   1.356   1.910 -0.9887  2.6356 -1.5746
   26PET     C1  737  -0.209   1.200   1.848 -0.1331  0.3988  0.0016
   26PET     C7  738  -0.251   1.147   1.983  0.0011 -0.4576  0.3262
   26PET     O3  739  -0.354   1.081   1.999  0.0930  0.1598  0.0290
   26PET     O4  740  -0.169   1.186   2.082 -0.4143 -0.2068 -0.0315
   26PET    C10  741  -0.187   1.118   2.214 -0.5131  0.2771 -0.5058
   26PET     H8  742  -0.210   1.012   2.194 -1.6241  0.5872 -0.9536
   26PET     H9  743  -0.274   1.152   2.271 -0.5010 -2.6698  1.5135
   26PET    C11  744  -0.058   1.149   2.302 -0.7542  0.2014  0.4051
   26PET    H10  745   0.023   1.181   2.235  1.3186 -0.8407  2.2705
   26PET    H11  746  -0.015   1.056   2.342 -0.6613  0.1175  0.1103
   26PET    C12  747  -0.073   1.252   2.421  0.2190 -0.3458  0.3156
   26PET    H13  748   0.017   1.237   2.483  0.5639  0.9754  0.1570
   26PET    H14  749  -0.170   1.229   2.465  0.2591  0.1479  0.6659
   27PET     C9  750  -0.074   1.402   2.373  0.3972  0.0412  0.1799
   27PET     H6  751  -0.091   1.469   2.458  0.2456 -0.7453  0.7868
   27PET     H7  752  -0.147   1.412   2.291  0.7746 -3.6401 -0.7857
   27PET     O2  753   0.055   1.436   2.310 -0.0240 -0.5206 -0.0121
   27PET     C8  754   0.158   1.453   2.395 -0.4354  0.2503  0.9951
   27PET     O1  755   0.149   1.481   2.511 -0.0009 -0.0923  0.2469
   27PET     C4  756   0.288   1.439   2.327 -0.4566  0.3713 -0.2728
   27PET     C5  757   0.295   1.421   2.186 -0.2595  0.1934 -0.2515
   27PET     C6  758   0.414   1.394   2.119 -0.4712  0.1632 -1.2177
   27PET     H4  759   0.411   1.387   2.010  1.2904  0.6443 -1.3301
   27PET     H3  760   0.208   1.409   2.122 -1.2097  1.1518  0.8254
   27PET     C3  761   0.410   1.441   2.400 -0.4645  0.3478 -0.0045
   27PET     H2  762   0.407   1.458   2.508  0.0699 -1.5399  0.3622
   27PET     C2  763   0.531   1.418   2.333  0.7878 -0.4856  0.0613
   27PET     H1  764   0.625   1.427   2.387  0.7573 -3.8509  0.9104
   27PET     C1  765   0.536   1.401   2.192  0.3944  0.3150  0.1094
   27PET     C7  766   0.676   1.392   2.124  0.4942 -0.0786 -0.1336
   27PET     O3  767   0.780   1.374   2.186  0.2780  0.1725 -0.5471
   27PET     O4  768   0.669   1.386   1.986  0.2090 -0.3599  0.8878
   27PET    C10  769   0.782   1.333   1.920  0.0841  0.8743  0.5754
   27PET     H8  770   0.829   1.242   1.959  1.8259  1.4147 -0.1325
   27PET     H9  771   0.861   1.409   1.928  1.1818 -0.3966  2.6741
   27PET    C11  772   0.752   1.312   1.769  0.3933  0.3546  0.3607
   27PET    H10  773   0.710   1.409   1.738 -1.2239 -0.3555  0.2048
   27PET    H11  774   0.673   1.237   1.757  0.6992 -0.0002  0.5839
   27PET    C12  775   0.875   1.270   1.682  0.6129  0.3073  0.4213
   27PET    H13  776   0.892   1.165   1.710 -0.2059  0.3758  1.1963
   27PET    H14  777   0.964   1.327   1.712 -1.8106  4.5660  0.2517
   28PEO     C1  778   0.853   1.282   1.529  0.0124  0.4163 -0.0417
   28PEO     H3  779   0.782   1.207   1.491  1.7529 -1.9182  1.1215
   28PEO     H4  780   0.946   1.265   1.473 -0.4321  2.0802 -1.3842
   28PEO      O  781   0.813   1.416   1.502  0.4362  0.2865  0.1861
   28PEO     C2  782   0.776   1.457   1.370 -0.7683 -0.2881  0.6877
   28PEO     H5  783   0.708   1.543   1.377 -1.5362 -0.7831 -0.4332
   28PEO     H6  784   0.722   1.380   1.313  1.5516 -0.4800 -1.4124
   28PEO     C3  785   0.902   1.502   1.295  0.3227 -0.1092 -0.0205
   28PEO     H7  786   0.883   1.484   1.189 -1.5349  1.5232 -0.0239
   28PEO     H8  787   0.991   1.444   1.324  0.0386 -0.8100 -0.5577
   28PEO     O1  788   0.918   1.644   1.328 -0.1450  0.3714  0.5473
   28PEO     C4  789   0.984   1.682   1.451 -0.6430 -0.4397  0.3505
   28PEO     H9  790   1.083   1.636   1.462 -0.1050  0.5738 -0.1343
   28PEO    H10  791   0.933   1.656   1.544  0.0230 -0.4115  0.7281
   28PEO     C5  792   0.993   1.838   1.445  0.0785  0.1849 -0.2169
   28PEO    H11  793   1.043   1.867   1.352  0.3276 -1.5500 -0.6681
   28PEO    H12  794   1.060   1.875   1.524 -0.4230  1.1341 -0.2277
   28PEO     O2  795   0.874   1.900   1.462 -0.1140  0.1443  0.4131
   28PEO     C6  796   0.884   2.043   1.482  0.1593 -0.8300 -0.4115
   28PEO    H13  797   0.914   2.099   1.392 -0.8979  2.9394  1.4124
   28PEO    H14  798   0.953   2.078   1.560  1.7756  0.7355 -2.4139
   28PEO     C7  799   0.740   2.094   1.505 -0.3495 -0.4201  0.1911
   28PEO    H15  800   0.669   2.030   1.450  0.6275 -0.5817 -0.9162
   28PEO    H16  801   0.744   2.198   1.471 -2.0372 -0.1416  0.7572
   28PEO     O3  802   0.727   2.079   1.644  0.4704 -0.1532  0.1410
   28PEO     C8  803   0.593   2.089   1.691 -0.6088 -0.2561  0.1775
   28PEO    H17  804   0.593   2.051   1.794  2.0116  0.5373  0.5488
   28PEO    H18  805   0.523   2.027   1.635  2.3169 -3.3093 -0.4385
   28PEO     C9  806   0.549   2.237   1.676 -0.3627  0.2563  0.2210
   28PEO    H19  807   0.445   2.242   1.711 -0.6648 -1.7339 -0.2173
   28PEO    H20  808   0.563   2.268   1.572  1.6540 -2.2890 -0.3921
   28PEO     O4  809   0.617   2.320   1.761  0.0481 -0.0263 -0.7610
   28PEO    C10  810   0.568   2.334   1.900  0.2307  0.1470 -0.2174
   28PEO    H21  811   0.645   2.378   1.964  0.7889 -0.6591 -0.3119
   28PEO    H22  812   0.558   2.234   1.945  0.5968  0.6775  1.0861
   29PEO     C1  813   0.432   2.417   1.913  0.0055  0.0615  0.8288
   29PEO     H3  814   0.395   2.416   2.016 -0.5136  0.6797  0.6503
   29PEO     H4  815   0.359   2.363   1.852  0.6112  0.9008 -0.6840
   29PEO      O  816   0.444   2.553   1.868 -0.6759 -0.1124  0.1972
   29PEO     C2  817   0.533   2.639   1.946 -0.0574  0.2427  0.1108
   29PEO     H5  818   0.552   2.722   1.876  2.1761 -0.6548 -0.4468
   29PEO     H6  819   0.630   2.594   1.969 -0.5574 -0.6109  0.5954
   29PEO     C3  820   0.462   2.700   2.067 -0.3083 -0.3837  0.5488
   29PEO     H7  821   0.541   2.741   2.131 -0.5080  0.5127  0.2270
   29PEO     H8  822   0.412   2.621   2.124  0.1277 -1.8168 -0.9668
   29PEO     O1  823   0.383   2.804   2.030 -0.4437  0.2043  0.7310
   29PEO     C4  824   0.313   2.871   2.139  0.3877 -0.1757 -0.0786
   29PEO     H9  825   0.385   2.920   2.207  1.0349 -0.3470 -0.6340
   29PEO    H10  826   0.259   2.798   2.200  1.2870  1.1666  2.5066
   29PEO     C5  827   0.223   2.986   2.083 -0.7920  0.3637  0.0837
   29PEO    H11  828   0.270   3.035   1.997  0.7469 -1.0544  0.0696
   29PEO    H12  829   0.217   3.060   2.164 -0.1155 -0.7077  1.1444
   29PEO     O2  830   0.090   2.936   2.056 -0.1599 -0.0576  0.6584
   29PEO     C6  831   0.078   2.838   1.955 -0.1428  0.2888  0.5077
   29PEO    H13  832   0.135   2.747   1.978  0.4353  0.7024  0.7246
   29PEO    H14  833   0.124   2.876   1.863  1.5801  0.0208  1.2202
   29PEO     C7  834  -0.073   2.799   1.940  0.4157  0.4729 -0.0182
   29PEO    H15  835  -0.120   2.791   2.038 -0.5906  1.9000 -0.3409
   29PEO    H16  836  -0.080   2.700   1.893 -0.3626  0.0218  1.0250
   29PEO     O3  837  -0.134   2.897   1.853 -0.1331  0.1292 -0.3211
   29PEO     C8  838  -0.256   2.874   1.788  0.9404 -1.1207  0.6792
   29PEO    H17  839  -0.253   2.783   1.727  0.1524  0.0361 -1.1689
   29PEO    H18  840  -0.278   2.958   1.721 -1.6001  0.0400  2.8060
   29PEO     C9  841  -0.375   2.877   1.889  0.4334  0.2318  0.0697
   29PEO    H19  842  -0.469   2.882   1.833 -0.0734 -0.3653  0.8552
   29PEO    H20  843  -0.369   2.964   1.957  1.2120  1.0726 -1.0264
   29PEO     O4  844  -0.380   2.758   1.977 -0.0598 -0.2009 -0.0370
   29PEO    C10  845  -0.405   2.631   1.914  0.5095  0.6962  0.2315
   29PEO    H21  846  -0.322   2.603   1.848  0.3173 -1.3671  0.8003
   29PEO    H22  847  -0.495   2.647   1.854  1.2062  0.3461 -0.9493
   30PET     C9  848  -0.425   2.518   2.022 -0.2738 -0.0529  0.8257
   30PET     H6  849  -0.462   2.428   1.970 -0.8238  0.7804 -0.2651
   30PET     H7  850  -0.506   2.544   2.092  0.2044 -0.4468  1.5341
   30PET     O2  851  -0.295   2.492   2.087 -0.1552 -0.2244  0.4393
   30PET     C8  852  -0.254   2.572   2.182 -0.8226  0.0741 -0.2842
   30PET     O1  853  -0.321   2.657   2.237  0.1218  0.2893  0.1411
   30PET     C4  854  -0.104   2.558   2.218  0.1684  0.0716  0.2447
   30PET     C5  855  -0.018   2.458   2.161 -0.1421 -0.7659  0.0282
   30PET     C6  856   0.120   2.448   2.194 -0.2007  0.4979  0.3847
   30PET     H4  857   0.181   2.374   2.143 -0.4595 -1.8806  3.2316
   30PET     H3  858  -0.053   2.397   2.078  1.1106 -2.7847  0.9014
   30PET     C3  859  -0.053   2.638   2.312  0.3758 -0.3713 -0.4471
   30PET     H2  860  -0.115   2.720   2.350  0.1310  0.1577 -1.9261
   30PET     C2  861   0.085   2.630   2.351 -0.0034  0.2747  0.3497
   30PET     H1  862   0.121   2.691   2.433 -1.3787 -1.0350  2.0037
   30PET     C1  863   0.170   2.529   2.297 -0.1721 -0.6918 -0.8180
   30PET     C7  864   0.313   2.531   2.342  0.3137  0.0732 -0.3954
   30PET     O3  865   0.372   2.626   2.396 -0.3187  0.9083  0.0860
   30PET     O4  866   0.379   2.414   2.305 -0.0303  0.1170 -0.0462
   30PET    C10  867   0.526   2.417   2.319 -0.1177  0.0757 -0.1588
   30PET     H8  868   0.547   2.443   2.423 -0.2883  0.0077 -0.1073
   30PET     H9  869   0.574   2.487   2.249 -1.5430  0.7513 -0.4914
   30PET    C11  870   0.567   2.268   2.307  0.1087 -0.0507  0.0920
   30PET    H10  871   0.547   2.215   2.401 -1.3796 -0.0050 -0.1744
   30PET    H11  872   0.673   2.250   2.285  0.2120 -0.1179  0.6475
   30PET    C12  873   0.487   2.193   2.193  1.2276  0.4979 -0.6941
   30PET    H13  874   0.533   2.095   2.179 -2.3490 -1.5818  0.6909
   30PET    H14  875   0.382   2.183   2.220  1.7183  1.0106  1.5760
   31SOL     OW  876   3.103   3.240   1.921  0.6286  0.1915 -0.2243
   31SOL    HW1  877   3.042   3.245   1.847 -1.4252  0.1225  1.3780
   31SOL    HW2  878   3.087   3.320   1.970  1.7029  0.0607  0.3568
   32SOL     OW  879   1.204   1.664   0.117 -0.2057 -0.0592 -0.0619
   32SOL    HW1  880   1.241   1.656   0.030 -0.2992 -1.0474 -0.0259
   32SOL    HW2  881   1.140   1.592   0.123  1.3946 -1.4538  1.5939
   33SOL     OW  882   1.979   2.081   2.842 -0.0939  0.1587 -0.0020
   33SOL    HW1  883   2.039   2.013   2.810 -0.7883 -0.3294 -0.3089
   33SOL    HW2  884   2.027   2.163   2.831  0.4196 -0.1974 -0.4713
   34SOL     OW  885   0.804   2.172   0.351  0.0094  0.3822 -0.2772
   34SOL    HW1  886   0.730   2.111   0.355  0.3543 -0.0662 -0.5943
   34SOL    HW2  887   0.801   2.218   0.435 -0.0928 -0.2751  0.0899
   35SOL     OW  888   1.727   1.873   1.559 -0.2003  0.7173 -0.2026
   35SOL    HW1  889   1.648   1.895   1.509 -0.7192 -0.4294  0.0806
   35SOL    HW2  890   1.700   1.879   1.650  0.4224  1.6176 -0.0569
   36SOL     OW  891   2.472   0.700   1.961 -0.3699 -0.0725 -0.2350
   36SOL    HW1  892   2.406   0.669   1.900  0.4277 -0.0860 -1.1106
   36SOL    HW2  893   2.422   0.728   2.038 -1.4540  0.5615 -1.1333
   37SOL     OW  894   1.505   3.222   1.145  0.1574  0.1496  0.0224
   37SOL    HW1  895   1.591   3.214   1.187  0.5081  0.8654 -0.5283
   37SOL    HW2  896   1.525   3.234   1.052 -0.5256  0.5179 -0.0839
   38SOL     OW  897   1.289   1.749   1.232  0.3505 -0.1415  0.0297
   38SOL    HW1  898   1.223   1.707   1.177  0.1687 -3.1149  2.2754
   38SOL    HW2  899   1.351   1.787   1.169 -2.1546  0.6512 -2.1360
   39SOL     OW  900   2.118   0.721   1.022  0.4790  0.3391  0.1909
   39SOL    HW1  901   2.177   0.796   1.030  2.0428 -0.7884 -0.2343
   39SOL    HW2  902   2.088   0.724   0.931  0.0886  0.7579  0.3309
   40SOL     OW  903   2.209   0.930   1.854 -0.0784  0.4293  0.1496
   40SOL    HW1  904   2.256   0.945   1.771  1.3951  2.3423  1.2517
   40SOL    HW2  905   2.133   0.878   1.829  0.7051  0.3285 -2.3004
   41SOL     OW  906   1.050   1.466   0.490 -0.0680  0.3503 -0.4569
   41SOL    HW1  907   1.047   1.497   0.400 -3.2105  1.7811  0.0184
   41SOL    HW2  908   1.073   1.543   0.541  1.4610 -0.3966  0.0618
   42SOL     OW  909   1.568   0.851   1.023 -0.2478  0.4962  0.1256
   42SOL    HW1  910   1.640   0.910   0.998 -0.9161  0.6090 -1.6881
   42SOL    HW2  911   1.494   0.910   1.040 -0.0604  0.3515  1.5486
   43SOL     OW  912   1.398   1.763   1.893 -0.3912 -0.6119  0.6360
   43SOL    HW1  913   1.381   1.704   1.968  0.8855  0.0070  1.4443
   43SOL    HW2  914   1.329   1.829   1.899  0.0032 -0.2623  1.6193
   44SOL     OW  915   2.514   0.061   1.881 -0.1998 -0.2279 -0.1463
   44SOL    HW1  916   2.547  -0.028   1.864  0.7311  0.3170 -1.4340
   44SOL    HW2  917   2.566   0.092   1.954  0.2596 -0.3559 -0.4132
   45SOL     OW  918   2.181   1.801   2.140  0.6373  0.0416 -0.3382
   45SOL    HW1  919   2.266   1.825   2.103  1.4481  1.9856  2.4533
   45SOL    HW2  920   2.129   1.881   2.134 -0.1626 -0.4274  0.1624
   46SOL     OW  921   1.162   1.529   1.680  0.4170  0.6406 -0.4967
   46SOL    HW1  922   1.084   1.556   1.728 -0.1550 -1.8179  0.0919
   46SOL    HW2  923   1.225   1.506   1.748  0.3985 -0.6844 -0.9013
   47SOL     OW  924   1.375   1.889   3.290 -0.2210  0.0169 -0.3745
   47SOL    HW1  925   1.457   1.844   3.272 -0.6626 -0.8687 -0.1914
   47SOL    HW2  926   1.344   1.851   3.372 -0.9018  0.2239 -0.5336
   48SOL     OW  927   1.272   0.092   2.410  0.0750  0.0508  0.3870
   48SOL    HW1  928   1.366   0.113   2.410  0.2812 -0.7883  0.1384
   48SOL    HW2  929   1.249   0.084   2.317 -0.4854  1.2228  0.4173
   49SOL     OW  930   0.555   1.542   0.115  0.0622 -0.0083  0.2109
   49SOL    HW1  931   0.615   1.509   0.182  0.7373 -0.2102 -0.4813
   49SOL    HW2  932   0.491   1.471   0.104 -0.1497  0.0907  0.7437
   50SOL     OW  933   1.775   1.850   0.335 -0.3074  0.4555  0.1294
   50SOL    HW1  934   1.766   1.788   0.262  1.9280  0.6184 -0.3656
   50SOL    HW2  935   1.794   1.795   0.411  0.6129  0.4437 -0.0958
   51SOL     OW  936   1.398   2.611   1.615  0.3355  0.1092 -0.5615
   51SOL    HW1  937   1.333   2.632   1.682  0.9854  0.1096  0.0702
   51SOL    HW2  938   1.373   2.525   1.583  0.1316  0.0265 -0.1829
   52SOL     OW  939   0.958   2.099   2.769  0.4646  0.3504 -0.0371
   52SOL    HW1  940   0.935   2.179   2.817 -1.9138  0.2217 -0.8646
   52SOL    HW2  941   0.908   2.030   2.812 -0.3280 -0.0628 -1.5822
   53SOL     OW  942   1.919   1.196   1.008 -0.2552 -0.3649  0.4895
   53SOL    HW1  943   1.876   1.281   1.018  0.2728  0.0837 -0.7687
   53SOL    HW2  944   1.993   1.214   0.949  0.5714 -1.4683  1.1466
   54SOL     OW  945   3.026   2.998   3.107  0.0078  0.5221  0.3241
   54SOL    HW1  946   3.004   3.071   3.049 -0.4919 -0.6208 -1.0030
   54SOL    HW2  947   2.953   2.991   3.168  0.9063  2.2408  1.6753
   55SOL     OW  948   2.412   2.196   1.005  0.2225  0.5272  0.3461
   55SOL    HW1  949   2.465   2.208   1.084 -1.7122  0.3168  1.7686
   55SOL    HW2  950   2.368   2.112   1.019  0.2284  0.2388 -1.2192
   56SOL     OW  951   2.568   1.093   1.122  0.0041 -0.3186 -0.0010
   56SOL    HW1  952   2.643   1.143   1.155 -1.0900  1.3708  0.1008
   56SOL    HW2  953   2.524   1.062   1.202 -0.8389  0.9821  0.0763
   57SOL     OW  954   1.448   1.666   1.646 -0.3654 -0.0158 -0.2405
   57SOL    HW1  955   1.542   1.650   1.656  0.0943  0.6605 -2.7251
   57SOL    HW2  956   1.418   1.691   1.734  1.2488 -2.4704  1.1280
   58SOL     OW  957   2.953   0.007   1.706  0.1090 -0.0093 -0.0608
   58SOL    HW1  958   2.906   0.090   1.714 -2.8004 -1.2879 -1.9988
   58SOL    HW2  959   2.975   0.001   1.613  2.3028 -0.4535  0.4397
   59SOL     OW  960   1.780   2.512   1.429 -0.0408  0.5659  0.2681
   59SOL    HW1  961   1.772   2.481   1.339  1.2706 -2.1679  1.0034
   59SOL    HW2  962   1.718   2.459   1.479  1.7441 -0.4688  1.4794
   60SOL     OW  963   1.132   2.706   2.266 -0.0973  0.3356 -0.0964
   60SOL    HW1  964   1.107   2.777   2.206  1.5021  0.7960 -0.2618
   60SOL    HW2  965   1.225   2.721   2.283  0.7471 -2.6675 -1.4557
   61SOL     OW  966   1.610   1.624   0.171 -0.3617  0.2132  0.2508
   61SOL    HW1  967   1.527   1.642   0.216 -0.3999 -1.0868  0.7600
   61SOL    HW2  968   1.617   1.693   0.105 -1.2685  1.0284  0.9695
   62SOL     OW  969   1.487   0.657   1.876 -0.5016  0.2532  0.0650
   62SOL    HW1  970   1.525   0.570   1.891 -0.2205  0.1461 -1.2122
   62SOL    HW2  971   1.561   0.717   1.881 -0.6661  0.4165  0.7384
   63SOL     OW  972   0.573   2.409   3.030  0.0958  0.2767 -0.3533
   63SOL    HW1  973   0.569   2.314   3.021  1.7286  0.1035  0.3716
   63SOL    HW2  974   0.539   2.426   3.118 -1.7282  0.5655 -1.0536
   64SOL     OW  975   1.797   2.771   1.544 -0.1642  0.0354 -0.4385
   64SOL    HW1  976   1.701   2.775   1.540 -0.2969 -1.3947  0.4962
   64SOL    HW2  977   1.820   2.693   1.495  0.4392 -0.2367  0.2539
   65SOL     OW  978   2.251   0.956   1.016 -0.3947  0.3703  0.0111
   65SOL    HW1  979   2.310   0.940   0.942  0.3043  1.0724  0.4071
   65SOL    HW2  980   2.220   1.045   1.003 -1.1837  0.0951 -0.0525
   66SOL     OW  981   2.776   2.755   0.452  0.2272  0.3412  0.6336
   66SOL    HW1  982   2.684   2.773   0.474 -0.3672 -0.4971 -0.9620
   66SOL    HW2  983   2.777   2.661   0.432  1.3083  0.4533  0.1163
   67SOL     OW  984   0.326   2.882   0.119 -0.0111  0.7588 -0.1493
   67SOL    HW1  985   0.388   2.811   0.101 -1.2145 -0.0530 -1.3230
   67SOL    HW2  986   0.380   2.960   0.122  1.0240  0.1933 -1.9810
   68SOL     OW  987   1.877   0.360   1.022  0.0321 -0.4954  0.5448
   68SOL    HW1  988   1.854   0.359   1.115  0.6811 -0.5603  0.7046
   68SOL    HW2  989   1.826   0.433   0.986  2.1211  1.5730  1.5745
   69SOL     OW  990   1.605   0.257   2.109  0.1175 -0.4172 -0.1769
   69SOL    HW1  991   1.509   0.257   2.102  0.0222  1.9128  0.2652
   69SOL    HW2  992   1.622   0.258   2.203  0.5978 -0.8418 -0.2544
   70SOL     OW  993   1.593   1.268   1.497  0.4677 -0.4306  0.0655
   70SOL    HW1  994   1.633   1.194   1.451  1.2478 -0.7350  1.2050
   70SOL    HW2  995   1.524   1.229   1.550  1.4570 -0.4985  1.3558
   71SOL     OW  996   0.705   0.515   1.748 -0.0048  0.4054 -0.3125
   71SOL    HW1  997   0.627   0.545   1.796 -1.1347 -0.5658 -1.4811
   71SOL    HW2  998   0.710   0.422   1.767  2.4222  0.8576  1.8106
   72SOL     OW  999   1.050   1.398   2.262 -0.3815  0.4887 -0.0584
   72SOL    HW1 1000   0.968   1.383   2.216  0.1735  2.6279 -1.9264
   72SOL    HW2 1001   1.037   1.479   2.310  0.0782 -0.0955  1.0935
   73SOL     OW 1002   2.410   1.823   2.871  0.0214  0.1774  0.5759
   73SOL    HW1 1003   2.392   1.915   2.886  1.0601  0.3511  0.8559
   73SOL    HW2 1004   2.505   1.819   2.856 -0.3223 -0.5054 -2.0138
   74SOL     OW 1005   2.963   0.032   3.079 -0.3789  0.1725  0.1985
   74SOL    HW1 1006   2.913   0.113   3.069  0.7024  0.9209  0.6136
   74SOL    HW2 1007   2.958   0.011   3.172  0.8158  0.7819  0.4270
   75SOL     OW 1008   2.083   1.548   0.606 -0.2776  0.3486 -0.8299
   75SOL    HW1 1009   2.088   1.455   0.626 -0.7306  0.4384 -0.2573
   75SOL    HW2 1010   2.155   1.587   0.656 -0.0290  0.2938 -1.1453
   76SOL     OW 1011   2.847   3.262   0.964 -0.2368  0.2132 -0.3005
   76SOL    HW1 1012   2.838   3.191   0.902  1.0233 -1.5597  1.4265
   76SOL    HW2 1013   2.757   3.288   0.984 -0.6773  0.0366 -1.9483
   77SOL     OW 1014   1.389   1.502   2.177  0.0251 -0.3317  0.3205
   77SOL    HW1 1015   1.472   1.528   2.137  0.3917 -1.9152 -0.0133
   77SOL    HW2 1016   1.321   1.541   2.122  0.5343 -0.0241 -0.0915
   78SOL     OW 1017   1.292   1.345   0.248  0.7395 -0.3017 -0.3794
   78SOL    HW1 1018   1.313   1.352   0.342 -0.0282 -0.7721 -0.1614
   78SOL    HW2 1019   1.350   1.407   0.206  1.2576 -0.2430  0.3931
   79SOL     OW 1020   1.049   2.868   0.532 -0.2731 -0.6906 -0.2868
   79SOL    HW1 1021   1.017   2.790   0.577 -0.0770 -0.3220  0.5062
   79SOL    HW2 1022   0.983   2.935   0.548  0.6531 -0.0430  1.0185
   80SOL     OW 1023   0.155   2.827   3.234 -0.6196  0.5928 -0.0915
   80SOL    HW1 1024   0.215   2.863   3.299 -1.5602 -0.9161  1.7267
   80SOL    HW2 1025   0.093   2.898   3.215 -0.6100  0.9255  1.0566
   81SOL     OW 1026   0.821   2.776   1.574  0.0318  0.4380 -0.0157
   81SOL    HW1 1027   0.781   2.857   1.540 -0.7014  0.5107  0.9776
   81SOL    HW2 1028   0.754   2.709   1.562 -0.9009  0.7728  2.6430
   82SOL     OW 1029   2.693   0.555   1.987 -0.0367  0.4321  0.1127
   82SOL    HW1 1030   2.637   0.495   1.938  0.9358 -0.7324  0.3888
   82SOL    HW2 1031   2.642   0.636   1.992 -1.0805 -0.1298 -0.8864
   83SOL     OW 1032   2.419   2.604   2.531 -0.4921  0.1804 -0.2363
   83SOL    HW1 1033   2.408   2.639   2.619  0.7170 -0.0823  0.0455
   83SOL    HW2 1034   2.423   2.509   2.543  2.0850  0.2029 -0.1994
   84SOL     OW 1035   2.581   3.302   2.276 -0.2030  0.2068 -0.4539
   84SOL    HW1 1036   2.630   3.331   2.199 -0.1617  1.0444 -0.1204
   84SOL    HW2 1037   2.648   3.267   2.335 -0.2378 -0.4672 -0.7939
   85SOL     OW 1038   3.013   3.243   1.452 -0.3303 -0.3467  0.0070
   85SOL    HW1 1039   3.109   3.247   1.452 -0.1925 -1.7582  2.2781
   85SOL    HW2 1040   2.987   3.301   1.381  2.2262 -1.2858 -1.8465
   86SOL     OW 1041   1.757   0.620   0.974  0.5036  0.4333  0.0921
   86SOL    HW1 1042   1.683   0.665   1.015 -0.2275 -1.9253  1.5760
   86SOL    HW2 1043   1.817   0.691   0.950 -0.5474  2.2254  2.2731
   87SOL     OW 1044   1.781   1.060   1.418 -0.2439 -0.4536 -0.3282
   87SOL    HW1 1045   1.839   1.046   1.342  0.1015  0.8319 -0.3150
   87SOL    HW2 1046   1.839   1.054   1.494 -0.4792 -1.0889 -0.1897
   88SOL     OW 1047   2.798   0.875   2.058 -0.1220 -0.0906 -0.5860
   88SOL    HW1 1048   2.773   0.841   1.972 -0.2280 -0.2324 -0.4985
   88SOL    HW2 1049   2.880   0.922   2.042 -0.6231  0.6861 -0.9485
   89SOL     OW 1050   0.756   0.521   0.907 -0.1183  0.2309  0.3401
   89SOL    HW1 1051   0.740   0.520   0.813 -2.0881  1.1980  0.6088
   89SOL    HW2 1052   0.806   0.601   0.922 -0.3589  0.4125  0.1772
   90SOL     OW 1053   3.008   3.337   1.187 -0.3661  0.3088 -0.3028
   90SOL    HW1 1054   2.931   3.322   1.131 -0.5442  0.3155 -0.0635
   90SOL    HW2 1055   3.041   3.422   1.160  0.1606 -0.1425 -1.1044
   91SOL     OW 1056   1.873   0.851   0.740 -0.1314  0.1777 -0.3139
   91SOL    HW1 1057   1.923   0.884   0.665 -0.0351 -1.2212 -0.8971
   91SOL    HW2 1058   1.829   0.772   0.707 -0.1475 -0.4245  1.0718
   92SOL     OW 1059   1.951   1.063   1.654  0.2608  0.1297 -0.0768
   92SOL    HW1 1060   1.968   0.977   1.693  1.5666  0.2493 -0.3380
   92SOL    HW2 1061   1.959   1.124   1.727 -0.4705  0.0559  0.0703
   93SOL     OW 1062   0.072   3.188   3.074 -0.4055 -0.2909 -0.4680
   93SOL    HW1 1063   0.021   3.160   2.998 -0.3121 -0.2031 -0.5630
   93SOL    HW2 1064   0.040   3.133   3.145 -1.4427  0.5480 -0.2625
   94SOL     OW 1065   1.623   0.302   0.777 -0.2543 -0.5248  0.3743
   94SOL    HW1 1066   1.592   0.392   0.772 -1.0020 -0.7125  1.2926
   94SOL    HW2 1067   1.551   0.253   0.816 -0.2104 -1.7112 -0.9428
   95SOL     OW 1068   1.691   1.214   2.160 -0.2315  0.0538 -0.0457
   95SOL    HW1 1069   1.598   1.205   2.143 -0.2865 -2.2257  1.1237
   95SOL    HW2 1070   1.732   1.147   2.105  0.5195 -0.3299  0.9627
   96SOL     OW 1071   2.030   2.582   1.182 -0.1107  0.3056  0.1488
   96SOL    HW1 1072   2.046   2.545   1.269  0.5713 -0.7814 -0.4153
   96SOL    HW2 1073   2.000   2.671   1.199 -1.6066 -0.4138  1.5592
   97SOL     OW 1074   1.493   1.453   0.966 -0.1474 -0.0840  0.3282
   97SOL    HW1 1075   1.497   1.375   0.911  1.1732 -0.1623  0.4871
   97SOL    HW2 1076   1.529   1.425   1.050  0.4573  0.7106  0.3480
   98SOL     OW 1077   1.808   1.975   2.275  0.0403  1.0170 -0.1157
   98SOL    HW1 1078   1.785   2.058   2.316 -1.8059  0.2897  0.4283
   98SOL    HW2 1079   1.815   1.913   2.348  2.2019  0.7958 -0.4246
   99SOL     OW 1080   1.614   0.832   1.477  0.4885  0.5716 -0.0099
   99SOL    HW1 1081   1.662   0.906   1.440  1.2874 -0.0129 -0.1737
   99SOL    HW2 1082   1.678   0.761   1.480 -0.0405  0.1202  0.9095
  100SOL     OW 1083   2.727   0.740   1.202  0.0519 -0.2886 -0.0709
  100SOL    HW1 1084   2.739   0.678   1.273  0.4465  0.3260  0.4019
  100SOL    HW2 1085   2.696   0.820   1.244  0.7747  0.2408 -0.5275
  101SOL     OW 1086   2.383   0.355   0.549  0.3126 -0.0047  0.2752
  101SOL    HW1 1087   2.397   0.260   0.556 -0.5422 -0.1505  0.1167
  101SOL    HW2 1088   2.336   0.378   0.629 -0.3865  0.1024 -0.1555
  102SOL     OW 1089   2.910   0.488   0.121 -0.2973  0.3835  0.2741
  102SOL    HW1 1090   2.901   0.547   0.046  0.0655 -0.3294 -0.3423
  102SOL    HW2 1091   2.995   0.445   0.108 -1.2583 -1.4885 -0.1743
  103SOL     OW 1092   1.446   1.162   1.763 -0.3572 -0.3580  0.0143
  103SOL    HW1 1093   1.404   1.106   1.829 -0.7326  0.4440  0.4701
  103SOL    HW2 1094   1.462   1.244   1.809 -1.2793  0.4671 -1.0973
  104SOL     OW 1095   0.969   0.386   1.513  0.0125  0.1478  0.0063
  104SOL    HW1 1096   0.936   0.476   1.522 -0.2732 -0.0292  0.8075
  104SOL    HW2 1097   1.040   0.380   1.577 -0.8296 -0.5900  0.8961
  105SOL     OW 1098   2.074   3.062   1.166 -0.2973 -0.2321 -0.7651
  105SOL    HW1 1099   2.127   3.113   1.105 -2.0731  1.3919 -1.0750
  105SOL    HW2 1100   2.066   3.118   1.243  0.7447 -1.6629  0.4117
  106SOL     OW 1101   2.707   0.205   3.332 -0.1514  0.1286  0.0984
  106SOL    HW1 1102   2.692   0.288   3.378  1.1794  0.6794 -0.4034
  106SOL    HW2 1103   2.620   0.165   3.326 -0.4929  0.3514  2.4398
  107SOL     OW 1104   2.814   2.439   0.675  0.3335  0.8759 -0.1121
  107SOL    HW1 1105   2.781   2.354   0.701 -1.6529  1.9049  0.9081
  107SOL    HW2 1106   2.907   2.437   0.700 -0.2587 -0.0917  2.2429
  108SOL     OW 1107   0.481   0.244   3.281  0.8294  0.3485  0.2100
  108SOL    HW1 1108   0.447   0.306   3.346  0.4325  2.5897 -1.9909
  108SOL    HW2 1109   0.407   0.188   3.259  1.1436 -0.9146  2.0873
  109SOL     OW 1110   1.237   0.460   0.818 -0.6871  0.2133  0.3167
  109SOL    HW1 1111   1.191   0.478   0.900 -0.3984 -2.0685  1.0554
  109SOL    HW2 1112   1.169   0.470   0.751 -1.4677  0.0815  1.0596
  110SOL     OW 1113   0.747   1.761   0.351  0.1242 -0.0244  0.1843
  110SOL    HW1 1114   0.674   1.817   0.324 -0.1804 -0.1054  0.8305
  110SOL    HW2 1115   0.727   1.676   0.313  0.2111  0.1147 -0.1785
  111SOL     OW 1116   1.137   0.858   2.666  0.1168 -0.3464 -0.1946
  111SOL    HW1 1117   1.065   0.881   2.607 -0.5708 -0.9656  0.3730
  111SOL    HW2 1118   1.155   0.766   2.646 -1.6424 -1.2676  2.0301
  112SOL     OW 1119   1.943   2.252   3.148 -0.2612  0.0248 -0.5038
  112SOL    HW1 1120   1.898   2.227   3.229  0.1272  1.7816  0.2865
  112SOL    HW2 1121   2.029   2.210   3.156 -0.3937 -0.2020 -0.2261
  113SOL     OW 1122   1.527   0.324   1.544  0.0339 -0.0960 -0.3282
  113SOL    HW1 1123   1.443   0.366   1.526  0.7696  1.6663  0.1429
  113SOL    HW2 1124   1.590   0.370   1.487  1.1502  0.5951  1.3899
  114SOL     OW 1125   2.525   1.917   0.262 -0.5448  0.2427  0.2754
  114SOL    HW1 1126   2.516   1.929   0.357 -1.1357  1.4181  0.0838
  114SOL    HW2 1127   2.518   2.005   0.226 -1.8769 -0.3514 -0.9915
  115SOL     OW 1128   0.650   2.521   1.369 -0.3296 -0.1491 -0.1720
  115SOL    HW1 1129   0.598   2.524   1.449 -0.5537 -1.5542 -0.2415
  115SOL    HW2 1130   0.670   2.613   1.350  1.0963  0.1556  2.3648
  116SOL     OW 1131   0.893   0.165   0.698  0.1294 -0.4964  0.3036
  116SOL    HW1 1132   0.813   0.215   0.681  0.6054  0.4646  0.8055
  116SOL    HW2 1133   0.881   0.083   0.650 -0.3746  0.3696 -1.0833
  117SOL     OW 1134   2.024   2.722   1.938  0.1178 -0.2159 -0.2306
  117SOL    HW1 1135   2.098   2.737   1.996  0.4136  0.6242 -0.8152
  117SOL    HW2 1136   2.058   2.665   1.869  0.5022  0.9459 -1.0275
  118SOL     OW 1137   0.756   0.359   0.160  0.2581 -0.2362 -0.0136
  118SOL    HW1 1138   0.784   0.291   0.221  0.5782  0.2184  0.3497
  118SOL    HW2 1139   0.695   0.413   0.211 -0.7337 -0.7858 -0.5746
  119SOL     OW 1140   1.389   1.707   0.310 -0.1502  0.2503 -0.1710
  119SOL    HW1 1141   1.409   1.800   0.310  0.3632  0.1504  0.5978
  119SOL    HW2 1142   1.320   1.697   0.244  0.6093  0.9806 -1.0982
  120SOL     OW 1143   2.015   1.311   2.171 -0.0575  0.0837 -0.2916
  120SOL    HW1 1144   2.012   1.406   2.154  0.8477  0.2897  0.6586
  120SOL    HW2 1145   1.936   1.277   2.128 -0.9236  1.4026  0.2035
  121SOL     OW 1146   0.802   0.097   1.592 -1.1597  0.0653  0.0288
  121SOL    HW1 1147   0.766   0.159   1.656 -1.3748 -1.8945  1.9140
  121SOL    HW2 1148   0.893   0.085   1.619 -0.9812 -0.0610 -0.6190
  122SOL     OW 1149   2.989   3.068   1.093 -0.0753 -0.3588 -0.3281
  122SOL    HW1 1150   3.051   3.117   1.146  0.8742 -0.6773 -1.1125
  122SOL    HW2 1151   2.942   3.134   1.043  0.6166 -0.1760 -0.7591
  123SOL     OW 1152   1.258   1.770   2.704 -0.0253 -0.3341  0.3979
  123SOL    HW1 1153   1.270   1.852   2.751  0.9569  0.1646 -0.6788
  123SOL    HW2 1154   1.208   1.715   2.764  1.7564  0.0181  2.3127
  124SOL     OW 1155   2.950   0.289   0.464 -0.0394  0.0930 -0.1972
  124SOL    HW1 1156   2.893   0.334   0.526 -1.0106 -1.2714 -0.0593
  124SOL    HW2 1157   2.908   0.305   0.379  0.8025  1.2232 -0.4125
  125SOL     OW 1158   1.071   2.396   1.205 -0.2319  0.1927  0.4128
  125SOL    HW1 1159   1.023   2.391   1.288  0.8762 -2.3769  1.0139
  125SOL    HW2 1160   1.127   2.474   1.215 -1.7435  1.2413  1.0947
  126SOL     OW 1161   0.936   0.213   3.334  0.5910 -0.1006  0.5614
  126SOL    HW1 1162   0.873   0.264   3.385  0.6381  0.2776  0.2468
  126SOL    HW2 1163   0.922   0.241   3.244  0.6617 -0.6007  0.3886
  127SOL     OW 1164   0.386   1.273   0.142 -0.0966 -0.1398 -0.0376
  127SOL    HW1 1165   0.323   1.217   0.189 -0.5214  0.1787 -0.2176
  127SOL    HW2 1166   0.471   1.237   0.164 -0.2559  0.3193  1.3900
  128SOL     OW 1167   1.923   0.135   1.590  0.0205 -0.3435  0.6942
  128SOL    HW1 1168   2.002   0.125   1.643  0.3964 -0.0661  0.1962
  128SOL    HW2 1169   1.883   0.048   1.590  1.4633 -1.0561 -0.8237
  129SOL     OW 1170   1.894   1.218   1.901 -0.0649  0.4989 -0.5281
  129SOL    HW1 1171   1.836   1.155   1.944  0.8267  0.2795  0.3778
  129SOL    HW2 1172   1.845   1.300   1.902 -0.9623 -0.0071 -1.1220
  130SOL     OW 1173   0.107   3.149   0.660  0.1515  0.1195 -0.7333
  130SOL    HW1 1174   0.138   3.080   0.602  0.5643 -0.4210  0.1078
  130SOL    HW2 1175   0.046   3.200   0.607 -0.0288 -0.7952 -1.4188
  131SOL     OW 1176   2.292   2.494   1.410  0.2406 -0.2314 -0.4092
  131SOL    HW1 1177   2.256   2.413   1.374  0.1099 -0.5029  0.3156
  131SOL    HW2 1178   2.216   2.541   1.443  0.5175 -0.8233  1.1591
  132SOL     OW 1179   2.028   3.174   2.549  0.0541  0.4797 -0.0288
  132SOL    HW1 1180   2.016   3.191   2.456  1.5332 -0.0301 -0.3285
  132SOL    HW2 1181   2.094   3.105   2.554 -0.8268 -0.3333  1.3746
  133SOL     OW 1182   2.718   2.740   0.799  0.1268  0.3397  0.1708
  133SOL    HW1 1183   2.783   2.755   0.730  1.1120 -1.9465  0.5298
  133SOL    HW2 1184   2.769   2.710   0.874 -1.2275 -0.1064  0.9447
  134SOL     OW 1185   1.957   0.347   1.391 -0.1945 -0.0640 -0.0384
  134SOL    HW1 1186   1.877   0.399   1.394 -0.2507 -0.0913 -0.7512
  134SOL    HW2 1187   1.955   0.296   1.472 -0.1932  0.9406  0.6135
  135SOL     OW 1188   1.036   2.007   1.047  0.3885 -0.2961 -0.2439
  135SOL    HW1 1189   1.020   1.964   0.963 -0.4214  1.0152 -0.7866
  135SOL    HW2 1190   0.956   1.992   1.097  0.3056  0.1386 -0.2455
  136SOL     OW 1191   0.406   2.665   2.784 -0.1243 -0.2221  0.2451
  136SOL    HW1 1192   0.366   2.671   2.870 -0.7160  1.8985 -0.1278
  136SOL    HW2 1193   0.332   2.661   2.723  0.2798 -2.1309 -0.2017
  137SOL     OW 1194   0.856   2.672   0.685  0.0544  0.2169  0.4715
  137SOL    HW1 1195   0.895   2.614   0.620 -0.9119  0.3895 -0.2763
  137SOL    HW2 1196   0.766   2.684   0.657 -0.0243  1.3482  1.1205
  138SOL     OW 1197   2.617   0.102   0.278 -0.1103 -0.2974 -0.1040
  138SOL    HW1 1198   2.649   0.122   0.190  1.1172 -1.0145  0.1529
  138SOL    HW2 1199   2.639   0.180   0.330  1.2158 -0.7551  0.0521
  139SOL     OW 1200   2.068   1.934   0.241 -0.1788  0.4828 -0.1957
  139SOL    HW1 1201   2.130   1.966   0.176  0.8670  1.7161  1.3198
  139SOL    HW2 1202   2.062   1.840   0.225 -0.0887  0.7638 -2.1351
  140SOL     OW 1203   0.404   1.860   2.532 -0.4291 -0.2882  0.0310
  140SOL    HW1 1204   0.478   1.824   2.483  0.1083 -0.1809  0.7404
  140SOL    HW2 1205   0.440   1.934   2.581 -1.0128 -0.2076  0.3608
  141SOL     OW 1206   0.745   2.330   0.619  0.5494 -0.0050 -0.1016
  141SOL    HW1 1207   0.717   2.374   0.700  0.8591  1.3040 -0.6776
  141SOL    HW2 1208   0.839   2.321   0.629  0.4711 -0.6436  0.0593
  142SOL     OW 1209   3.273   0.402   3.180  0.2594  0.5467 -0.4838
  142SOL    HW1 1210   3.269   0.395   3.275  0.3469 -0.3932 -0.5437
  142SOL    HW2 1211   3.361   0.436   3.162  1.7624 -2.8919 -0.3812
  143SOL     OW 1212   0.651   3.209   1.082  0.3341  0.1299  0.0521
  143SOL    HW1 1213   0.613   3.161   1.155 -0.3776  2.5796  1.4011
  143SOL    HW2 1214   0.745   3.210   1.101  0.2792 -0.1438  0.3491
  144SOL     OW 1215   1.653   1.779   3.041  0.0676 -0.3415 -0.1548
  144SOL    HW1 1216   1.683   1.863   3.005 -1.9632  1.2044  1.5313
  144SOL    HW2 1217   1.565   1.767   3.006 -0.1772 -1.1093  0.6880
  145SOL     OW 1218   0.940   3.277   0.523 -0.1221  0.2701 -0.0088
  145SOL    HW1 1219   0.946   3.271   0.428  0.1618  1.5051 -0.0751
  145SOL    HW2 1220   1.029   3.262   0.554 -0.0026  0.9820 -0.0032
  146SOL     OW 1221   1.362   2.891   2.678  0.3740  0.1662 -0.1541
  146SOL    HW1 1222   1.296   2.833   2.641  0.4736 -0.0349 -0.0191
  146SOL    HW2 1223   1.444   2.862   2.638  0.7231 -1.0397  1.3165
  147SOL     OW 1224   2.735   2.330   2.813 -0.3362  0.2013 -0.3999
  147SOL    HW1 1225   2.742   2.404   2.753 -0.1051 -0.3196 -1.0229
  147SOL    HW2 1226   2.754   2.254   2.759  0.7323 -0.2079  0.5226
  148SOL     OW 1227   1.518   2.089   0.900 -0.1754 -0.0517  0.2823
  148SOL    HW1 1228   1.534   2.014   0.843 -0.7488  0.2593 -0.2917
  148SOL    HW2 1229   1.474   2.153   0.845  0.6376  0.8716  0.6669
  149SOL     OW 1230   2.393   1.263   0.982  0.1541  0.3138 -0.2025
  149SOL    HW1 1231   2.450   1.202   1.028 -0.2301  0.1832  0.1031
  149SOL    HW2 1232   2.384   1.337   1.043  2.0485  1.4988 -1.2717
  150SOL     OW 1233   2.942   3.127   2.784  0.1297 -0.6953 -0.0078
  150SOL    HW1 1234   3.013   3.191   2.795 -0.5274 -0.2145  1.7204
  150SOL    HW2 1235   2.982   3.055   2.736  1.3386  0.2938 -0.5433
  151SOL     OW 1236   1.216   1.360   1.069 -0.0680  0.0075 -0.0464
  151SOL    HW1 1237   1.154   1.433   1.076  1.2491  1.2074 -0.4261
  151SOL    HW2 1238   1.298   1.401   1.040  0.3406 -1.8101 -1.6341
  152SOL     OW 1239   1.338   3.063   1.460 -0.3404  0.3190 -0.3276
  152SOL    HW1 1240   1.352   2.973   1.432  0.0169  0.2441  0.0971
  152SOL    HW2 1241   1.421   3.091   1.497 -0.0073  1.3067 -1.7540
  153SOL     OW 1242   2.980   0.185   0.102  0.3937  0.0357 -0.1845
  153SOL    HW1 1243   2.890   0.174   0.072  0.5941  0.5418 -0.9966
  153SOL    HW2 1244   3.033   0.137   0.038  0.9117  1.9831 -1.3001
  154SOL     OW 1245   3.222   3.139   2.164 -0.4149  0.0637  0.8542
  154SOL    HW1 1246   3.170   3.178   2.094 -0.9813 -0.6149  0.8874
  154SOL    HW2 1247   3.277   3.073   2.120 -0.6846 -0.2793  1.0277
  155SOL     OW 1248   1.560   2.589   1.037 -0.0214  0.3383  0.2100
  155SOL    HW1 1249   1.591   2.582   0.946 -0.1882  2.2537 -0.0361
  155SOL    HW2 1250   1.590   2.675   1.066  1.4434 -0.8587  2.5581
  156SOL     OW 1251   1.466   0.778   0.663 -0.1179  0.1482 -0.1059
  156SOL    HW1 1252   1.511   0.711   0.715  1.2346  2.3302  1.7553
  156SOL    HW2 1253   1.408   0.821   0.725 -0.0854  1.4333 -0.9254
  157SOL     OW 1254   2.332   1.022   1.604  0.1452 -0.5752 -0.5635
  157SOL    HW1 1255   2.408   0.973   1.636  0.4261 -0.5349 -1.1632
  157SOL    HW2 1256   2.353   1.113   1.626 -0.6955 -0.7600  1.2003
  158SOL     OW 1257   1.060   1.347   2.700  0.3199 -0.2388  0.4869
  158SOL    HW1 1258   1.051   1.275   2.762 -3.2106  0.9084  1.5165
  158SOL    HW2 1259   0.970   1.370   2.675  1.4408  1.4396 -2.6615
  159SOL     OW 1260   1.228   2.075   1.614  0.4502  0.3152  0.2451
  159SOL    HW1 1261   1.204   2.135   1.545 -1.0444  0.2991  0.7207
  159SOL    HW2 1262   1.266   2.000   1.569  3.4982  2.0262 -0.2994
  160SOL     OW 1263   2.157   0.046   1.712  0.1117 -0.1200  0.9326
  160SOL    HW1 1264   2.218   0.022   1.642 -0.8769  1.1567 -0.4237
  160SOL    HW2 1265   2.128  -0.037   1.748  1.3494 -0.7866  0.4692
  161SOL     OW 1266   0.304   2.050   3.086  0.0570 -0.1011 -0.4906
  161SOL    HW1 1267   0.238   2.056   3.155 -0.5257 -1.6165 -0.8862
  161SOL    HW2 1268   0.270   1.985   3.025  0.5354  1.2529 -2.2751
  162SOL     OW 1269   1.360   1.004   1.098 -0.2832 -0.1761  0.0032
  162SOL    HW1 1270   1.286   1.016   1.038  0.5196  1.7752 -0.6726
  162SOL    HW2 1271   1.339   1.059   1.173 -0.2346 -0.8659  0.5304
  163SOL     OW 1272   1.208   2.295   2.257 -0.3862 -0.0043 -0.0064
  163SOL    HW1 1273   1.198   2.211   2.211 -1.5423  0.2597 -0.2880
  163SOL    HW2 1274   1.201   2.361   2.187 -4.0245  0.5030  0.5978
  164SOL     OW 1275   0.570   2.084   2.677  0.1997 -0.5118  0.3753
  164SOL    HW1 1276   0.570   2.180   2.683 -3.1085 -0.1876 -1.8801
  164SOL    HW2 1277   0.654   2.062   2.637  1.2442  1.3479  1.3839
  165SOL     OW 1278   0.322   2.897   1.262  0.0321  0.0256 -0.0969
  165SOL    HW1 1279   0.232   2.869   1.280  0.6175 -1.0820  1.2401
  165SOL    HW2 1280   0.348   2.848   1.184 -0.7462  0.9170 -0.9496
  166SOL     OW 1281   2.172   2.262   1.317  0.6558 -0.3351 -0.1463
  166SOL    HW1 1282   2.203   2.175   1.341  0.1114 -0.0192  1.9138
  166SOL    HW2 1283   2.077   2.252   1.307  0.6573 -0.0790 -0.4297
  167SOL     OW 1284   1.843   0.674   1.460 -0.1446  0.2582 -0.1673
  167SOL    HW1 1285   1.911   0.695   1.395  0.4199  1.4240  0.7466
  167SOL    HW2 1286   1.892   0.641   1.535 -0.5060  1.6404  0.7095
  168SOL     OW 1287   2.173   2.114   3.149  0.4440  0.0489 -0.3363
  168SOL    HW1 1288   2.182   2.103   3.244  0.1044 -0.1609 -0.3270
  168SOL    HW2 1289   2.177   2.025   3.114  0.0977  0.0870 -0.4755
  169SOL     OW 1290   1.739   1.709   1.081  0.1722  0.6300 -0.5675
  169SOL    HW1 1291   1.654   1.687   1.120  0.9933 -0.6789  0.5422
  169SOL    HW2 1292   1.771   1.783   1.133 -0.3340  1.2585 -1.1124
  170SOL     OW 1293   0.581   3.256   1.551 -0.7277 -0.6346  0.3553
  170SOL    HW1 1294   0.515   3.325   1.559 -0.7161 -0.7134  1.1531
  170SOL    HW2 1295   0.664   3.303   1.545 -0.9073 -0.4886 -1.7116
  171SOL     OW 1296   2.437   2.273   0.759 -0.1266 -0.4409  0.6943
  171SOL    HW1 1297   2.457   2.234   0.845 -0.3908 -1.1082  0.4592
  171SOL    HW2 1298   2.346   2.299   0.765  0.3817  1.3442  1.2886
  172SOL     OW 1299   2.692   2.600   1.450  0.0410 -0.2358 -0.1573
  172SOL    HW1 1300   2.716   2.686   1.484 -2.0009  0.3543 -0.0677
  172SOL    HW2 1301   2.648   2.619   1.367  0.2107 -1.2716 -0.4992
  173SOL     OW 1302   2.487   3.012   2.552  0.4572 -0.5493 -0.3172
  173SOL    HW1 1303   2.478   2.995   2.459  0.1733 -1.1753 -0.1783
  173SOL    HW2 1304   2.574   3.052   2.561  1.3612 -2.3750 -0.5938
  174SOL     OW 1305   1.151   2.847   2.490 -0.7157  0.6611  0.1393
  174SOL    HW1 1306   1.065   2.839   2.531 -0.8332 -0.6671 -0.3168
  174SOL    HW2 1307   1.163   2.764   2.443  0.7238  0.9113  0.0268
  175SOL     OW 1308   1.314   1.418   2.426 -0.1239  0.1257 -0.5501
  175SOL    HW1 1309   1.226   1.451   2.441  0.2706  0.3268  1.6918
  175SOL    HW2 1310   1.329   1.431   2.332 -3.0491 -1.4531 -1.3611
  176SOL     OW 1311   2.608   1.194   0.655  0.0856 -0.1261  0.2351
  176SOL    HW1 1312   2.594   1.137   0.580  0.7788  0.2552 -0.1947
  176SOL    HW2 1313   2.630   1.135   0.727  1.4982 -0.3751 -0.3719
  177SOL     OW 1314   1.267   0.785   1.729 -0.0699  0.0997 -0.6075
  177SOL    HW1 1315   1.333   0.765   1.796 -0.2633 -0.9933 -0.7255
  177SOL    HW2 1316   1.308   0.759   1.647 -0.5674 -0.3647 -0.7066
  178SOL     OW 1317   1.009   2.731   0.915  0.0994 -0.2155 -0.3927
  178SOL    HW1 1318   0.949   2.696   0.850  0.5686 -3.1974  0.6133
  178SOL    HW2 1319   1.093   2.737   0.870 -0.0060 -0.3583 -0.6067
  179SOL     OW 1320   2.789   1.690   1.203 -0.5175  0.2901 -0.1327
  179SOL    HW1 1321   2.814   1.607   1.164 -1.7954 -0.8936  1.4554
  179SOL    HW2 1322   2.868   1.720   1.249  0.0500  0.1594 -1.0041
  180SOL     OW 1323   0.204   0.113   0.656 -0.3134  0.1486 -0.2251
  180SOL    HW1 1324   0.254   0.072   0.584  1.1047  0.7071  0.4052
  180SOL    HW2 1325   0.258   0.097   0.734 -2.1212 -0.9767  0.8536
  181SOL     OW 1326   1.036   2.694   3.151 -0.2159  0.0354 -0.1009
  181SOL    HW1 1327   1.109   2.745   3.186  0.1513 -0.4587 -0.1252
  181SOL    HW2 1328   1.069   2.604   3.148  0.0614  0.1472 -2.4606
  182SOL     OW 1329   1.084   2.140   2.458 -0.1768  0.1032 -0.0070
  182SOL    HW1 1330   1.097   2.196   2.535  0.4302  0.9415 -0.7041
  182SOL    HW2 1331   1.091   2.200   2.384  0.0305 -0.8348 -0.7521
  183SOL     OW 1332   0.810   0.681   0.388  0.2019  0.3824 -0.3093
  183SOL    HW1 1333   0.905   0.692   0.392  0.5184 -2.0403  0.7907
  183SOL    HW2 1334   0.776   0.738   0.457  0.9593  0.4486  0.0229
  184SOL     OW 1335   0.618   1.287   0.449 -0.3277 -0.3659  0.2460
  184SOL    HW1 1336   0.563   1.320   0.520 -0.3399  0.6876 -0.2458
  184SOL    HW2 1337   0.571   1.209   0.418 -0.5893 -0.5397  1.0367
  185SOL     OW 1338   1.699   1.374   2.412 -0.0915  0.0626 -0.1034
  185SOL    HW1 1339   1.654   1.456   2.393 -0.7657 -0.4435 -0.7315
  185SOL    HW2 1340   1.694   1.324   2.330  1.3012 -0.1497 -0.0890
  186SOL     OW 1341   1.021   2.912   2.102 -0.1361  0.5845 -0.0805
  186SOL    HW1 1342   1.042   2.958   2.021 -1.8738  1.1167 -0.2798
  186SOL    HW2 1343   1.019   2.981   2.169  1.0216  0.1906  0.3800
  187SOL     OW 1344   1.322   3.301   1.327 -0.2904  0.3277 -0.3566
  187SOL    HW1 1345   1.319   3.218   1.376 -1.7198  0.1193 -0.7513
  187SOL    HW2 1346   1.364   3.279   1.244  0.8170  0.3670  0.1788
  188SOL     OW 1347   2.249   0.748   1.504  0.1074 -0.0859  0.0845
  188SOL    HW1 1348   2.290   0.834   1.501  1.1031 -0.5595 -0.4532
  188SOL    HW2 1349   2.191   0.745   1.427 -0.3386  0.2895  0.4014
  189SOL     OW 1350   2.481   3.031   2.024 -0.2358  0.2788  0.3168
  189SOL    HW1 1351   2.414   3.099   2.021 -0.8131 -0.1139  2.4412
  189SOL    HW2 1352   2.453   2.967   1.959 -2.1773 -0.0601  1.4055
  190SOL     OW 1353   2.659   1.006   2.881  0.1042  0.0879 -0.0694
  190SOL    HW1 1354   2.599   1.044   2.945 -1.6392 -0.7822 -1.1066
  190SOL    HW2 1355   2.605   0.993   2.803  1.9770  0.4660 -1.5050
  191SOL     OW 1356   1.809   1.942   1.197 -0.0558 -0.2193  0.1244
  191SOL    HW1 1357   1.824   1.990   1.279 -0.5665  0.5042 -0.1982
  191SOL    HW2 1358   1.812   2.009   1.129 -1.0826 -0.5945 -0.3062
  192SOL     OW 1359   1.556   1.760   2.760 -0.1705 -0.2724  0.1394
  192SOL    HW1 1360   1.644   1.734   2.788  0.0993  0.7954  0.3381
  192SOL    HW2 1361   1.570   1.838   2.706 -1.0024 -0.0092  0.2843
  193SOL     OW 1362   0.662   3.249   2.975  0.0560  0.5945 -0.4002
  193SOL    HW1 1363   0.579   3.294   2.988 -0.4430  0.0710 -1.5667
  193SOL    HW2 1364   0.663   3.180   3.041  0.0390  1.2128  0.2650
  194SOL     OW 1365   2.067   2.701   2.656  0.3403  0.0637 -0.1826
  194SOL    HW1 1366   2.020   2.656   2.726  1.4782  0.3900  0.8312
  194SOL    HW2 1367   2.120   2.767   2.701 -0.2481  1.5123 -1.5037
  195SOL     OW 1368   1.132   2.296   1.492 -0.3978  0.3540 -0.2769
  195SOL    HW1 1369   1.151   2.329   1.580 -2.2736 -0.5622  0.5089
  195SOL    HW2 1370   1.037   2.306   1.482 -0.3978 -0.7295 -1.7037
  196SOL     OW 1371   2.318   0.592   1.736 -0.1005 -0.5821 -0.5980
  196SOL    HW1 1372   2.292   0.654   1.667  1.5028 -1.2524 -1.8480
  196SOL    HW2 1373   2.252   0.523   1.732 -0.2683 -0.3951 -1.1558
  197SOL     OW 1374   1.794   1.750   2.424 -0.0432 -0.3093 -0.3151
  197SOL    HW1 1375   1.706   1.718   2.404 -0.2197  0.0685 -0.1619
  197SOL    HW2 1376   1.852   1.677   2.404 -0.3025 -0.2676 -1.2546
  198SOL     OW 1377   2.072   2.289   1.906  0.0753 -0.4026  0.7313
  198SOL    HW1 1378   1.982   2.292   1.938  0.3393  1.2116  1.4344
  198SOL    HW2 1379   2.124   2.270   1.984  0.4101 -0.4478  0.4979
  199SOL     OW 1380   2.211   0.412   1.315 -0.6206 -0.2587  0.9523
  199SOL    HW1 1381   2.220   0.441   1.224 -0.5932 -0.3171  0.9366
  199SOL    HW2 1382   2.117   0.399   1.326 -0.5544 -1.0037  0.7004
  200SOL     OW 1383   0.002   2.879   2.817  0.1492  0.2106  0.0416
  200SOL    HW1 1384   0.008   2.974   2.831  0.7122  0.1569  0.1700
  200SOL    HW2 1385  -0.043   2.846   2.895 -0.3236  0.4058 -0.1436
  201SOL     OW 1386   3.154   2.938   0.446  0.3013  0.2105 -0.3995
  201SOL    HW1 1387   3.196   3.014   0.486  0.4940  0.8866 -1.8230
  201SOL    HW2 1388   3.064   2.967   0.431  0.2667  0.0131 -0.5674
  202SOL     OW 1389   1.417   1.683   0.864  0.5405 -0.2641  0.6027
  202SOL    HW1 1390   1.448   1.596   0.890  0.1187 -0.5120  0.3028
  202SOL    HW2 1391   1.323   1.671   0.848  0.5992  0.0971 -0.0647
  203SOL     OW 1392   1.509   2.521   2.158  0.7059  0.1292  0.1313
  203SOL    HW1 1393   1.561   2.440   2.164 -1.3380 -1.4557 -1.9046
  203SOL    HW2 1394   1.460   2.523   2.240  0.2218 -1.1589 -0.0912
  204SOL     OW 1395   3.231   1.966   1.893 -0.6570 -0.0691 -0.4254
  204SOL    HW1 1396   3.275   2.048   1.917  0.2052 -1.3761  3.0221
  204SOL    HW2 1397   3.138   1.987   1.895 -0.4175  1.0765 -0.6856
  205SOL     OW 1398   0.635   2.588   2.647 -0.2748 -0.1363  0.0501
  205SOL    HW1 1399   0.695   2.602   2.720 -1.5384  0.0189  1.1098
  205SOL    HW2 1400   0.548   2.591   2.688 -1.0142  0.0477 -1.4848
  206SOL     OW 1401   2.714   2.097   0.961  0.3261 -0.0619  0.5785
  206SOL    HW1 1402   2.695   2.045   0.883  0.2321  0.1462  0.4604
  206SOL    HW2 1403   2.650   2.067   1.026  0.6695 -0.5201  0.7062
  207SOL     OW 1404   2.846   3.127   2.309  0.5875  0.0223 -0.6249
  207SOL    HW1 1405   2.913   3.060   2.303  1.0559  0.3867  0.3069
  207SOL    HW2 1406   2.804   3.128   2.223  0.6664 -1.3523 -0.6952
  208SOL     OW 1407   1.490   1.187   0.842 -0.3427  0.3943 -0.1222
  208SOL    HW1 1408   1.583   1.168   0.849 -0.1632  0.7004 -1.4778
  208SOL    HW2 1409   1.447   1.102   0.855  0.1844  0.0429 -0.6424
  209SOL     OW 1410   2.626   0.964   2.257 -0.4237  0.2009 -0.3069
  209SOL    HW1 1411   2.681   0.961   2.335 -1.9116 -1.0121  0.7571
  209SOL    HW2 1412   2.682   0.931   2.187  0.9078  1.2229  0.2208
  210SOL     OW 1413   0.914   3.338   2.376  0.2024 -0.0739 -0.0400
  210SOL    HW1 1414   0.931   3.381   2.292 -0.1170 -1.5709 -0.9081
  210SOL    HW2 1415   0.818   3.331   2.381  0.1751  0.8551  0.9023
  211SOL     OW 1416   0.858   0.791   2.912  0.0487  0.3216 -0.2223
  211SOL    HW1 1417   0.828   0.752   2.830 -0.8349  1.2768 -0.3826
  211SOL    HW2 1418   0.820   0.736   2.980 -1.1230  0.8127 -0.4438
  212SOL     OW 1419   1.186   1.897   3.066  0.4165 -0.6741 -0.4682
  212SOL    HW1 1420   1.268   1.920   3.109  0.3285  0.6862 -0.9782
  212SOL    HW2 1421   1.145   1.833   3.125  1.7036 -1.1703 -0.0836
  213SOL     OW 1422   2.582   0.674   0.068 -0.2974 -0.1190 -0.2710
  213SOL    HW1 1423   2.500   0.703   0.109 -0.3743 -0.4435 -0.1911
  213SOL    HW2 1424   2.592   0.730  -0.008  0.3214  1.1179  0.6873
  214SOL     OW 1425   0.206   2.182   3.311 -0.3452  0.4096 -0.1007
  214SOL    HW1 1426   0.139   2.180   3.379 -1.3477  0.7445 -1.0540
  214SOL    HW2 1427   0.211   2.273   3.284  1.1844  0.5606  0.6023
  215SOL     OW 1428   0.006   2.543   0.211  0.2851 -0.0271  0.0558
  215SOL    HW1 1429  -0.081   2.541   0.171  0.1910 -1.0959  0.2956
  215SOL    HW2 1430  -0.007   2.589   0.294 -0.4036 -1.5923  0.8556
  216SOL     OW 1431   0.353   3.172   2.385  0.0802  0.1619 -0.5030
  216SOL    HW1 1432   0.350   3.268   2.386 -0.3570  0.1692  1.4376
  216SOL    HW2 1433   0.440   3.151   2.419  0.2997 -0.1397 -1.2420
  217SOL     OW 1434   0.271   0.913   2.878 -0.1356 -0.1423  0.2974
  217SOL    HW1 1435   0.361   0.939   2.898 -0.8341  2.6059  0.2690
  217SOL    HW2 1436   0.255   0.949   2.790 -1.1397 -0.9247  0.1522
  218SOL     OW 1437   2.458   0.339   2.301 -0.5104 -0.7811 -0.1301
  218SOL    HW1 1438   2.413   0.386   2.231 -0.4087  0.0379  0.3443
  218SOL    HW2 1439   2.551   0.348   2.279 -0.4841 -0.6269  0.0415
  219SOL     OW 1440   2.462   1.116   0.196 -0.0860  0.0926  0.2813
  219SOL    HW1 1441   2.533   1.075   0.245 -1.1642 -0.0784  1.7596
  219SOL    HW2 1442   2.444   1.197   0.244  0.2518  1.0190 -1.0927
  220SOL     OW 1443   1.383   2.784   1.135  0.4022  0.6408 -0.0898
  220SOL    HW1 1444   1.310   2.731   1.167  1.7513 -1.0900  0.2518
  220SOL    HW2 1445   1.386   2.766   1.041  1.0992 -0.2129  0.0900
  221SOL     OW 1446   1.724   2.180   2.422  0.1237 -0.4794  0.0765
  221SOL    HW1 1447   1.773   2.256   2.451 -1.4679  0.2853  0.9048
  221SOL    HW2 1448   1.672   2.154   2.498  1.7115 -3.3724  0.3215
  222SOL     OW 1449   0.548   0.908   2.945 -0.0817 -0.3609 -0.3217
  222SOL    HW1 1450   0.604   0.912   2.867 -0.1629 -1.0195 -0.4235
  222SOL    HW2 1451   0.551   0.816   2.971 -1.1805 -0.4155 -0.3680
  223SOL     OW 1452   1.555   3.139   1.620 -0.1174  0.1114 -0.2171
  223SOL    HW1 1453   1.554   3.068   1.684 -1.1629 -0.0579 -0.4050
  223SOL    HW2 1454   1.648   3.155   1.604  0.1397 -1.1336 -0.0771
  224SOL     OW 1455   1.992   1.033   1.223  0.2642  0.3041  0.2143
  224SOL    HW1 1456   2.059   1.072   1.279 -0.5833  0.9797  0.7732
  224SOL    HW2 1457   1.991   1.088   1.145 -1.2230  1.7195  1.1755
  225SOL     OW 1458   1.126   1.079   0.957  0.1293  0.0063  0.5161
  225SOL    HW1 1459   1.147   1.172   0.970 -0.4300  0.3100 -0.6109
  225SOL    HW2 1460   1.038   1.069   0.993  0.9980 -0.6225  2.6445
  226SOL     OW 1461   0.812   0.230   1.334 -0.3176 -0.2011  0.0433
  226SOL    HW1 1462   0.791   0.157   1.392  2.1002 -1.1242 -0.1243
  226SOL    HW2 1463   0.852   0.296   1.391  0.0259 -0.1848 -0.2072
  227SOL     OW 1464   1.122   0.474   1.054  0.0844 -0.0759 -0.0800
  227SOL    HW1 1465   1.164   0.448   1.137 -1.1744  0.8780  0.8947
  227SOL    HW2 1466   1.053   0.410   1.041  0.2623 -0.2063 -0.3691
  228SOL     OW 1467   2.489   1.133   2.097 -0.2260 -0.0314 -0.0662
  228SOL    HW1 1468   2.541   1.148   2.018  0.4997  0.8303  0.5560
  228SOL    HW2 1469   2.545   1.078   2.152 -0.7160 -0.6044 -0.1285
  229SOL     OW 1470   2.547   1.208   1.399  0.6854  0.0822  0.5788
  229SOL    HW1 1471   2.570   1.286   1.348  1.0850  1.3162  2.5315
  229SOL    HW2 1472   2.470   1.235   1.449  0.6669 -0.8787  1.0813
  230SOL     OW 1473   2.557   1.331   0.336  0.3669 -0.8395 -0.4633
  230SOL    HW1 1474   2.582   1.314   0.427  2.5627 -0.2977 -0.9142
  230SOL    HW2 1475   2.519   1.419   0.339 -1.9051 -1.7447  0.2552
  231SOL     OW 1476   3.005   2.503   0.300  0.1388  0.7417 -0.3252
  231SOL    HW1 1477   3.037   2.509   0.210 -0.7785  0.4565 -0.6871
  231SOL    HW2 1478   3.072   2.546   0.353  1.5713 -0.6469 -0.9350
  232SOL     OW 1479   2.100   1.271   1.543  0.6478 -0.1452  0.6026
  232SOL    HW1 1480   2.050   1.197   1.580 -2.2064  0.8280 -0.9803
  232SOL    HW2 1481   2.056   1.349   1.577  0.8298  0.7767 -1.1514
  233SOL     OW 1482   2.408   3.246   2.983  0.3322  0.7124  0.0756
  233SOL    HW1 1483   2.425   3.255   2.890  0.9346 -0.2863  0.0771
  233SOL    HW2 1484   2.485   3.201   3.018  0.1957  1.2276  1.0906
  234SOL     OW 1485   1.486   0.203   1.787 -0.5579 -0.4078  0.6756
  234SOL    HW1 1486   1.506   0.259   1.862 -3.6545 -0.8013  1.9681
  234SOL    HW2 1487   1.511   0.256   1.711  0.7633  0.8500  1.9109
  235SOL     OW 1488   2.204   2.721   2.123  0.0369 -0.0847 -0.1447
  235SOL    HW1 1489   2.294   2.690   2.111  0.1373  0.0942  0.1205
  235SOL    HW2 1490   2.195   2.730   2.218  0.2449  1.3633 -0.2446
  236SOL     OW 1491   2.841   2.629   1.024  0.0474 -0.4844  0.0132
  236SOL    HW1 1492   2.794   2.546   1.024  0.1682 -0.5539  0.2369
  236SOL    HW2 1493   2.800   2.680   1.094 -1.5074  0.5015 -1.5346
  237SOL     OW 1494   3.204   3.265   2.422 -0.3480  0.3863  0.1363
  237SOL    HW1 1495   3.228   3.214   2.345  1.6685  0.9456  0.3334
  237SOL    HW2 1496   3.264   3.340   2.420 -1.4778  1.3527  1.2695
  238SOL     OW 1497   2.418   0.886   0.776 -0.1590 -0.2834 -0.0364
  238SOL    HW1 1498   2.407   0.961   0.717  0.1247 -1.1552 -1.2324
  238SOL    HW2 1499   2.503   0.900   0.818  0.2153 -0.2860 -0.7888
  239SOL     OW 1500   0.298   0.947   3.324  0.3786  0.0075 -0.0126
  239SOL    HW1 1501   0.246   1.027   3.323 -0.1552 -0.2977 -2.1060
  239SOL    HW2 1502   0.268   0.898   3.246  2.1468 -1.2613  0.0414
  240SOL     OW 1503   0.687   1.676   1.057  0.0087 -0.5182  0.4748
  240SOL    HW1 1504   0.695   1.675   0.962 -0.8562  0.5792  0.3664
  240SOL    HW2 1505   0.610   1.623   1.076  1.9313 -3.3820  0.8404
  241SOL     OW 1506   0.102   0.726   2.768  0.1536  0.1666  0.1235
  241SOL    HW1 1507   0.173   0.761   2.822 -0.4250 -0.4970  1.3673
  241SOL    HW2 1508   0.022   0.746   2.818 -0.4604  0.1252 -0.8227
  242SOL     OW 1509   1.736   1.402   0.647  0.3659  0.0310 -0.0354
  242SOL    HW1 1510   1.682   1.476   0.623  0.2173  0.4529  1.4920
  242SOL    HW2 1511   1.734   1.400   0.743  3.1612  0.1730  0.1297
  243SOL     OW 1512   2.514   2.262   0.407  0.1779  0.0666  0.0464
  243SOL    HW1 1513   2.426   2.229   0.428 -0.1649  0.4495 -0.7661
  243SOL    HW2 1514   2.566   2.240   0.484 -0.4447 -0.8500  0.2224
  244SOL     OW 1515   1.722   2.055   0.597  0.1583  0.3500 -0.0106
  244SOL    HW1 1516   1.686   1.993   0.660 -1.0055  2.4272  1.5015
  244SOL    HW2 1517   1.805   2.016   0.571 -0.7438 -2.0662  0.4307
  245SOL     OW 1518   1.073   0.404   2.059  0.2847  0.1016  0.4132
  245SOL    HW1 1519   1.036   0.318   2.036 -0.1470 -0.0814  1.6992
  245SOL    HW2 1520   1.023   0.466   2.006 -0.1651 -0.3547  0.2888
  246SOL     OW 1521   2.107   0.647   0.556 -0.2777  0.0334  0.2333
  246SOL    HW1 1522   2.066   0.728   0.528  1.8880  0.5722 -1.6837
  246SOL    HW2 1523   2.198   0.654   0.527  0.3006 -2.5580  1.0941
  247SOL     OW 1524   1.328   3.316   1.688  0.4500  0.0872 -0.3227
  247SOL    HW1 1525   1.404   3.269   1.653  0.1688 -0.8419  0.2905
  247SOL    HW2 1526   1.365   3.396   1.726  1.3859 -1.1526  1.5276
  248SOL     OW 1527   0.221   1.689   2.670 -0.1657  0.2464 -0.1893
  248SOL    HW1 1528   0.291   1.732   2.620  1.4254 -2.8043 -0.8103
  248SOL    HW2 1529   0.187   1.623   2.610 -2.8606  0.8716  0.5363
  249SOL     OW 1530   1.682   0.476   1.355 -0.4266  0.0386  0.4892
  249SOL    HW1 1531   1.639   0.533   1.292  1.7041  0.3050 -0.8318
  249SOL    HW2 1532   1.748   0.532   1.396  0.8588 -1.1207  0.0749
  250SOL     OW 1533   1.964   0.720   2.054  0.1691  0.1623 -0.1256
  250SOL    HW1 1534   1.917   0.656   2.107 -0.8193  0.5310 -0.5207
  250SOL    HW2 1535   2.019   0.768   2.116  0.9508 -1.0708  0.1694
  251SOL     OW 1536   0.657   0.234   2.193 -0.3880  0.3082  0.4546
  251SOL    HW1 1537   0.719   0.179   2.145 -1.5108 -1.8351  1.3628
  251SOL    HW2 1538   0.713   0.296   2.241  0.9354 -0.3490 -0.1795
  252SOL     OW 1539   1.762   2.709   1.905  0.5723  0.5536 -0.5746
  252SOL    HW1 1540   1.723   2.628   1.873 -0.1516  0.5890  0.1836
  252SOL    HW2 1541   1.846   2.682   1.942  1.5570  0.5465 -2.6519
  253SOL     OW 1542   1.097   1.799   0.601 -0.3317 -0.4250  0.2674
  253SOL    HW1 1543   1.057   1.782   0.516 -1.0888  1.4894  0.2011
  253SOL    HW2 1544   1.161   1.868   0.585 -0.2401 -0.2744  1.1846
  254SOL     OW 1545   2.853   0.864   1.535  0.0880 -0.6175 -0.2107
  254SOL    HW1 1546   2.892   0.904   1.458  0.8431 -1.9577 -0.5633
  254SOL    HW2 1547   2.777   0.817   1.502  1.5219 -2.8691 -0.5613
  255SOL     OW 1548   1.651   1.861   2.070 -0.2794  0.2098 -0.2574
  255SOL    HW1 1549   1.717   1.887   2.134  0.3576 -0.6503 -0.5403
  255SOL    HW2 1550   1.586   1.932   2.072 -0.8710 -0.2904  2.1301
  256SOL     OW 1551   0.839   0.986   3.231  0.0140  0.0534 -0.2273
  256SOL    HW1 1552   0.878   0.977   3.317  1.2016  1.3501 -0.5841
  256SOL    HW2 1553   0.861   0.905   3.185 -2.6140 -1.6960  1.3490
  257SOL     OW 1554   1.643   0.721   2.149  0.0203 -0.4044  0.5767
  257SOL    HW1 1555   1.678   0.778   2.218  2.2571  0.4357 -1.1297
  257SOL    HW2 1556   1.702   0.645   2.149  0.7934  0.1447 -1.1026
  258SOL     OW 1557   0.501   2.060   0.032  0.4461 -0.4571  0.0567
  258SOL    HW1 1558   0.497   1.970  -0.001 -0.1328  0.0741 -1.4378
  258SOL    HW2 1559   0.414   2.095   0.014  1.3712  1.1284 -1.6797
  259SOL     OW 1560   0.498   2.666   0.129  0.3317  0.6095 -0.5499
  259SOL    HW1 1561   0.585   2.698   0.152  1.0297 -0.3011 -1.7994
  259SOL    HW2 1562   0.490   2.583   0.175  0.2493  0.5447 -0.6815
  260SOL     OW 1563   1.744   0.986   2.008 -0.0476 -0.1620 -0.3637
  260SOL    HW1 1564   1.757   0.907   2.060 -1.7349  0.2789  0.8578
  260SOL    HW2 1565   1.703   0.956   1.928 -2.2778 -0.4628  0.8038
  261SOL     OW 1566   1.818   0.261   0.278  0.3345 -0.0565 -0.0633
  261SOL    HW1 1567   1.896   0.307   0.307  0.6723 -1.1220  0.7909
  261SOL    HW2 1568   1.758   0.264   0.353  0.0213 -0.2536 -0.2984
  262SOL     OW 1569   2.222   1.739   0.036  0.1677  0.0956 -0.3523
  262SOL    HW1 1570   2.164   1.663   0.034 -0.2454  0.3773  0.5261
  262SOL    HW2 1571   2.296   1.710   0.090  0.4969 -0.0223 -0.8672
  263SOL     OW 1572   2.397   1.674   1.418 -0.0477  0.6563 -0.1572
  263SOL    HW1 1573   2.352   1.634   1.344 -0.4329  1.2795 -0.2731
  263SOL    HW2 1574   2.352   1.641   1.495  0.0383  0.3838 -0.2244
  264SOL     OW 1575   3.338   0.128   2.768  0.6088  0.2187 -0.3960
  264SOL    HW1 1576   3.348   0.115   2.674  0.4192 -0.4106 -0.3307
  264SOL    HW2 1577   3.244   0.115   2.784  0.6255  0.4079 -0.1325
  265SOL     OW 1578   2.267   3.319   1.470 -0.7715  0.1819  0.4722
  265SOL    HW1 1579   2.344   3.265   1.457 -1.0079 -0.1634  0.4893
  265SOL    HW2 1580   2.300   3.409   1.473 -0.4182  0.0639  0.1061
  266SOL     OW 1581   2.807   2.834   1.560  0.0265 -0.0683  0.1802
  266SOL    HW1 1582   2.894   2.841   1.522  0.1270  1.8236  0.6613
  266SOL    HW2 1583   2.766   2.919   1.542 -1.1279 -0.3420  1.3567
  267SOL     OW 1584   2.898   2.689   2.920  0.0130 -0.6181  0.1339
  267SOL    HW1 1585   2.942   2.639   2.852  0.9996 -1.9420  1.6795
  267SOL    HW2 1586   2.869   2.769   2.876  2.0887 -0.6549 -1.4395
  268SOL     OW 1587   2.350   1.473   0.035 -0.1764  0.5436  0.3386
  268SOL    HW1 1588   2.315   1.442   0.119 -0.6861 -0.5158 -0.2349
  268SOL    HW2 1589   2.442   1.491   0.053 -0.0766 -0.4521  0.9528
  269SOL     OW 1590   0.198   0.541   3.163  0.0346 -0.6173  0.0611
  269SOL    HW1 1591   0.245   0.495   3.093  1.9211  0.3125  0.6450
  269SOL    HW2 1592   0.204   0.634   3.138 -0.7273 -0.4070  0.6305
  270SOL     OW 1593   0.635   0.320   0.674 -0.1597 -0.2654 -0.3309
  270SOL    HW1 1594   0.583   0.320   0.594  0.8581  1.4739 -1.0419
  270SOL    HW2 1595   0.601   0.246   0.725 -1.2582 -1.0082 -2.0685
  271SOL     OW 1596   1.342   1.871   1.480  0.2132  0.2458  0.2105
  271SOL    HW1 1597   1.373   1.805   1.543 -1.2667  0.2041  0.9419
  271SOL    HW2 1598   1.292   1.821   1.416 -2.4104  0.7299  1.7180
  272SOL     OW 1599   0.864   3.148   1.684 -0.0050  0.6789  0.1836
  272SOL    HW1 1600   0.895   3.231   1.649 -1.9772  1.0348 -0.8692
  272SOL    HW2 1601   0.928   3.083   1.654  0.3306  1.5081 -0.9193
  273SOL     OW 1602   1.822   2.041   1.903  0.6691 -0.0341 -0.5314
  273SOL    HW1 1603   1.807   2.126   1.944  1.5354  0.3117 -0.9312
  273SOL    HW2 1604   1.739   2.020   1.860  0.0158 -0.0134  0.6658
  274SOL     OW 1605   2.588   0.671   1.563  0.4897 -0.0853 -0.2852
  274SOL    HW1 1606   2.536   0.736   1.610  1.1937 -0.0557  0.4704
  274SOL    HW2 1607   2.532   0.644   1.490  0.3091  1.6102 -0.8238
  275SOL     OW 1608   0.813   2.111   1.994 -0.0672  0.0833  0.4426
  275SOL    HW1 1609   0.835   2.161   2.072 -1.0049  1.9647 -0.4475
  275SOL    HW2 1610   0.828   2.171   1.921  1.0513 -1.6993 -0.8987
  276SOL     OW 1611   2.780   2.636   3.151 -0.1720 -0.3983 -0.0408
  276SOL    HW1 1612   2.822   2.662   3.069 -0.7101 -1.0111 -0.5238
  276SOL    HW2 1613   2.821   2.690   3.218 -0.4413  0.8515 -0.8549
  277SOL     OW 1614   2.272   0.302   1.946  0.2903  0.0787 -0.1603
  277SOL    HW1 1615   2.243   0.393   1.943 -0.5060 -0.1830 -1.6564
  277SOL    HW2 1616   2.242   0.270   2.031  0.3845  1.1401  0.2916
  278SOL     OW 1617   2.666   1.018   0.872  0.0954 -0.0458  0.3716
  278SOL    HW1 1618   2.720   0.943   0.897 -0.6022 -0.1020  1.8349
  278SOL    HW2 1619   2.633   1.052   0.955 -0.8358  0.9431 -0.3796
  279SOL     OW 1620   0.825   1.666   2.104  0.2522 -0.0234  0.2948
  279SOL    HW1 1621   0.799   1.757   2.112  0.8002  0.1453  0.1670
  279SOL    HW2 1622   0.842   1.638   2.194  1.4117  0.3972  0.2182
  280SOL     OW 1623   1.918   0.279   2.049 -0.1002  0.1444  0.2661
  280SOL    HW1 1624   2.012   0.286   2.066 -0.2646  0.3884  1.1495
  280SOL    HW2 1625   1.889   0.206   2.104 -0.5785  0.6637  0.7220
  281SOL     OW 1626   1.651   1.822   3.330 -0.0896  0.0617 -0.2319
  281SOL    HW1 1627   1.651   1.915   3.351 -0.0580  0.0390 -0.1284
  281SOL    HW2 1628   1.693   1.816   3.245 -0.4964  0.1880 -0.4445
  282SOL     OW 1629   2.650   2.738   2.426  0.0458 -0.0279 -0.0228
  282SOL    HW1 1630   2.575   2.679   2.423  1.1084 -1.3970 -1.3638
  282SOL    HW2 1631   2.656   2.773   2.337  0.0757  1.3000  0.4801
  283SOL     OW 1632   2.166   1.672   2.735 -0.0580 -0.2305  0.5820
  283SOL    HW1 1633   2.207   1.732   2.798  0.8739 -0.0141 -0.2175
  283SOL    HW2 1634   2.111   1.729   2.681  1.3695  0.0564 -0.6324
  284SOL     OW 1635   2.493   2.727   2.058  0.0575 -0.0760 -0.0999
  284SOL    HW1 1636   2.562   2.762   2.115  0.1401  1.5196 -1.1164
  284SOL    HW2 1637   2.522   2.750   1.969 -0.6466 -1.4539 -0.7087
  285SOL     OW 1638   1.106   2.624   0.128 -0.2555 -0.0342 -0.1307
  285SOL    HW1 1639   1.062   2.546   0.162 -0.1149  0.0793  0.3109
  285SOL    HW2 1640   1.034   2.678   0.094 -0.2412 -1.1532 -2.1707
  286SOL     OW 1641   1.828   0.526   2.200  0.6720 -0.2089  0.2472
  286SOL    HW1 1642   1.862   0.443   2.167 -0.8343 -0.8321  0.1882
  286SOL    HW2 1643   1.824   0.514   2.295 -0.4831 -0.5925  0.1617
  287SOL     OW 1644   1.785   1.550   3.087 -0.0356  0.3358  0.1190
  287SOL    HW1 1645   1.742   1.635   3.085 -0.6538  0.1152  1.7541
  287SOL    HW2 1646   1.715   1.489   3.110  1.0670 -0.0386  2.8669
  288SOL     OW 1647   2.464   2.315   2.535 -0.1961  1.1727  0.0603
  288SOL    HW1 1648   2.544   2.335   2.486  0.0285  0.9500  0.3327
  288SOL    HW2 1649   2.494   2.298   2.624 -0.5348  0.9551  0.1357
  289SOL     OW 1650   0.455   2.871   1.680 -0.0024  0.1501 -0.7059
  289SOL    HW1 1651   0.364   2.893   1.658 -0.4080 -1.9351 -1.3021
  289SOL    HW2 1652   0.458   2.878   1.775 -0.5486  1.0175 -0.7349
  290SOL     OW 1653   1.668   0.199   0.499  0.3011 -0.5117 -0.5977
  290SOL    HW1 1654   1.663   0.232   0.589 -1.4241 -1.2317 -0.3875
  290SOL    HW2 1655   1.733   0.129   0.503 -1.0728 -1.7778  0.5409
  291SOL     OW 1656   1.884   0.083   2.265  0.2418  0.2711  0.0147
  291SOL    HW1 1657   1.799   0.051   2.236 -0.1494  0.8260  0.5443
  291SOL    HW2 1658   1.940   0.005   2.266 -0.9937 -0.6684  2.3744
  292SOL     OW 1659   1.023   2.620   1.416 -0.6364  0.3554  0.7295
  292SOL    HW1 1660   0.987   2.690   1.471 -2.0670  1.2500 -1.2055
  292SOL    HW2 1661   1.048   2.665   1.335  0.4695 -1.0652  0.2559
  293SOL     OW 1662   0.679   2.259   0.071 -0.0375  0.4694  0.3006
  293SOL    HW1 1663   0.611   2.199   0.040  0.1463 -0.3309  1.3919
  293SOL    HW2 1664   0.671   2.256   0.166  1.6038  0.2672  0.4532
  294SOL     OW 1665   0.932   0.312   0.933 -0.2006  0.0448 -0.6664
  294SOL    HW1 1666   0.914   0.250   0.863 -1.1377  0.4265 -0.7790
  294SOL    HW2 1667   0.878   0.389   0.912 -1.8278 -0.4673  1.3393
  295SOL     OW 1668   1.443   3.014   2.063  0.2132  0.1616 -0.1352
  295SOL    HW1 1669   1.472   3.064   2.139 -0.8563 -0.5637  0.7810
  295SOL    HW2 1670   1.394   3.077   2.010 -0.3936  0.2939  0.5773
  296SOL     OW 1671   2.088   2.543   1.764  0.1607  0.3736  0.0382
  296SOL    HW1 1672   2.078   2.458   1.806  2.4359  0.2149  0.3667
  296SOL    HW2 1673   2.181   2.551   1.746 -0.3745  1.4089 -3.0065
  297SOL     OW 1674   0.625   0.715   3.260  0.6300 -0.1361 -0.1707
  297SOL    HW1 1675   0.606   0.676   3.175  0.0211 -0.8036  0.2647
  297SOL    HW2 1676   0.710   0.678   3.285  1.7858  1.5667 -1.3553
  298SOL     OW 1677   0.977   1.659   1.850 -0.0567 -0.0951 -0.4641
  298SOL    HW1 1678   0.950   1.742   1.810 -0.9851 -0.0065  0.3197
  298SOL    HW2 1679   0.913   1.644   1.919  1.1091 -0.6043  0.5274
  299SOL     OW 1680   1.923   2.285   0.607  0.5446  1.0125  0.1895
  299SOL    HW1 1681   1.927   2.194   0.578 -2.1156  1.3026 -1.4191
  299SOL    HW2 1682   1.979   2.287   0.685  0.6941 -1.9893  0.3058
  300SOL     OW 1683   2.605   1.246   3.321  0.3159  0.0249  0.2828
  300SOL    HW1 1684   2.574   1.211   3.404  0.2266  0.0228  0.2485
  300SOL    HW2 1685   2.588   1.340   3.327 -1.7367 -0.2338 -0.6020
  301SOL     OW 1686   1.656   2.286   2.188  0.2807  0.4434 -0.0292
  301SOL    HW1 1687   1.672   2.259   2.279  1.2324  0.4049 -0.1920
  301SOL    HW2 1688   1.617   2.210   2.147  2.8809 -0.7562 -0.4669
  302SOL     OW 1689   0.728   2.426   0.887  0.1638  0.2128 -0.2609
  302SOL    HW1 1690   0.672   2.420   0.965  0.1622  0.6376 -0.2300
  302SOL    HW2 1691   0.817   2.410   0.920  0.1460  0.2438 -0.1987
  303SOL     OW 1692   3.041   0.411   2.683  0.0595  0.1014 -0.0343
  303SOL    HW1 1693   3.007   0.323   2.666 -2.8818  1.3119 -1.1117
  303SOL    HW2 1694   3.061   0.411   2.777  0.3513 -1.7374 -0.0531
  304SOL     OW 1695   1.231   0.340   1.266 -0.0734 -0.5680 -0.1185
  304SOL    HW1 1696   1.233   0.397   1.343  2.7491 -0.5387 -0.1229
  304SOL    HW2 1697   1.195   0.258   1.299 -0.0523 -0.1791  0.9311
  305SOL     OW 1698   1.023   0.106   1.098 -0.0919 -0.2962 -0.0659
  305SOL    HW1 1699   1.028   0.108   1.194  1.6690  0.1975 -0.1371
  305SOL    HW2 1700   0.968   0.180   1.075 -0.9872 -0.7402  0.5650
  306SOL     OW 1701   2.718   3.142   2.609 -0.1032  0.0722 -0.1018
  306SOL    HW1 1702   2.765   3.116   2.529  0.7221  2.0985 -0.3353
  306SOL    HW2 1703   2.779   3.122   2.680 -0.3865 -0.7039 -0.0756
  307SOL     OW 1704   0.883   0.637   2.653 -0.2335 -0.1853  0.1836
  307SOL    HW1 1705   0.886   0.680   2.567 -2.5235 -2.2859 -1.0767
  307SOL    HW2 1706   0.973   0.609   2.668  0.2973  0.5704 -1.3343
  308SOL     OW 1707   0.615   0.577   2.718  0.3185 -0.1125 -0.1125
  308SOL    HW1 1708   0.586   0.591   2.628  0.3855 -2.0920 -0.4830
  308SOL    HW2 1709   0.710   0.571   2.713  0.6253  2.6013  0.5665
  309SOL     OW 1710   0.695   3.249   2.096 -0.4235  0.2651 -0.1131
  309SOL    HW1 1711   0.666   3.281   2.181 -1.1227  1.2191 -0.6965
  309SOL    HW2 1712   0.764   3.310   2.070 -0.4678  0.1953 -0.3970
  310SOL     OW 1713   2.187   1.846   3.105 -0.3322  0.0701 -1.0070
  310SOL    HW1 1714   2.130   1.780   3.066  0.8458 -0.8246 -1.2662
  310SOL    HW2 1715   2.192   1.822   3.198 -1.7029  1.1518 -0.6164
  311SOL     OW 1716   0.142   0.469   2.626 -0.2190 -0.0448 -0.1008
  311SOL    HW1 1717   0.201   0.408   2.670 -2.0118 -0.9171  1.2130
  311SOL    HW2 1718   0.151   0.550   2.675 -0.5834 -0.3687  0.5100
  312SOL     OW 1719   2.665   2.197   0.636 -0.4514 -0.1060 -0.0810
  312SOL    HW1 1720   2.676   2.104   0.654 -0.4116  0.1669  1.4294
  312SOL    HW2 1721   2.579   2.218   0.672 -0.2571  0.5407  0.0098
  313SOL     OW 1722   2.024   0.250   0.727 -0.2244  0.1836  0.2650
  313SOL    HW1 1723   2.073   0.332   0.728 -0.3630  0.2688  0.0805
  313SOL    HW2 1724   1.970   0.256   0.648 -0.3297 -0.0286  0.3229
  314SOL     OW 1725   0.720   3.094   2.711 -0.3657  0.3308  0.2139
  314SOL    HW1 1726   0.696   3.018   2.764 -2.7191  1.6232  1.1536
  314SOL    HW2 1727   0.698   3.169   2.766 -0.2665  1.7107 -1.5547
  315SOL     OW 1728   2.738   3.086   2.057 -0.2036  0.3062 -0.0290
  315SOL    HW1 1729   2.764   3.132   1.977 -0.5637  1.0723  0.2844
  315SOL    HW2 1730   2.644   3.069   2.045  0.1342 -1.3903 -0.6365
  316SOL     OW 1731   2.652   3.220   3.263  0.2737 -0.0412  0.3326
  316SOL    HW1 1732   2.688   3.203   3.176 -0.1370 -0.9447  0.3210
  316SOL    HW2 1733   2.728   3.219   3.322  0.4737 -0.1353  0.0726
  317SOL     OW 1734   0.992   2.297   0.960 -0.4922  0.2344  0.0965
  317SOL    HW1 1735   0.974   2.206   0.985 -0.3757  0.1015 -0.2860
  317SOL    HW2 1736   1.006   2.343   1.042 -0.3156 -0.1469  0.2812
  318SOL     OW 1737   0.987   2.488   2.608 -0.2622  0.1242  0.1547
  318SOL    HW1 1738   0.968   2.485   2.514 -0.7116 -0.9757  0.2675
  318SOL    HW2 1739   0.954   2.574   2.636 -0.6606  0.2182 -0.5812
  319SOL     OW 1740   2.248   0.481   1.060 -0.0261 -0.1488  0.0762
  319SOL    HW1 1741   2.310   0.500   0.989 -1.8572 -0.0421 -1.5602
  319SOL    HW2 1742   2.187   0.554   1.058  0.7103  0.6723  2.8350
  320SOL     OW 1743   2.560   1.372   2.908 -0.2084  0.5166 -0.0989
  320SOL    HW1 1744   2.511   1.303   2.954  0.4674 -1.5086 -2.2486
  320SOL    HW2 1745   2.640   1.383   2.960 -0.7566  0.3959  0.7951
  321SOL     OW 1746   2.400   2.144   1.527 -0.0640 -0.0087 -0.3230
  321SOL    HW1 1747   2.441   2.223   1.563  0.2512 -0.4031  0.1958
  321SOL    HW2 1748   2.319   2.135   1.577  0.4460 -0.6402  0.4046
  322SOL     OW 1749   0.633   2.451   0.380  0.2931 -0.1594 -0.3649
  322SOL    HW1 1750   0.665   2.539   0.361 -0.9255  0.2496 -0.5954
  322SOL    HW2 1751   0.658   2.436   0.471 -2.2316  1.7328  0.7566
  323SOL     OW 1752   2.380   0.980   2.382  0.5571  0.5023  0.5085
  323SOL    HW1 1753   2.340   1.062   2.354 -0.1990 -0.1286 -0.3254
  323SOL    HW2 1754   2.467   0.980   2.341 -0.9686 -0.9765 -3.1180
  324SOL     OW 1755   1.835   1.701   2.787  0.2055  0.0935  0.1933
  324SOL    HW1 1756   1.879   1.631   2.739  2.1247  1.8073 -0.7280
  324SOL    HW2 1757   1.876   1.700   2.874  1.0949  0.7870 -0.2043
  325SOL     OW 1758   0.433   2.475   3.243 -0.2803  0.2993 -0.2375
  325SOL    HW1 1759   0.344   2.444   3.260  0.1500 -1.2625 -0.6680
  325SOL    HW2 1760   0.461   2.514   3.326 -1.2636  0.5787 -0.0273
  326SOL     OW 1761   0.740   1.472   0.291  0.3862  0.3684  0.2418
  326SOL    HW1 1762   0.828   1.437   0.278 -0.0181 -0.5897  0.0068
  326SOL    HW2 1763   0.694   1.405   0.341 -0.9513 -0.3261 -1.7581
  327SOL     OW 1764   1.655   2.507   2.619  0.3626  0.0251  0.5380
  327SOL    HW1 1765   1.584   2.455   2.582  0.3168  1.2358 -1.1844
  327SOL    HW2 1766   1.732   2.485   2.566  0.9456 -0.1535  1.4267
  328SOL     OW 1767   2.172   2.227   2.145  0.4179 -0.6803  0.1998
  328SOL    HW1 1768   2.126   2.144   2.128 -0.2040 -0.1426 -0.7932
  328SOL    HW2 1769   2.169   2.237   2.240 -1.5242 -0.6637  0.1619
  329SOL     OW 1770   0.599   0.560   0.271 -0.3940 -0.2304 -0.5289
  329SOL    HW1 1771   0.665   0.611   0.318  0.2893 -1.4453 -0.1183
  329SOL    HW2 1772   0.543   0.626   0.230  0.9946  0.8532 -0.7908
  330SOL     OW 1773   2.256   2.686   1.078  0.1277  0.2318  0.1380
  330SOL    HW1 1774   2.233   2.715   0.989  0.5404  0.7005  0.1845
  330SOL    HW2 1775   2.182   2.631   1.104 -0.0499  0.1749 -0.4539
  331SOL     OW 1776   0.893   2.775   2.592  0.4024  0.0953 -0.2462
  331SOL    HW1 1777   0.853   2.779   2.505  0.3460 -0.2389 -0.2370
  331SOL    HW2 1778   0.833   2.824   2.648  0.3999  0.2472 -0.3813
  332SOL     OW 1779   2.032   0.773   1.290  0.3169  0.4652 -0.0021
  332SOL    HW1 1780   2.008   0.864   1.273  1.4608  0.7762 -0.0755
  332SOL    HW2 1781   2.057   0.738   1.205 -0.6712 -0.1087 -0.0734
  333SOL     OW 1782   1.605   2.298   1.521  0.1480  0.4689  0.3411
  333SOL    HW1 1783   1.516   2.327   1.499  0.0529 -0.1013 -0.0360
  333SOL    HW2 1784   1.605   2.205   1.501  1.2232  0.7121 -0.9548
  334SOL     OW 1785   1.301   1.616   3.191  0.2044  0.2524  0.5018
  334SOL    HW1 1786   1.354   1.633   3.114 -0.8972 -0.4869 -0.4488
  334SOL    HW2 1787   1.211   1.611   3.158 -0.2134 -0.7964  1.7072
  335SOL     OW 1788   2.341   0.242   1.467 -0.0971 -0.1230 -0.3548
  335SOL    HW1 1789   2.434   0.263   1.458  0.4012 -2.3320 -0.9329
  335SOL    HW2 1790   2.297   0.307   1.412  0.9537  1.7654  0.9205
  336SOL     OW 1791   1.742   3.209   1.323 -0.3130  0.2122 -0.0734
  336SOL    HW1 1792   1.823   3.232   1.370 -0.4641  1.0249 -0.2021
  336SOL    HW2 1793   1.672   3.248   1.374 -0.4750  1.1848 -1.0131
  337SOL     OW 1794   2.184   1.229   1.924 -0.0113  0.3891  0.3277
  337SOL    HW1 1795   2.088   1.232   1.926 -0.0880 -0.7781 -0.6848
  337SOL    HW2 1796   2.205   1.143   1.888  1.4055  1.1978 -0.8986
  338SOL     OW 1797   1.268   3.176   1.933  0.1298 -0.1137  0.0426
  338SOL    HW1 1798   1.276   3.222   1.849 -0.4362  0.2522  0.1838
  338SOL    HW2 1799   1.181   3.136   1.929  1.2278 -2.5859 -0.7775
  339SOL     OW 1800   0.328   3.159   1.408  0.6428 -0.3796  0.1920
  339SOL    HW1 1801   0.417   3.173   1.440  0.2335 -0.7461  1.5284
  339SOL    HW2 1802   0.337   3.084   1.348  1.0471 -1.2215  1.2652
  340SOL     OW 1803   1.856   1.558   1.930  0.5481 -0.2094  0.0216
  340SOL    HW1 1804   1.922   1.570   1.997 -0.8921  0.3498  1.4091
  340SOL    HW2 1805   1.860   1.637   1.877  0.3310  0.2615  0.7063
  341SOL     OW 1806   2.452   1.719   0.954 -0.6688  0.1653  0.3675
  341SOL    HW1 1807   2.538   1.749   0.984 -0.3930 -0.0183 -0.2153
  341SOL    HW2 1808   2.419   1.665   1.025 -0.7535  1.0600  1.0274
  342SOL     OW 1809   1.790   1.432   1.047 -0.1497 -0.1403  0.0597
  342SOL    HW1 1810   1.795   1.528   1.048  0.4891 -0.1679  0.4817
  342SOL    HW2 1811   1.731   1.410   1.119 -1.3494 -0.0329 -0.8524
  343SOL     OW 1812   2.410   0.067   2.463  0.0428 -0.0330  0.3265
  343SOL    HW1 1813   2.324   0.066   2.420 -0.2806  2.3670  0.7675
  343SOL    HW2 1814   2.472   0.047   2.393 -0.7031  0.8906 -0.6509
  344SOL     OW 1815   1.158   1.605   0.795 -0.1531  0.1665 -0.7020
  344SOL    HW1 1816   1.135   1.658   0.719 -0.8920 -1.0387 -1.3401
  344SOL    HW2 1817   1.191   1.523   0.758  1.5383  0.3779  0.2585
  345SOL     OW 1818   1.194   3.321   0.921  0.0513  0.6973  0.2834
  345SOL    HW1 1819   1.132   3.351   0.986 -2.1650  0.0128 -1.3849
  345SOL    HW2 1820   1.233   3.401   0.886  0.0074  1.1533  1.2442
  346SOL     OW 1821   2.726   1.069   2.550  0.3791 -0.2765  0.0123
  346SOL    HW1 1822   2.814   1.105   2.543 -0.0459  0.8237  0.2461
  346SOL    HW2 1823   2.669   1.145   2.558 -0.6590 -0.9404 -0.7505
  347SOL     OW 1824   3.332   1.766   1.760 -0.7072 -0.2815 -0.5933
  347SOL    HW1 1825   3.259   1.706   1.744 -1.6995  0.5437  0.6524
  347SOL    HW2 1826   3.299   1.827   1.826  1.3964 -0.3958  0.6563
  348SOL     OW 1827   1.851   0.348   1.787  0.1412 -0.7018 -0.1651
  348SOL    HW1 1828   1.870   0.280   1.724  2.0965 -0.1944 -0.1794
  348SOL    HW2 1829   1.889   0.317   1.869  1.9287  0.7388 -0.3911
  349SOL     OW 1830   1.608   2.961   2.336  0.1219 -0.2611  0.2710
  349SOL    HW1 1831   1.680   2.902   2.315  0.9279  1.1118 -1.0281
  349SOL    HW2 1832   1.590   2.945   2.429  0.6230 -2.1725  0.0646
  350SOL     OW 1833   1.815   3.185   1.059 -0.0080  0.1572 -0.3124
  350SOL    HW1 1834   1.899   3.141   1.075 -0.1014  0.5551  1.3943
  350SOL    HW2 1835   1.785   3.213   1.145 -2.2715 -0.6191 -0.7677
  351SOL     OW 1836   1.969   0.794   1.799  0.2338 -0.3144 -0.0807
  351SOL    HW1 1837   1.970   0.778   1.894  1.2858  0.3371  0.0384
  351SOL    HW2 1838   2.017   0.721   1.762 -1.2875 -1.2670 -0.2632
  352SOL     OW 1839   1.409   2.358   2.434 -0.1913  0.1916  0.0434
  352SOL    HW1 1840   1.329   2.343   2.383 -0.4499 -0.8528  0.7237
  352SOL    HW2 1841   1.449   2.271   2.440 -0.4347  0.1736  2.0425
  353SOL     OW 1842   2.797   2.930   3.265 -0.2579  0.5061  0.1660
  353SOL    HW1 1843   2.707   2.936   3.230 -0.3476  0.3245  0.3615
  353SOL    HW2 1844   2.786   2.890   3.351  0.1648 -1.1809 -0.5260
  354SOL     OW 1845   2.829   3.052   0.770  0.3003  0.0523  0.7766
  354SOL    HW1 1846   2.735   3.038   0.767  0.2675  0.3886  0.0346
  354SOL    HW2 1847   2.867   2.964   0.774 -0.0119 -0.1274 -0.0986
  355SOL     OW 1848   2.622   0.373   0.392 -0.0874  0.1315 -0.3446
  355SOL    HW1 1849   2.681   0.374   0.467 -0.3171 -1.0264 -0.1296
  355SOL    HW2 1850   2.539   0.407   0.427  0.3755  1.5758 -0.6014
  356SOL     OW 1851   2.132   1.257   0.574 -0.1861 -0.2285 -0.3027
  356SOL    HW1 1852   2.039   1.235   0.572 -0.0314 -0.8304 -1.4389
  356SOL    HW2 1853   2.158   1.261   0.482  0.9457 -0.2060  0.0029
  357SOL     OW 1854   2.140   2.338   0.778 -0.0595 -0.8008 -0.4853
  357SOL    HW1 1855   2.110   2.359   0.867  0.1613  0.7339 -0.7473
  357SOL    HW2 1856   2.187   2.417   0.749 -0.5764 -1.0726 -2.1606
  358SOL     OW 1857   0.374   0.101   2.401  0.5680  0.2013 -0.1565
  358SOL    HW1 1858   0.366   0.115   2.495 -1.5884 -0.6273 -0.1684
  358SOL    HW2 1859   0.377   0.189   2.364  2.5087  0.5563  0.6983
  359SOL     OW 1860   1.133   1.103   1.829  0.1434 -0.2713 -0.4630
  359SOL    HW1 1861   1.156   1.114   1.737  0.2977 -0.8971 -0.5048
  359SOL    HW2 1862   1.125   1.192   1.863 -0.1667 -0.0324 -1.1446
  360SOL     OW 1863   2.731   2.845   2.780  0.4120  0.1184 -0.2667
  360SOL    HW1 1864   2.728   2.904   2.704 -0.2995  1.5119  0.7760
  360SOL    HW2 1865   2.650   2.865   2.827  1.3638  0.1042  1.4279
  361SOL     OW 1866   1.853   2.744   2.477  0.1574  0.0213 -0.5295
  361SOL    HW1 1867   1.927   2.700   2.519 -1.1111  0.3086  2.2531
  361SOL    HW2 1868   1.839   2.696   2.396  2.6099 -0.7771 -0.5700
  362SOL     OW 1869   2.399   0.704   0.450  0.2360  0.0537  0.0754
  362SOL    HW1 1870   2.377   0.666   0.365  1.2242  2.3501 -1.3069
  362SOL    HW2 1871   2.491   0.681   0.463  0.3939  0.6154 -0.0252
  363SOL     OW 1872   1.359   2.766   2.024  0.7405 -0.2265  0.0168
  363SOL    HW1 1873   1.390   2.721   2.103  1.7799  1.0171  0.3490
  363SOL    HW2 1874   1.395   2.854   2.032 -0.6130  0.4422 -0.9895
  364SOL     OW 1875   0.977   3.183   0.270 -0.5114 -0.3541  0.1410
  364SOL    HW1 1876   0.926   3.228   0.202  1.4269 -1.4986 -2.2154
  364SOL    HW2 1877   0.941   3.094   0.271  0.6168 -0.8392 -0.7098
  365SOL     OW 1878   3.279   3.288   1.109 -0.5451 -0.0995  0.0428
  365SOL    HW1 1879   3.278   3.361   1.171  1.3337  0.6096 -0.6902
  365SOL    HW2 1880   3.311   3.214   1.161 -0.2988  0.1523  0.2571
  366SOL     OW 1881   2.749   2.779   0.153  0.0565  0.4762 -0.1797
  366SOL    HW1 1882   2.788   2.753   0.236  0.6231 -0.5793 -0.7506
  366SOL    HW2 1883   2.691   2.706   0.130 -0.3135  0.8885 -0.5803
  367SOL     OW 1884   2.086   0.857   2.247 -0.6203  0.3198 -0.3926
  367SOL    HW1 1885   2.168   0.900   2.224  0.7269 -2.3160 -0.9428
  367SOL    HW2 1886   2.079   0.868   2.342  0.8912 -0.1797 -0.1998
  368SOL     OW 1887   0.710   2.630   2.976  0.5297  0.4286 -0.2597
  368SOL    HW1 1888   0.672   2.543   2.985  1.3334 -0.0010 -0.9217
  368SOL    HW2 1889   0.703   2.668   3.064 -0.0103 -0.2173 -0.0134
  369SOL     OW 1890   1.514   0.626   1.186 -0.0155  0.3854  0.0071
  369SOL    HW1 1891   1.419   0.616   1.185  0.0099  0.0287  0.6217
  369SOL    HW2 1892   1.530   0.713   1.147 -0.4921 -0.1736 -1.4922
  370SOL     OW 1893   0.630   0.323   1.052 -0.0564 -0.2208  0.3517
  370SOL    HW1 1894   0.664   0.334   1.141 -0.3666  0.5212  0.3840
  370SOL    HW2 1895   0.662   0.399   1.004 -0.5645 -0.2014  0.0349
  371SOL     OW 1896   3.109   2.565   0.053 -0.1356 -0.4165  0.7633
  371SOL    HW1 1897   3.087   2.656   0.072 -1.1676 -0.9883  2.5143
  371SOL    HW2 1898   3.152   2.568  -0.033  1.2417  1.9001  1.4492
  372SOL     OW 1899   3.297   2.912   1.568  0.4575  0.6395 -0.1406
  372SOL    HW1 1900   3.215   2.928   1.522 -0.1025  0.7774  0.8592
  372SOL    HW2 1901   3.272   2.911   1.661  1.0789 -2.3008  0.0829
  373SOL     OW 1902   1.829   1.698   0.820 -0.6137  0.0006 -0.3272
  373SOL    HW1 1903   1.916   1.661   0.833 -1.7297 -2.8301 -0.1429
  373SOL    HW2 1904   1.787   1.691   0.905 -1.5623 -0.3240 -0.8026
  374SOL     OW 1905   2.552   0.339   1.161  0.3372  0.3074  0.4128
  374SOL    HW1 1906   2.581   0.325   1.251 -0.5219 -0.3906  0.5950
  374SOL    HW2 1907   2.559   0.253   1.120 -0.0535  0.4494  0.0406
  375SOL     OW 1908   2.445   2.668   1.280 -0.1874 -0.2746 -0.0272
  375SOL    HW1 1909   2.395   2.605   1.331  0.0327 -0.1844  0.3064
  375SOL    HW2 1910   2.393   2.682   1.201 -0.6261 -0.2738  0.2595
  376SOL     OW 1911   2.748   0.326   2.301 -0.1765  0.5752 -0.2979
  376SOL    HW1 1912   2.715   0.321   2.390 -0.6827  0.3022 -0.4949
  376SOL    HW2 1913   2.841   0.347   2.310 -0.6130  2.4623  0.2379
  377SOL     OW 1914   2.496   2.175   0.153  0.7014  0.0570 -0.1626
  377SOL    HW1 1915   2.496   2.223   0.236  0.2598  0.5427 -0.4322
  377SOL    HW2 1916   2.551   2.227   0.095 -0.1205  0.4789 -0.5826
  378SOL     OW 1917   1.990   1.951   1.584 -0.1491 -0.5633  0.2317
  378SOL    HW1 1918   2.026   1.916   1.502 -0.6464 -0.6991  0.0682
  378SOL    HW2 1919   1.900   1.920   1.585 -0.7253  1.0037 -0.1117
  379SOL     OW 1920   1.851   3.174   1.922 -0.1078  0.0360 -0.9188
  379SOL    HW1 1921   1.797   3.238   1.968 -0.7643  0.0138 -1.6476
  379SOL    HW2 1922   1.832   3.091   1.965  0.3710  0.2357 -0.2987
  380SOL     OW 1923   3.278   3.279   1.483 -0.7190 -0.4545  0.0933
  380SOL    HW1 1924   3.351   3.340   1.470  0.0805 -1.4393 -0.1374
  380SOL    HW2 1925   3.271   3.269   1.578 -1.4626  0.6828  0.1854
  381SOL     OW 1926   2.383   2.761   1.553 -0.2901 -0.3889  0.3135
  381SOL    HW1 1927   2.305   2.809   1.524 -0.4449 -0.9034 -0.1451
  381SOL    HW2 1928   2.422   2.727   1.472 -0.0776 -0.8641  0.6114
  382SOL     OW 1929   2.355   2.086   2.828  0.2183 -0.2664  0.5524
  382SOL    HW1 1930   2.299   2.073   2.752 -1.2751  0.8761  1.4234
  382SOL    HW2 1931   2.314   2.156   2.878  2.5332  0.7878  1.1368
  383SOL     OW 1932   1.188   1.633   2.039  0.3718  0.1964  0.2203
  383SOL    HW1 1933   1.110   1.646   1.985 -0.0244 -0.9194  0.5030
  383SOL    HW2 1934   1.173   1.691   2.115 -0.1153  0.1132  0.1962
  384SOL     OW 1935   1.192   2.645   1.862 -0.5273  0.2352 -0.3901
  384SOL    HW1 1936   1.142   2.705   1.808 -1.4457 -0.2102 -0.0711
  384SOL    HW2 1937   1.239   2.701   1.924 -1.5740  0.6176  0.0751
  385SOL     OW 1938   1.632   0.448   1.927 -0.6292 -0.2662  0.2691
  385SOL    HW1 1939   1.706   0.421   1.872 -0.8569 -0.6362  0.1484
  385SOL    HW2 1940   1.635   0.389   2.002 -0.1235  0.4411  0.8298
  386SOL     OW 1941   0.851   3.288   0.060 -0.5351 -0.1670 -0.1219
  386SOL    HW1 1942   0.869   3.378   0.034 -1.9777 -0.2810 -1.6469
  386SOL    HW2 1943   0.758   3.276   0.042 -0.4088 -1.9100  0.2510
  387SOL     OW 1944   1.500   2.087   2.071  0.0822 -0.0082 -0.2553
  387SOL    HW1 1945   1.416   2.072   2.114  0.2522 -1.1285 -0.2775
  387SOL    HW2 1946   1.478   2.111   1.982 -0.2478  1.4194  0.1879
  388SOL     OW 1947   1.118   1.597   2.859 -0.1502  0.0487  0.8212
  388SOL    HW1 1948   1.024   1.607   2.875 -0.6203 -2.3519 -0.0187
  388SOL    HW2 1949   1.127   1.509   2.820  2.6193 -0.4997  2.4062
  389SOL     OW 1950   2.375   1.805   2.544  0.1806 -0.0896 -0.9577
  389SOL    HW1 1951   2.314   1.869   2.581 -0.3704 -0.2034 -1.6575
  389SOL    HW2 1952   2.391   1.744   2.616 -1.0737 -0.4445 -0.9477
  390SOL     OW 1953   2.302   3.239   2.242  0.2001 -0.2580  1.0740
  390SOL    HW1 1954   2.306   3.244   2.147 -0.6376  0.0341  1.0454
  390SOL    HW2 1955   2.377   3.185   2.266  0.3989 -0.3658  0.2480
  391SOL     OW 1956   1.317   1.418   0.707  0.0501  0.1082 -0.3989
  391SOL    HW1 1957   1.336   1.341   0.761 -0.9186  0.5147  0.5702
  391SOL    HW2 1958   1.357   1.398   0.622 -0.1251 -1.4313 -0.1598
  392SOL     OW 1959   1.298   0.462   1.486 -0.3449  0.1295  0.3196
  392SOL    HW1 1960   1.256   0.443   1.569 -1.7559 -0.7107 -0.5590
  392SOL    HW2 1961   1.319   0.555   1.491 -1.2379  0.2997  1.2542
  393SOL     OW 1962   0.228   0.014   2.697 -0.3932 -0.4403 -0.1595
  393SOL    HW1 1963   0.169   0.064   2.754  0.1705 -1.3115  1.2516
  393SOL    HW2 1964   0.184  -0.070   2.685 -0.1415 -0.5443 -0.3564
  394SOL     OW 1965   2.003   1.590   2.151  0.2631  0.2981 -0.1464
  394SOL    HW1 1966   2.066   1.661   2.150  0.1560  0.3876 -0.8597
  394SOL    HW2 1967   1.988   1.573   2.244  1.0048  0.5642  0.0320
  395SOL     OW 1968   1.214   2.024   2.830 -0.0657 -0.5217  0.2668
  395SOL    HW1 1969   1.218   1.995   2.921 -0.2195  0.4628  0.6006
  395SOL    HW2 1970   1.126   2.060   2.820 -0.5596 -1.9036 -0.6920
  396SOL     OW 1971   2.926   0.015   2.435  0.3333 -0.1051 -0.0843
  396SOL    HW1 1972   2.883  -0.056   2.388  0.5094  0.2257 -0.7578
  396SOL    HW2 1973   3.017  -0.013   2.443  1.0657  1.2070 -2.8016
  397SOL     OW 1974   3.071   2.631   0.889 -0.0251  0.1508 -0.0856
  397SOL    HW1 1975   3.089   2.544   0.854  0.1355  0.5947 -1.1468
  397SOL    HW2 1976   2.986   2.622   0.931  0.3418 -0.7036  0.4936
  398SOL     OW 1977   2.222   2.261   2.431  0.0700 -0.4873 -0.1453
  398SOL    HW1 1978   2.175   2.335   2.469 -0.6101 -0.8576 -0.2492
  398SOL    HW2 1979   2.310   2.266   2.468 -0.2446 -0.1722  0.5716
  399SOL     OW 1980   0.920   1.907   1.778 -0.0847  0.2279 -0.3226
  399SOL    HW1 1981   0.898   1.975   1.842  0.6066 -0.0307  0.2101
  399SOL    HW2 1982   0.864   1.925   1.703  0.4564  1.7264 -0.4054
  400SOL     OW 1983   0.621   1.116   3.111  0.6046  0.0511 -0.0844
  400SOL    HW1 1984   0.693   1.060   3.140  0.6043  0.2130  0.2320
  400SOL    HW2 1985   0.568   1.058   3.055  0.5568 -0.2961  0.3117
  401SOL     OW 1986   3.273   3.021   3.231 -0.4166 -0.1557 -0.0939
  401SOL    HW1 1987   3.262   3.026   3.326 -1.0774  1.2632 -0.2126
  401SOL    HW2 1988   3.187   2.995   3.199 -0.5249  0.5096 -0.3633
  402SOL     OW 1989   0.612   0.244   2.674 -0.8188 -0.1213  0.2381
  402SOL    HW1 1990   0.703   0.217   2.664 -0.9806 -0.7905  0.4751
  402SOL    HW2 1991   0.609   0.289   2.759 -0.7587 -0.3347  0.3541
  403SOL     OW 1992   1.685   2.400   1.211  0.4244 -0.0608 -0.2375
  403SOL    HW1 1993   1.616   2.460   1.181  0.3283 -0.3816 -0.6691
  403SOL    HW2 1994   1.645   2.313   1.204  0.2960 -0.1248  1.1259
  404SOL     OW 1995   1.569   0.056   1.421 -0.4950  0.2665 -0.2613
  404SOL    HW1 1996   1.568   0.132   1.480 -1.1971 -0.0152  0.1098
  404SOL    HW2 1997   1.476   0.034   1.410 -0.2659 -1.8956  1.4092
  405SOL     OW 1998   1.219   2.510   0.873  0.2910 -0.1315 -0.2748
  405SOL    HW1 1999   1.128   2.534   0.891  0.0229 -1.5112  0.3889
  405SOL    HW2 2000   1.234   2.433   0.929  2.5525  1.3602  1.3410
  406SOL     OW 2001   0.956   0.771   1.300 -0.3148 -0.3550  0.1878
  406SOL    HW1 2002   0.920   0.727   1.376 -0.5486  0.9499  0.8699
  406SOL    HW2 2003   0.987   0.855   1.333  0.8803 -0.3324 -0.8989
  407SOL     OW 2004   0.191   3.000   0.453  0.0479  0.6139  0.1040
  407SOL    HW1 2005   0.210   3.064   0.385  0.5143 -0.5846 -0.9435
  407SOL    HW2 2006   0.152   2.926   0.406  0.4066 -0.2611  1.1356
  408SOL     OW 2007   1.248   0.719   2.334  0.2282  0.0464 -0.3822
  408SOL    HW1 2008   1.310   0.738   2.264 -1.2637  1.0893 -1.4863
  408SOL    HW2 2009   1.301   0.720   2.414  1.9142 -0.8198 -1.4267
  409SOL     OW 2010   2.669   0.658   2.447  0.3234 -0.0677  0.3225
  409SOL    HW1 2011   2.576   0.638   2.441 -0.2047  1.5967  2.1839
  409SOL    HW2 2012   2.705   0.629   2.362 -1.7732 -1.0808 -0.2884
  410SOL     OW 2013   0.146   2.452   3.325  0.0666  0.0988 -0.7507
  410SOL    HW1 2014   0.084   2.492   3.264 -0.2798 -0.2486 -0.6234
  410SOL    HW2 2015   0.116   2.479   3.411  1.2132  1.5506 -0.7604
  411SOL     OW 2016   0.647   2.982   1.509  0.1005  0.3852 -0.2690
  411SOL    HW1 2017   0.654   3.078   1.512  0.8504  0.3512 -0.7331
  411SOL    HW2 2018   0.597   2.959   1.588  0.6548  1.0946  0.3039
  412SOL     OW 2019   0.700   2.766   1.259  0.6398 -0.2586 -0.0992
  412SOL    HW1 2020   0.656   2.849   1.279 -0.1692 -0.8689  0.7495
  412SOL    HW2 2021   0.711   2.767   1.164  2.2443  1.5884  0.0437
  413SOL     OW 2022   2.157   3.313   2.752  0.0010 -0.7508  0.4211
  413SOL    HW1 2023   2.239   3.265   2.746  0.6695  0.3414  0.5142
  413SOL    HW2 2024   2.109   3.289   2.673  1.0322 -0.2935 -0.3638
  414SOL     OW 2025   0.058   2.606   0.646  0.2305  0.5501 -0.3807
  414SOL    HW1 2026   0.147   2.579   0.623  0.2870  1.3768 -1.1835
  414SOL    HW2 2027   0.069   2.660   0.724  0.5567  1.4750 -1.0538
  415SOL     OW 2028   1.788   2.665   2.206  0.0567 -0.3436 -0.1529
  415SOL    HW1 2029   1.714   2.613   2.173  0.8286 -0.9448 -0.9771
  415SOL    HW2 2030   1.865   2.612   2.189  0.9173  1.1953 -1.3157
  416SOL     OW 2031   1.202   2.037   2.129  0.1652  0.7780 -0.0378
  416SOL    HW1 2032   1.207   1.946   2.158  1.7227  1.1482  0.9884
  416SOL    HW2 2033   1.185   2.031   2.035  2.7564 -0.6845 -0.5144
  417SOL     OW 2034   0.743   2.329   2.595  0.1238  0.5558  0.3432
  417SOL    HW1 2035   0.830   2.351   2.628  0.2658 -1.9411  1.8761
  417SOL    HW2 2036   0.691   2.409   2.608  1.0515  0.7529  3.6042
  418SOL     OW 2037   1.366   0.709   1.485  0.3654  0.2576  0.7782
  418SOL    HW1 2038   1.448   0.759   1.490  0.4994  0.1962 -0.4116
  418SOL    HW2 2039   1.339   0.718   1.394 -0.8241  0.0541  1.0997
  419SOL     OW 2040   2.320   0.907   2.095 -0.1531  0.6298  0.1806
  419SOL    HW1 2041   2.375   0.983   2.111  0.1239  0.6345 -0.7625
  419SOL    HW2 2042   2.286   0.920   2.007  0.5706 -0.7480 -0.3273
  420SOL     OW 2043   2.273   1.641   2.353 -0.4354 -0.5502 -0.6032
  420SOL    HW1 2044   2.220   1.693   2.292 -0.1668 -1.8020 -1.9600
  420SOL    HW2 2045   2.328   1.706   2.397 -3.2057  0.8389  1.0702
  421SOL     OW 2046   1.553   2.060   1.409 -0.5535  0.4054  0.2721
  421SOL    HW1 2047   1.476   2.005   1.424 -0.4515  0.4899  1.1250
  421SOL    HW2 2048   1.565   2.058   1.314 -1.6900  0.5160  0.1127
  422SOL     OW 2049   1.196   1.944   1.866 -0.4023  0.0712  0.1476
  422SOL    HW1 2050   1.113   1.905   1.841 -0.2593  0.4284 -0.9267
  422SOL    HW2 2051   1.216   2.006   1.796  1.5580 -1.1747 -0.4869
  423SOL     OW 2052   1.078   0.994   1.415  0.6813 -0.4777 -0.3504
  423SOL    HW1 2053   1.125   1.060   1.363 -0.8121  1.7380  0.9691
  423SOL    HW2 2054   1.124   0.992   1.499  0.4069 -0.7539 -0.2033
  424SOL     OW 2055   1.491   1.410   1.868 -0.1161 -0.2261  0.0334
  424SOL    HW1 2056   1.524   1.471   1.934  1.3415 -1.4535  0.4855
  424SOL    HW2 2057   1.541   1.432   1.789  0.2474 -0.6604  0.1368
  425SOL     OW 2058   0.433   1.337   3.200 -0.0090 -0.3968  0.0865
  425SOL    HW1 2059   0.404   1.302   3.285 -0.1500 -0.4881  0.0015
  425SOL    HW2 2060   0.505   1.280   3.174  0.2674 -0.1512  0.3130
  426SOL     OW 2061   3.061   2.962   2.271  0.3223  0.1677  0.1773
  426SOL    HW1 2062   3.057   2.892   2.206 -0.2277  1.0568 -0.7615
  426SOL    HW2 2063   3.129   3.022   2.239 -1.7972  2.0310 -1.0782
  427SOL     OW 2064   1.077   1.850   2.496  0.2290  0.1783  0.7035
  427SOL    HW1 2065   1.128   1.811   2.567  0.2988 -0.7400  0.1550
  427SOL    HW2 2066   1.070   1.942   2.520 -0.1689 -0.2131  2.1503
  428SOL     OW 2067   2.272   0.944   0.433 -0.1698  0.4131 -0.6327
  428SOL    HW1 2068   2.328   0.866   0.433 -0.7216 -0.0215  0.7577
  428SOL    HW2 2069   2.320   1.006   0.488 -1.0705 -0.0075  0.6745
  429SOL     OW 2070   0.313   0.430   0.079  0.1265  0.1939 -0.1007
  429SOL    HW1 2071   0.344   0.517   0.108 -1.6188  0.9348 -0.3323
  429SOL    HW2 2072   0.251   0.449   0.009  0.9690 -1.3703 -1.3297
  430SOL     OW 2073   2.082   2.988   2.103 -0.0053  0.0993  0.2005
  430SOL    HW1 2074   2.133   2.914   2.070  0.7369  0.8736 -0.4484
  430SOL    HW2 2075   1.991   2.965   2.085  0.0753 -1.3153  1.3932
  431SOL     OW 2076   2.762   2.488   0.421  0.2578  0.0822  0.4580
  431SOL    HW1 2077   2.848   2.479   0.380  0.6688  0.5732  1.1856
  431SOL    HW2 2078   2.779   2.472   0.514 -0.5192 -0.2332  0.5489
  432SOL     OW 2079   2.178   0.471   0.736 -0.0600 -0.1568  0.1132
  432SOL    HW1 2080   2.259   0.504   0.776 -0.3267  0.1651  0.3896
  432SOL    HW2 2081   2.158   0.534   0.667  0.3502 -0.6632 -0.4791
  433SOL     OW 2082   2.430   3.256   2.700  0.0033 -0.2508 -0.2189
  433SOL    HW1 2083   2.465   3.191   2.639  2.0361 -0.3473  0.9462
  433SOL    HW2 2084   2.413   3.333   2.647 -1.3854 -1.3484 -1.4337
  434SOL     OW 2085   1.679   3.323   2.105 -0.3650  0.2566 -0.4187
  434SOL    HW1 2086   1.634   3.402   2.078 -0.7660  0.1525 -0.0679
  434SOL    HW2 2087   1.616   3.277   2.161 -0.3264 -0.5559 -1.0259
  435SOL     OW 2088   1.757   2.250   0.920  0.0101 -0.0546  0.0327
  435SOL    HW1 2089   1.681   2.195   0.936  0.5270 -0.6458  0.4955
  435SOL    HW2 2090   1.832   2.193   0.938  0.5606  0.5364 -0.3553
  436SOL     OW 2091   2.009   1.657   2.999 -0.0953 -0.0524  0.1533
  436SOL    HW1 2092   2.066   1.580   2.996 -0.1565 -0.1860  1.6565
  436SOL    HW2 2093   1.924   1.623   3.024 -0.8944  0.1417 -2.1320
  437SOL     OW 2094   0.816   2.791   1.952  0.0277 -0.0249 -0.0010
  437SOL    HW1 2095   0.773   2.859   1.901  1.4238 -0.1866 -1.5041
  437SOL    HW2 2096   0.897   2.831   1.982  0.1521 -0.5519  0.3904
  438SOL     OW 2097   0.949   1.869   0.831 -0.4227 -0.4671  0.5745
  438SOL    HW1 2098   1.020   1.852   0.769 -0.5188 -1.6819  0.7609
  438SOL    HW2 2099   0.872   1.829   0.790 -0.6026 -0.7719  1.2030
  439SOL     OW 2100   0.943   2.398   0.211 -0.2334 -0.2876 -0.1832
  439SOL    HW1 2101   0.876   2.332   0.228  0.1352 -0.8903 -0.9972
  439SOL    HW2 2102   1.026   2.354   0.227  0.0079  0.0483 -0.4915
  440SOL     OW 2103   2.167   1.880   0.735 -0.0529  0.3546  0.2132
  440SOL    HW1 2104   2.215   1.797   0.735  0.0775  0.4291  0.0054
  440SOL    HW2 2105   2.123   1.883   0.820  1.5699  1.0172  1.0592
  441SOL     OW 2106   1.538   1.602   0.588  0.1664  0.4010  0.0132
  441SOL    HW1 2107   1.481   1.596   0.666  0.0160 -1.4605 -0.2035
  441SOL    HW2 2108   1.484   1.647   0.523  0.3009  2.0088  0.9457
  442SOL     OW 2109   0.558   1.963   0.296 -0.1455 -0.0894  0.4647
  442SOL    HW1 2110   0.558   1.985   0.202  0.8198  0.1193  0.5031
  442SOL    HW2 2111   0.519   2.040   0.338 -1.3072 -0.5051  0.1770
  443SOL     OW 2112   2.419   1.496   2.701 -0.3052  0.1417 -0.4279
  443SOL    HW1 2113   2.453   1.479   2.789  1.5476  1.9016 -0.7229
  443SOL    HW2 2114   2.487   1.461   2.643 -0.6199  0.6898 -1.1303
  444SOL     OW 2115   2.943   2.833   1.220 -0.3089  0.3689  0.4883
  444SOL    HW1 2116   2.857   2.791   1.228 -0.4196  0.3676 -0.6341
  444SOL    HW2 2117   2.930   2.903   1.157  1.1090 -1.3131 -1.8096
  445SOL     OW 2118   2.686   2.784   1.212  0.0791  0.2426  0.2131
  445SOL    HW1 2119   2.656   2.873   1.193 -1.4651 -0.3871 -0.5066
  445SOL    HW2 2120   2.605   2.734   1.225  0.8803 -1.2252 -0.2405
  446SOL     OW 2121   0.230   1.906   1.726  0.5014  0.4007  0.4689
  446SOL    HW1 2122   0.222   1.982   1.668  1.4072  2.0405  2.3760
  446SOL    HW2 2123   0.142   1.869   1.730  0.1574  1.0307 -0.8836
  447SOL     OW 2124   2.700   0.941   0.241 -0.0164 -0.3197 -0.3781
  447SOL    HW1 2125   2.717   0.965   0.150  0.6366  0.5896 -0.0321
  447SOL    HW2 2126   2.751   0.860   0.254 -1.1392 -1.1795 -1.1657
  448SOL     OW 2127   2.327   1.951   1.090 -0.2253  0.5813 -0.4361
  448SOL    HW1 2128   2.361   1.965   1.178  0.0213  0.3369 -0.4918
  448SOL    HW2 2129   2.394   1.899   1.046 -1.4410 -1.5093  0.0050
  449SOL     OW 2130   2.989   0.446   2.355  0.0758  0.6509  0.2913
  449SOL    HW1 2131   2.951   0.519   2.306  1.1501  0.8953 -0.2015
  449SOL    HW2 2132   3.082   0.468   2.363  0.8188 -1.4490 -1.3985
  450SOL     OW 2133   0.856   0.367   2.403  0.1860 -0.0619 -0.2869
  450SOL    HW1 2134   0.882   0.305   2.471 -0.8795  1.0492  1.2012
  450SOL    HW2 2135   0.936   0.415   2.382  0.7187 -1.0054 -0.4791
  451SOL     OW 2136   2.591   0.571   1.018 -0.3301  0.1261  0.1422
  451SOL    HW1 2137   2.570   0.489   1.062 -2.5818  1.0054  0.8436
  451SOL    HW2 2138   2.586   0.638   1.086 -2.6836  1.3504 -1.1047
  452SOL     OW 2139   0.982   0.570   1.867  0.1474  0.0378 -0.1159
  452SOL    HW1 2140   0.894   0.547   1.838  0.4897 -0.6900 -0.6274
  452SOL    HW2 2141   0.997   0.658   1.834 -0.4577  0.2389  0.1405
  453SOL     OW 2142   2.016   0.905   0.506  0.0652  0.1897 -0.0961
  453SOL    HW1 2143   1.979   0.914   0.419 -1.2580 -0.0869  0.4160
  453SOL    HW2 2144   2.107   0.935   0.497 -0.3516  1.1559 -1.3257
  454SOL     OW 2145   0.844   3.040   0.652 -0.1696 -0.2965 -0.1797
  454SOL    HW1 2146   0.765   3.044   0.706  0.9265  0.6094  1.4475
  454SOL    HW2 2147   0.848   3.125   0.609 -0.0563 -0.3152 -0.2080
  455SOL     OW 2148   2.094   1.848   1.026  0.1763 -0.5226 -0.0785
  455SOL    HW1 2149   2.183   1.870   1.055  0.0215 -0.4305  0.3286
  455SOL    HW2 2150   2.092   1.753   1.022 -0.1518 -0.5883  1.3385
  456SOL     OW 2151   1.858   1.695   0.544 -0.3373  0.1998  0.0442
  456SOL    HW1 2152   1.800   1.684   0.619  0.6475 -0.2537  0.7658
  456SOL    HW2 2153   1.933   1.639   0.563  0.1433  0.4229 -1.0730
  457SOL     OW 2154   0.443   3.112   0.048 -0.3572  0.3542 -0.4704
  457SOL    HW1 2155   0.500   3.186   0.068 -0.9786  0.8346 -0.4711
  457SOL    HW2 2156   0.413   3.127  -0.041 -0.1523 -0.1225 -0.6245
  458SOL     OW 2157   2.924   0.964   1.303  0.0988 -0.1700  0.6309
  458SOL    HW1 2158   2.876   1.047   1.296  0.3155 -0.1676 -1.1143
  458SOL    HW2 2159   2.975   0.958   1.223  1.2000 -1.3327  1.3724
  459SOL     OW 2160   1.324   0.297   2.036  0.1480  0.3732 -0.4242
  459SOL    HW1 2161   1.247   0.350   2.057 -0.3262 -0.1087 -0.9052
  459SOL    HW2 2162   1.297   0.207   2.052  0.4448  0.1589 -1.0625
  460SOL     OW 2163   0.663   1.208   0.142  0.4042 -0.2429 -0.1036
  460SOL    HW1 2164   0.619   1.124   0.141  0.9170 -0.5082 -0.7793
  460SOL    HW2 2165   0.742   1.194   0.195 -0.1617  0.1601  0.8761
  461SOL     OW 2166   1.109   1.644   1.076 -0.6563 -0.0863  0.3963
  461SOL    HW1 2167   1.123   1.649   0.982 -1.7881  0.8319  0.2519
  461SOL    HW2 2168   1.021   1.681   1.089  0.4084  2.0794  2.0565
  462SOL     OW 2169   1.078   3.022   1.210 -0.1811 -0.2320 -0.3550
  462SOL    HW1 2170   1.009   3.079   1.177 -0.4354 -0.0721  0.4310
  462SOL    HW2 2171   1.156   3.049   1.163 -0.7421 -0.7805 -1.6668
  463SOL     OW 2172   3.253   0.818   2.951  0.2778 -0.4810  0.4898
  463SOL    HW1 2173   3.237   0.912   2.959 -0.1906 -0.4933 -0.2545
  463SOL    HW2 2174   3.166   0.781   2.933  0.7011 -0.8703 -0.8207
  464SOL     OW 2175   2.602   0.206   0.735 -0.4468 -0.2929 -0.0365
  464SOL    HW1 2176   2.559   0.127   0.705 -1.2940  0.2428 -0.2581
  464SOL    HW2 2177   2.553   0.233   0.813  1.4443 -1.4175  1.6442
  465SOL     OW 2178   0.190   0.059   1.440  0.1503  0.2865  0.4244
  465SOL    HW1 2179   0.263   0.108   1.479  0.0788 -0.8183  2.0073
  465SOL    HW2 2180   0.222  -0.031   1.434 -1.1471 -0.2538  1.3212
  466SOL     OW 2181   0.987   2.505   0.513 -0.5205 -0.3028  0.0055
  466SOL    HW1 2182   1.036   2.423   0.513  1.4774  0.8143 -0.6144
  466SOL    HW2 2183   0.973   2.524   0.420  1.4327  1.3492 -0.0136
  467SOL     OW 2184   2.089   2.340   2.806 -0.3438 -0.3573  0.1200
  467SOL    HW1 2185   2.025   2.408   2.826 -1.5939 -1.4360 -0.0816
  467SOL    HW2 2186   2.149   2.341   2.881  0.1635  1.4800 -0.2483
  468SOL     OW 2187   1.225   0.071   2.125  0.3290  0.2859 -0.4410
  468SOL    HW1 2188   1.239  -0.023   2.113 -0.1006 -0.0999  1.7125
  468SOL    HW2 2189   1.131   0.083   2.117  0.3260  0.4409 -0.1790
  469SOL     OW 2190   1.919   1.798   1.814 -0.5353  0.2480 -0.2773
  469SOL    HW1 2191   1.981   1.848   1.760  0.5502 -1.3142 -0.5444
  469SOL    HW2 2192   1.875   1.864   1.867  2.3490  1.3485  0.9414
  470SOL     OW 2193   2.354   1.110   0.630  0.1335 -0.1151  0.4073
  470SOL    HW1 2194   2.276   1.164   0.613  0.4024  0.8357  2.0201
  470SOL    HW2 2195   2.427   1.172   0.629  0.6694 -0.7312  0.5635
  471SOL     OW 2196   1.374   2.589   2.566  0.0950  0.2311  0.2518
  471SOL    HW1 2197   1.406   2.550   2.647 -1.1316 -1.7606 -0.1659
  471SOL    HW2 2198   1.351   2.515   2.511 -1.3879  1.5418 -0.9812
  472SOL     OW 2199   1.166   0.402   1.734  0.0765 -0.5888 -0.6851
  472SOL    HW1 2200   1.111   0.466   1.779 -0.2580 -1.0061 -0.4923
  472SOL    HW2 2201   1.225   0.369   1.801 -0.0509 -0.8064 -0.6788
  473SOL     OW 2202   2.717   0.465   1.655  0.1766 -0.0606 -0.2416
  473SOL    HW1 2203   2.697   0.551   1.617 -0.9308 -0.0629  0.2830
  473SOL    HW2 2204   2.638   0.443   1.706  0.3408 -1.5081 -0.5738
  474SOL     OW 2205   1.683   2.452   1.800  0.0709  0.0067  0.1197
  474SOL    HW1 2206   1.674   2.420   1.710  0.0383 -0.2649  0.2167
  474SOL    HW2 2207   1.593   2.463   1.831  0.0823  0.3831  0.0219
  475SOL     OW 2208   0.591   3.095   2.467  0.1394  0.0478  0.1129
  475SOL    HW1 2209   0.625   3.112   2.556 -1.2253  0.3669  0.5918
  475SOL    HW2 2210   0.576   3.001   2.465 -1.4565  0.2630  0.8418
  476SOL     OW 2211   3.240   3.190   0.494  0.0334 -0.6848 -0.2635
  476SOL    HW1 2212   3.241   3.253   0.422 -0.6393  0.6232  0.8168
  476SOL    HW2 2213   3.151   3.194   0.528  0.5816 -0.5305  1.2421
  477SOL     OW 2214   0.989   0.831   1.733  0.0870 -0.4281 -0.4154
  477SOL    HW1 2215   1.003   0.917   1.772  0.6979 -0.7708  0.1424
  477SOL    HW2 2216   1.077   0.803   1.707  0.2007 -1.7396  1.2288
  478SOL     OW 2217   2.047   2.560   1.473 -0.0787 -0.0023  0.0166
  478SOL    HW1 2218   1.960   2.523   1.459 -0.2413  0.1244  0.6733
  478SOL    HW2 2219   2.049   2.582   1.566  0.3660  0.7475 -0.1623
  479SOL     OW 2220   3.145   0.016   0.893 -0.6243  0.2727  0.3033
  479SOL    HW1 2221   3.055   0.012   0.926 -0.0857  0.3452  1.9099
  479SOL    HW2 2222   3.199  -0.009   0.969  0.8749  3.0879  0.3282
  480SOL     OW 2223   2.191   2.030   2.610  0.0900 -0.0471  0.2481
  480SOL    HW1 2224   2.190   2.107   2.553  2.0221 -0.6039 -0.6004
  480SOL    HW2 2225   2.122   1.974   2.575  0.8884 -0.1384 -1.2364
  481SOL     OW 2226   2.426   1.391   0.720  0.3138  0.1473  0.4164
  481SOL    HW1 2227   2.422   1.349   0.806  0.3229  0.0233  0.3564
  481SOL    HW2 2228   2.505   1.356   0.679  1.1642  1.3609  0.9513
  482SOL     OW 2229   1.448   1.347   0.480  0.4729  0.6368  0.2027
  482SOL    HW1 2230   1.543   1.352   0.474  0.5059  1.2108  1.0210
  482SOL    HW2 2231   1.429   1.253   0.485  1.0113  0.5292  0.3021
  483SOL     OW 2232   0.898   2.391   1.394  0.5484 -0.0327 -0.4160
  483SOL    HW1 2233   0.943   2.473   1.414  1.0057 -0.6745  1.3545
  483SOL    HW2 2234   0.806   2.416   1.383  0.4834  0.5931  1.2945
  484SOL     OW 2235   1.060   1.119   2.324 -0.2276  0.3602 -0.5328
  484SOL    HW1 2236   1.062   1.215   2.325  0.1211  0.4397 -3.0038
  484SOL    HW2 2237   1.069   1.096   2.232 -1.2418 -2.0511 -0.0969
  485SOL     OW 2238   0.642   2.838   2.781 -0.1532  0.2558  0.2548
  485SOL    HW1 2239   0.685   2.786   2.849 -0.3012 -1.3701 -0.8494
  485SOL    HW2 2240   0.551   2.810   2.782  0.5319 -2.6868 -3.0745
  486SOL     OW 2241   1.326   0.211   0.825  0.2309  0.3563 -0.2867
  486SOL    HW1 2242   1.360   0.208   0.914 -1.4697 -2.7367  0.3909
  486SOL    HW2 2243   1.282   0.296   0.819  2.5655  1.7702  0.8235
  487SOL     OW 2244   3.246   2.980   0.168  0.2839  0.3440 -0.0410
  487SOL    HW1 2245   3.311   2.917   0.198  1.9203  2.0462  0.2279
  487SOL    HW2 2246   3.206   3.013   0.248  0.3221  0.5217 -0.0941
  488SOL     OW 2247   2.565   1.277   2.637 -0.0968  0.6164 -0.4740
  488SOL    HW1 2248   2.479   1.237   2.625  0.4534 -1.3717  1.4631
  488SOL    HW2 2249   2.579   1.276   2.732  2.6970 -0.7007 -0.7832
  489SOL     OW 2250   2.495   2.571   0.963 -0.6240  0.3608  0.0396
  489SOL    HW1 2251   2.556   2.514   1.010  1.6777  2.6213 -0.0271
  489SOL    HW2 2252   2.410   2.554   1.005 -0.0557 -2.8560  0.1800
  490SOL     OW 2253   0.840   1.908   2.926  0.7092  0.7591 -0.0734
  490SOL    HW1 2254   0.819   1.962   3.003 -0.0305 -0.3418  0.5329
  490SOL    HW2 2255   0.919   1.861   2.951 -1.1295 -1.8518  1.2954
  491SOL     OW 2256   2.744   2.370   1.034  0.5103  0.2050 -0.4465
  491SOL    HW1 2257   2.732   2.279   1.007 -0.0484  0.0256  0.3804
  491SOL    HW2 2258   2.766   2.365   1.127 -0.8651  0.9686 -0.0520
  492SOL     OW 2259   2.591   1.764   0.061 -0.2969 -0.1847 -0.5183
  492SOL    HW1 2260   2.567   1.807   0.143 -1.3350 -1.6956  0.0165
  492SOL    HW2 2261   2.572   1.829  -0.007  0.6617  1.1230  0.4194
  493SOL     OW 2262   1.024   1.713   3.169 -0.4447  0.2400 -0.4053
  493SOL    HW1 2263   0.972   1.647   3.123 -0.5135 -0.8019  1.0728
  493SOL    HW2 2264   0.975   1.729   3.250  0.3854  0.9275 -0.0282
  494SOL     OW 2265   3.218   0.276   0.420 -0.4859 -0.1267 -0.3183
  494SOL    HW1 2266   3.234   0.221   0.497 -0.3511 -0.2341 -0.4221
  494SOL    HW2 2267   3.127   0.305   0.430 -0.4790 -0.1645 -0.1344
  495SOL     OW 2268   2.182   0.552   2.025  0.4118 -0.1584 -0.5464
  495SOL    HW1 2269   2.100   0.601   2.019  0.5325  0.1226  0.0153
  495SOL    HW2 2270   2.222   0.583   2.106 -0.2162 -2.2633  0.6141
  496SOL     OW 2271   2.248   2.142   0.495  0.6342  0.0521 -0.1168
  496SOL    HW1 2272   2.224   2.225   0.454 -0.3125  0.0994  0.5035
  496SOL    HW2 2273   2.167   2.110   0.534  0.4230 -2.2388 -2.1393
  497SOL     OW 2274   0.057   2.147   2.017 -0.1321 -0.7681  0.0931
  497SOL    HW1 2275   0.063   2.132   2.112  0.3539  0.5832  0.2954
  497SOL    HW2 2276   0.145   2.126   1.985  0.3726  0.9306  0.2910
  498SOL     OW 2277   0.431   3.188   0.642  0.1205 -0.2709  0.2235
  498SOL    HW1 2278   0.394   3.183   0.553 -0.7539  1.6152  0.4136
  498SOL    HW2 2279   0.355   3.181   0.699  0.4373  0.4732  0.7449
  499SOL     OW 2280   0.439   0.541   1.909  0.2286 -0.5485  0.8980
  499SOL    HW1 2281   0.427   0.498   1.994  0.1877 -1.2557  0.5418
  499SOL    HW2 2282   0.358   0.590   1.895  0.5205  0.1534  1.5907
  500SOL     OW 2283   1.646   2.855   1.006 -0.2559 -0.3294  0.0547
  500SOL    HW1 2284   1.651   2.909   1.085 -0.7040  0.8331 -0.6875
  500SOL    HW2 2285   1.736   2.855   0.972 -0.3819  0.5547 -0.3142
  501SOL     OW 2286   1.148   1.356   1.976 -0.1143  0.5801 -0.6071
  501SOL    HW1 2287   1.238   1.349   2.009  0.0461  0.5458 -1.0402
  501SOL    HW2 2288   1.100   1.401   2.045 -0.0422 -0.4890  0.1638
  502SOL     OW 2289   0.641   0.084   0.904 -0.2351 -0.4749  0.8475
  502SOL    HW1 2290   0.649   0.170   0.944  0.0358 -0.2948  0.4211
  502SOL    HW2 2291   0.653   0.022   0.976 -0.3837 -0.1580  1.1460
  503SOL     OW 2292   0.280   3.180   0.268  0.0274 -0.0357 -0.2169
  503SOL    HW1 2293   0.344   3.168   0.199  1.0549 -0.1859  0.7373
  503SOL    HW2 2294   0.304   3.262   0.309 -1.7864  1.0852 -1.2629
  504SOL     OW 2295   3.258   0.152   0.668  0.1639 -0.1433  0.2166
  504SOL    HW1 2296   3.353   0.150   0.666  0.1495 -1.8219  0.1489
  504SOL    HW2 2297   3.234   0.108   0.750 -0.5654 -0.4975 -0.1771
  505SOL     OW 2298   2.999   0.687   2.912  0.2412  0.6306 -0.0091
  505SOL    HW1 2299   3.006   0.614   2.974 -0.9237  1.2664  0.9249
  505SOL    HW2 2300   2.940   0.655   2.843  1.5039 -0.0634 -0.7956
  506SOL     OW 2301   0.694   0.840   0.577 -0.1777 -0.2900  0.0371
  506SOL    HW1 2302   0.614   0.790   0.593 -2.4067  2.5065 -1.6189
  506SOL    HW2 2303   0.744   0.830   0.658 -1.8010 -2.7169  0.8596
  507SOL     OW 2304   3.083   2.552   1.265  0.6510 -0.0042  0.1052
  507SOL    HW1 2305   3.124   2.538   1.350 -1.2005  1.5265  1.3370
  507SOL    HW2 2306   3.133   2.622   1.225  0.2133  0.8163  0.9460
  508SOL     OW 2307   2.932   0.163   2.640  0.1308 -0.6440  0.2136
  508SOL    HW1 2308   2.930   0.115   2.558  0.5826 -0.5476  0.1462
  508SOL    HW2 2309   2.841   0.163   2.670 -0.0734 -0.4908 -0.3942
  509SOL     OW 2310   0.963   3.030   3.296  0.1000  0.0768 -0.0527
  509SOL    HW1 2311   0.968   3.035   3.201  0.2614  0.2320 -0.0370
  509SOL    HW2 2312   0.931   3.117   3.322  1.0488  0.3909  0.1015
  510SOL     OW 2313   0.506   2.227   0.318  0.7672 -0.4436  0.2995
  510SOL    HW1 2314   0.415   2.250   0.302  0.2357 -2.6624 -0.2719
  510SOL    HW2 2315   0.546   2.307   0.351 -1.2393  0.7414  0.0183
  511SOL     OW 2316   2.547   2.816   1.793 -0.0962  0.0309  0.2245
  511SOL    HW1 2317   2.620   2.798   1.732 -1.4384  0.1948 -1.5150
  511SOL    HW2 2318   2.469   2.805   1.740 -1.3285  0.8481  1.7955
  512SOL     OW 2319   2.178   2.168   1.687  0.0244 -0.2297  0.1767
  512SOL    HW1 2320   2.106   2.105   1.691 -0.1310  0.0136  2.8330
  512SOL    HW2 2321   2.165   2.224   1.763  2.6937  0.2043  0.3977
  513SOL     OW 2322   2.468   1.945   3.208  0.5136 -0.2814  0.8886
  513SOL    HW1 2323   2.416   1.889   3.149  0.5539 -1.5471  2.0018
  513SOL    HW2 2324   2.503   2.013   3.151 -0.2848 -0.8695 -0.3633
  514SOL     OW 2325   2.657   0.676   0.535  0.1454  0.0706  0.3214
  514SOL    HW1 2326   2.685   0.646   0.621  0.1687 -2.0462 -0.3604
  514SOL    HW2 2327   2.738   0.691   0.487  0.1351 -0.3258  0.1765
  515SOL     OW 2328   0.047   2.816   1.291 -0.2183  0.1575  0.1694
  515SOL    HW1 2329   0.002   2.837   1.372  0.0468  1.0404  0.0971
  515SOL    HW2 2330  -0.021   2.781   1.234 -0.1164 -2.0438  1.3068
  516SOL     OW 2331   0.612   3.053   0.812  0.4610  0.1605  0.0470
  516SOL    HW1 2332   0.623   3.116   0.884  0.8076  1.5355 -1.1586
  516SOL    HW2 2333   0.540   3.088   0.760 -0.6489 -1.5089  0.3784
  517SOL     OW 2334   0.855   0.463   2.900 -0.2086 -0.0253 -0.9290
  517SOL    HW1 2335   0.941   0.504   2.902  0.3129 -1.0706 -0.9288
  517SOL    HW2 2336   0.853   0.415   2.817  0.3277 -2.2164  0.2247
  518SOL     OW 2337   1.274   1.986   0.558  0.6115 -0.2283  0.4237
  518SOL    HW1 2338   1.319   2.066   0.585  0.6714  0.0062 -0.3454
  518SOL    HW2 2339   1.326   1.952   0.485 -0.6269  0.2337 -0.7110
  519SOL     OW 2340   1.795   0.108   0.879  0.3618 -0.3559 -0.3239
  519SOL    HW1 2341   1.770   0.187   0.832  2.9392  1.0454  0.4960
  519SOL    HW2 2342   1.740   0.108   0.958  1.4780  1.6371  0.5376
  520SOL     OW 2343   2.691   3.303   1.362  0.1747 -0.2923  0.1172
  520SOL    HW1 2344   2.626   3.299   1.292  1.5101  1.6229 -1.3386
  520SOL    HW2 2345   2.643   3.339   1.437 -0.6463  0.3113 -0.6788
  521SOL     OW 2346   1.574   1.954   1.765 -0.0182 -0.0699  0.3373
  521SOL    HW1 2347   1.543   2.043   1.784  0.7082  0.0294  1.1005
  521SOL    HW2 2348   1.517   1.898   1.818  0.1510  0.0100  0.6055
  522SOL     OW 2349   1.723   0.564   0.428 -0.4264  0.2832 -0.1451
  522SOL    HW1 2350   1.719   0.581   0.334 -1.5550  2.2373  0.2061
  522SOL    HW2 2351   1.637   0.528   0.450  0.0624 -0.7957  0.0470
  523SOL     OW 2352   0.835   2.782   2.323 -0.2448 -0.1316 -0.1757
  523SOL    HW1 2353   0.766   2.833   2.282 -0.4724 -0.4010 -0.1311
  523SOL    HW2 2354   0.914   2.834   2.310 -0.5704  0.5359  0.4225
  524SOL     OW 2355   2.103   3.122   1.799 -0.4058 -0.0753  0.1198
  524SOL    HW1 2356   2.036   3.136   1.865  0.8474  0.4584  1.3289
  524SOL    HW2 2357   2.074   3.044   1.752 -1.8140  0.0949  0.6572
  525SOL     OW 2358   1.374   0.789   2.090 -0.7669  0.2115  0.6815
  525SOL    HW1 2359   1.469   0.780   2.100 -0.2869  1.8262 -1.6204
  525SOL    HW2 2360   1.355   0.750   2.004 -1.8137  1.8340  0.1393
  526SOL     OW 2361   2.573   3.045   1.119  0.1701  0.0979 -0.0481
  526SOL    HW1 2362   2.533   3.012   1.039  1.5666 -0.0933 -0.6980
  526SOL    HW2 2363   2.582   3.140   1.104  0.1428  0.1096  0.0096
  527SOL     OW 2364   0.355   0.056   0.872  0.2626 -0.2262 -0.1223
  527SOL    HW1 2365   0.326  -0.007   0.938  0.3279 -0.5564 -0.4064
  527SOL    HW2 2366   0.449   0.063   0.885  0.1900  0.1702  0.2149
  528SOL     OW 2367   0.908   1.294   3.294 -0.5216  0.1077 -0.0654
  528SOL    HW1 2368   0.824   1.254   3.316  0.4848 -1.2879  1.4894
  528SOL    HW2 2369   0.886   1.383   3.268 -2.5174 -0.3470 -0.1108
  529SOL     OW 2370   2.686   1.930   0.726  0.0643  0.2160 -0.2177
  529SOL    HW1 2371   2.708   1.859   0.665 -1.7762 -0.0739 -0.6055
  529SOL    HW2 2372   2.591   1.939   0.718 -0.1269  0.7144  2.0378
  530SOL     OW 2373   2.606   0.121   3.033  0.0423  0.0924 -0.2281
  530SOL    HW1 2374   2.604   0.043   2.977  0.0530 -1.1823  1.4811
  530SOL    HW2 2375   2.693   0.158   3.020 -0.1854  0.2245 -1.5433
  531SOL     OW 2376   0.682   2.977   2.192  0.3018 -0.1962  0.9818
  531SOL    HW1 2377   0.676   2.954   2.100 -0.3407 -0.9019  1.1914
  531SOL    HW2 2378   0.667   3.072   2.194 -0.2526 -0.2660  0.4167
  532SOL     OW 2379   0.991   3.148   2.696  0.4612 -0.4369  0.1110
  532SOL    HW1 2380   1.040   3.125   2.775  0.2008  0.1138  0.4438
  532SOL    HW2 2381   0.908   3.103   2.704  0.7100 -0.9591 -0.2036
  533SOL     OW 2382   3.071   0.957   1.059 -0.5218  0.3365 -0.1670
  533SOL    HW1 2383   3.085   1.034   1.004  1.4704  0.0304 -0.1712
  533SOL    HW2 2384   3.159   0.933   1.088 -1.1899 -1.4827  0.4547
  534SOL     OW 2385   2.109   1.856   1.351  0.3809  0.5191  0.1703
  534SOL    HW1 2386   2.107   1.911   1.272 -2.2722  0.9836  0.4637
  534SOL    HW2 2387   2.098   1.767   1.318 -3.3435  0.8872 -0.0215
  535SOL     OW 2388   0.923   2.916   0.202  0.3140  0.2157  0.1593
  535SOL    HW1 2389   1.016   2.923   0.221  0.5223 -0.9783 -0.3264
  535SOL    HW2 2390   0.914   2.944   0.111  0.4137 -0.8533 -0.2017
  536SOL     OW 2391   0.815   2.075   3.131  0.6539 -0.3504  0.5981
  536SOL    HW1 2392   0.724   2.101   3.114  0.3989 -1.0922  0.7848
  536SOL    HW2 2393   0.823   2.076   3.227  0.0229 -2.9031  0.7282
  537SOL     OW 2394   0.654   3.327   2.351  0.4644  0.1093  0.3226
  537SOL    HW1 2395   0.616   3.246   2.387 -0.1170 -0.6230 -1.7878
  537SOL    HW2 2396   0.580   3.388   2.346  0.9341  0.8799  2.0569
  538SOL     OW 2397   2.779   1.405   3.102 -0.5534 -0.0868  0.0964
  538SOL    HW1 2398   2.717   1.453   3.156  0.8235  1.8179  0.0694
  538SOL    HW2 2399   2.841   1.366   3.164 -0.3654  0.0681  0.0065
  539SOL     OW 2400   0.818   0.840   0.829  0.0217  0.3057  0.2898
  539SOL    HW1 2401   0.860   0.834   0.915  0.1384 -1.5261  0.1335
  539SOL    HW2 2402   0.730   0.874   0.848  0.6218  1.6059  0.9098
  540SOL     OW 2403   3.189   2.660   0.446 -0.5313 -0.4236  0.0022
  540SOL    HW1 2404   3.251   2.651   0.518 -0.4851 -0.4458 -0.0400
  540SOL    HW2 2405   3.171   2.754   0.441 -1.5758 -0.5585  0.9194
  541SOL     OW 2406   0.557   2.630   1.615  0.0749 -0.2295 -0.2385
  541SOL    HW1 2407   0.507   2.584   1.682  1.5386 -1.5697 -0.0028
  541SOL    HW2 2408   0.536   2.723   1.628 -1.7321 -0.6849  0.2959
  542SOL     OW 2409   0.733   1.513   3.235  0.4587 -0.4469  0.1259
  542SOL    HW1 2410   0.662   1.545   3.179  0.2542 -0.8467  0.1622
  542SOL    HW2 2411   0.693   1.500   3.320  0.7293 -0.0243  0.3215
  543SOL     OW 2412   2.425   1.930   1.342  0.1268 -0.0385 -0.0784
  543SOL    HW1 2413   2.404   1.996   1.408 -0.2797 -0.1576 -0.0891
  543SOL    HW2 2414   2.406   1.846   1.384  1.7356 -0.2236  0.3511
  544SOL     OW 2415   2.822   2.433   1.279 -0.0106  0.0781  0.2418
  544SOL    HW1 2416   2.907   2.467   1.251  1.4748 -2.4743  1.3569
  544SOL    HW2 2417   2.788   2.500   1.338  1.7124  0.6992  0.5710
  545SOL     OW 2418   2.628   0.130   1.612  0.3687  0.0292 -0.0419
  545SOL    HW1 2419   2.564   0.129   1.683 -0.8391 -1.4281 -1.0704
  545SOL    HW2 2420   2.710   0.156   1.654 -0.0846 -1.6512  2.0771
  546SOL     OW 2421   2.578   0.849   3.212 -0.2367  0.0400  0.3594
  546SOL    HW1 2422   2.642   0.874   3.145  0.9816 -0.2916  1.3591
  546SOL    HW2 2423   2.523   0.926   3.223  1.3929  1.1624  1.0430
  547SOL     OW 2424   2.683   0.087   2.706 -0.0559 -0.0549 -0.6793
  547SOL    HW1 2425   2.590   0.100   2.726  0.0863  0.7319 -0.5059
  547SOL    HW2 2426   2.685   0.009   2.651 -0.9203  0.5076 -1.5272
  548SOL     OW 2427   0.553   0.964   0.092 -0.1589 -0.1493  0.3358
  548SOL    HW1 2428   0.467   0.967   0.051  0.8348  0.3513 -1.8267
  548SOL    HW2 2429   0.601   0.898   0.043  0.6398 -0.5786  1.6621
  549SOL     OW 2430   1.988   1.854   2.613 -0.1687  0.1346 -0.0024
  549SOL    HW1 2431   1.953   1.809   2.536  0.8839  0.3787 -0.6454
  549SOL    HW2 2432   1.913   1.864   2.671 -1.2350  0.8540 -1.4297
  550SOL     OW 2433   0.447   1.730   2.861  0.3378  0.3775 -0.2117
  550SOL    HW1 2434   0.384   1.686   2.804 -0.7877  0.8243  0.6345
  550SOL    HW2 2435   0.404   1.812   2.885  1.9392  1.4458 -0.8822
  551SOL     OW 2436   0.724   2.715   0.283 -0.3851 -0.0529 -0.0886
  551SOL    HW1 2437   0.695   2.740   0.371  0.1249 -0.5720  0.2342
  551SOL    HW2 2438   0.784   2.785   0.258 -1.2549  0.5959 -0.4257
  552SOL     OW 2439   1.967   0.156   1.199  0.0959 -0.7196  0.5628
  552SOL    HW1 2440   1.876   0.172   1.177 -0.0728 -1.9378  0.2638
  552SOL    HW2 2441   1.993   0.231   1.252 -0.6558  0.3333 -0.5063
  553SOL     OW 2442   2.419   1.946   0.644 -0.6044 -0.1235 -0.0440
  553SOL    HW1 2443   2.341   1.908   0.685 -0.3449 -0.0118  0.5520
  553SOL    HW2 2444   2.385   2.020   0.594 -0.6269  1.3663  2.0648
  554SOL     OW 2445   2.520   0.868   1.736 -0.2851  0.3328 -0.1578
  554SOL    HW1 2446   2.481   0.821   1.810  0.1118  0.5857  0.2226
  554SOL    HW2 2447   2.614   0.849   1.743 -0.4878 -1.9478 -2.2429
  555SOL     OW 2448   1.737   2.031   2.920  0.3063 -0.6405 -0.2279
  555SOL    HW1 2449   1.694   2.035   2.834  0.8665  0.1434 -0.4831
  555SOL    HW2 2450   1.825   2.064   2.904 -0.2334  1.6202  1.0458
  556SOL     OW 2451   0.577   1.779   3.318  0.1364 -0.0516 -0.0249
  556SOL    HW1 2452   0.551   1.704   3.371 -1.0058 -0.0517 -0.5651
  556SOL    HW2 2453   0.531   1.767   3.236  0.5400  0.8578 -0.3924
  557SOL     OW 2454   2.601   1.546   3.241 -0.2012 -0.1372  0.2329
  557SOL    HW1 2455   2.530   1.556   3.177 -1.1036  0.1690  1.2410
  557SOL    HW2 2456   2.599   1.628   3.291  0.5338 -0.3386  0.5979
  558SOL     OW 2457   1.015   1.390   0.211 -0.3701 -0.2673 -0.1799
  558SOL    HW1 2458   1.108   1.369   0.220  0.0229  1.0024 -1.1345
  558SOL    HW2 2459   0.985   1.333   0.140 -0.2253 -0.4006 -0.1356
  559SOL     OW 2460   1.310   0.960   0.786  0.0218 -0.4647 -0.2417
  559SOL    HW1 2461   1.230   0.979   0.835 -0.3477 -1.5377 -0.4044
  559SOL    HW2 2462   1.291   0.989   0.697 -0.4430 -1.3123 -0.4309
  560SOL     OW 2463   2.411   1.607   3.049 -0.9521  0.0656  0.2468
  560SOL    HW1 2464   2.344   1.542   3.029 -0.4642 -0.2990 -0.2275
  560SOL    HW2 2465   2.395   1.678   2.987 -0.6739 -0.1857 -0.1164
  561SOL     OW 2466   1.240   1.166   1.589  0.1361  0.1633 -0.4198
  561SOL    HW1 2467   1.314   1.148   1.648  0.5463 -0.1082 -1.0013
  561SOL    HW2 2468   1.270   1.239   1.535  0.6290 -0.9388 -1.7129
  562SOL     OW 2469   3.052   2.948   1.437 -0.1981 -0.6972  0.5484
  562SOL    HW1 2470   3.009   2.889   1.375  0.3952 -0.3885 -0.1890
  562SOL    HW2 2471   3.020   3.035   1.413  1.4069 -0.3621 -0.5743
  563SOL     OW 2472   0.226   2.366   0.273  0.1155  0.4752  0.7140
  563SOL    HW1 2473   0.140   2.408   0.261  1.1330  2.4563 -0.2477
  563SOL    HW2 2474   0.278   2.432   0.320  2.1247  0.8625 -1.8205
  564SOL     OW 2475   2.671   3.185   0.445 -0.2620  0.1553  0.0123
  564SOL    HW1 2476   2.629   3.221   0.367 -1.1847 -0.3847  0.2508
  564SOL    HW2 2477   2.721   3.258   0.481 -0.2590  0.5537 -0.7810
  565SOL     OW 2478   0.600   2.132   1.178 -0.6277  0.6037  0.0645
  565SOL    HW1 2479   0.679   2.093   1.141 -2.1508 -0.3098 -2.5292
  565SOL    HW2 2480   0.553   2.059   1.217 -0.2232  1.1418  1.5979
  566SOL     OW 2481   0.447   2.854   2.512 -0.2337  0.2806  0.0585
  566SOL    HW1 2482   0.517   2.827   2.571  0.9332 -0.0231 -1.3861
  566SOL    HW2 2483   0.433   2.778   2.455 -0.1201  1.0989 -1.1211
  567SOL     OW 2484   2.735   0.612   0.778  0.4338  0.0623 -0.2562
  567SOL    HW1 2485   2.801   0.661   0.826 -0.1148  1.9696 -1.3721
  567SOL    HW2 2486   2.675   0.581   0.846  0.5241  1.3629  0.4552
  568SOL     OW 2487   0.790   2.066   2.519  0.4179  0.0631  0.4211
  568SOL    HW1 2488   0.882   2.042   2.522  0.9841  1.7822 -1.4135
  568SOL    HW2 2489   0.788   2.160   2.536 -0.9330  0.1772 -0.1997
  569SOL     OW 2490   0.560   0.331   3.046 -0.0325 -0.2770  0.5626
  569SOL    HW1 2491   0.523   0.295   3.127 -0.1312  1.5330  1.3538
  569SOL    HW2 2492   0.655   0.321   3.058 -0.0927 -1.3891  0.2187
  570SOL     OW 2493   1.261   0.386   2.491 -0.0599  0.3133  0.4267
  570SOL    HW1 2494   1.250   0.300   2.450  0.9378  0.3247  0.0962
  570SOL    HW2 2495   1.179   0.432   2.474  0.1043  0.0987 -1.0915
  571SOL     OW 2496   2.656   0.331   2.559  0.4876 -0.3017  0.2426
  571SOL    HW1 2497   2.677   0.407   2.614 -0.2644 -1.2551  1.9374
  571SOL    HW2 2498   2.660   0.256   2.620  0.7466 -1.5667 -1.2708
  572SOL     OW 2499   1.063   0.059   1.660  0.2626  0.5265  0.2648
  572SOL    HW1 2500   1.080   0.121   1.731  0.6480 -0.5757  1.1704
  572SOL    HW2 2501   1.145   0.011   1.650  0.2398  0.7396 -1.0098
  573SOL     OW 2502   1.375   2.414   1.435 -0.2425 -0.3021  0.1101
  573SOL    HW1 2503   1.369   2.439   1.343 -0.4207 -1.7988 -0.3083
  573SOL    HW2 2504   1.298   2.360   1.451  0.7167 -1.5594  0.6383
  574SOL     OW 2505   2.991   2.838   0.706 -0.1085 -0.2522  0.4140
  574SOL    HW1 2506   3.037   2.769   0.755 -0.1135  0.3608  1.3156
  574SOL    HW2 2507   3.034   2.839   0.620  1.4476  0.1588  1.1518
  575SOL     OW 2508   2.148   2.873   1.485 -0.2774 -0.1242  0.5313
  575SOL    HW1 2509   2.101   2.811   1.430  0.2386 -0.7242  0.7572
  575SOL    HW2 2510   2.091   2.886   1.561  0.1326 -1.2428  1.0484
  576SOL     OW 2511   2.867   0.780   0.971 -0.2271  0.5913 -0.0858
  576SOL    HW1 2512   2.952   0.811   1.001  0.7493 -0.8479 -1.2021
  576SOL    HW2 2513   2.822   0.750   1.050  1.2654 -0.7770  0.2866
  577SOL     OW 2514   0.932   2.283   2.177  0.5089 -0.4770  0.0309
  577SOL    HW1 2515   0.919   2.343   2.250 -0.2035  0.3525 -0.7542
  577SOL    HW2 2516   1.007   2.318   2.129  0.5286 -0.6151 -0.0405
  578SOL     OW 2517   3.316   3.242   1.755  0.1038  0.4310 -0.0718
  578SOL    HW1 2518   3.248   3.249   1.822  0.1960 -1.3799  0.2603
  578SOL    HW2 2519   3.398   3.246   1.803  0.2009  0.7450 -0.2621
  579SOL     OW 2520   2.355   2.557   1.738 -0.1664 -0.5985  0.3317
  579SOL    HW1 2521   2.403   2.482   1.703  0.8568 -0.1746  0.8027
  579SOL    HW2 2522   2.368   2.626   1.673  1.0766 -0.0513  1.1296
  580SOL     OW 2523   0.232   0.109   3.272  0.1984 -0.0858  0.3311
  580SOL    HW1 2524   0.164   0.137   3.210  0.5450  0.4905  0.2094
  580SOL    HW2 2525   0.182   0.075   3.346 -0.2260 -0.0051  0.0919
  581SOL     OW 2526   1.952   0.428   0.469 -0.5671 -0.3089 -0.4481
  581SOL    HW1 2527   2.010   0.502   0.489 -1.1994  0.8892 -2.6940
  581SOL    HW2 2528   1.863   0.464   0.478 -0.8956 -0.9470 -1.0314
  582SOL     OW 2529   2.179   1.603   0.349  0.4415  0.4613 -0.4783
  582SOL    HW1 2530   2.141   1.589   0.436 -0.2243  1.6884 -0.5549
  582SOL    HW2 2531   2.110   1.574   0.289  0.4738  0.6378 -0.6013
  583SOL     OW 2532   0.708   1.727   2.769 -0.1415  0.1050 -0.5372
  583SOL    HW1 2533   0.616   1.740   2.792  0.0989 -0.7758  1.0863
  583SOL    HW2 2534   0.754   1.798   2.813  0.2316 -1.0946  1.0967
  584SOL     OW 2535   0.914   2.519   2.328  0.0646  0.1253  0.3341
  584SOL    HW1 2536   0.989   2.567   2.292 -1.3436  0.9539 -1.6801
  584SOL    HW2 2537   0.844   2.584   2.334 -1.4360 -1.2657 -0.9623
  585SOL     OW 2538   0.390   2.885   0.617 -0.3300 -0.3061  0.9003
  585SOL    HW1 2539   0.329   2.937   0.564  0.6257 -0.1974 -0.1306
  585SOL    HW2 2540   0.398   2.935   0.699 -0.6342  0.3450  0.5455
  586SOL     OW 2541   2.321   1.636   0.731  0.1871  0.4537 -0.0698
  586SOL    HW1 2542   2.351   1.548   0.710 -1.7051 -0.5922  1.2572
  586SOL    HW2 2543   2.373   1.661   0.807 -2.1640 -1.4393  2.3668
  587SOL     OW 2544   0.920   3.190   1.069  0.2882 -0.2943 -0.3847
  587SOL    HW1 2545   0.965   3.145   0.998  0.1669  0.0878 -0.7097
  587SOL    HW2 2546   0.969   3.271   1.081 -0.3004  0.1224 -0.7357
  588SOL     OW 2547   1.971   2.109   1.004 -0.3492  0.3956 -0.6737
  588SOL    HW1 2548   2.026   2.186   0.992 -0.4022  0.7324  1.0146
  588SOL    HW2 2549   2.033   2.035   1.005 -0.1138  0.5949 -0.5146
  589SOL     OW 2550   0.875   1.794   0.054 -0.0181 -0.2736 -0.0427
  589SOL    HW1 2551   0.780   1.788   0.046 -0.1724  1.4936  0.0725
  589SOL    HW2 2552   0.894   1.888   0.054  1.6833 -0.5656  0.5306
  590SOL     OW 2553   0.834   0.506   0.626 -0.4531  0.1581 -0.3784
  590SOL    HW1 2554   0.747   0.467   0.617 -0.3637  0.1755 -1.4201
  590SOL    HW2 2555   0.847   0.555   0.545  1.2837 -1.3683 -1.0952
  591SOL     OW 2556   2.577   2.221   1.237  0.3323 -0.2835 -0.6260
  591SOL    HW1 2557   2.652   2.276   1.257 -0.9787  1.4177 -0.1495
  591SOL    HW2 2558   2.586   2.146   1.297 -0.0351  1.4976  1.8163
  592SOL     OW 2559   0.670   2.822   0.970 -0.2460  0.2110  0.1758
  592SOL    HW1 2560   0.761   2.811   0.942 -0.6258  0.0101 -1.0685
  592SOL    HW2 2561   0.642   2.901   0.924 -0.8919 -0.1181 -0.0009
  593SOL     OW 2562   2.890   3.335   0.452 -0.4043  0.1687 -0.1148
  593SOL    HW1 2563   2.938   3.279   0.512 -1.6453 -1.6275 -0.7198
  593SOL    HW2 2564   2.912   3.424   0.479  0.2320 -0.5865  2.0024
  594SOL     OW 2565   2.499   0.394   1.815 -0.5475  0.3704 -0.1680
  594SOL    HW1 2566   2.450   0.333   1.870 -0.0655 -0.1559 -0.3094
  594SOL    HW2 2567   2.433   0.447   1.772 -0.9581  0.2459  0.3035
  595SOL     OW 2568   0.905   2.327   2.891  0.4809  0.1600  0.1213
  595SOL    HW1 2569   0.919   2.421   2.886 -0.6139  0.3200 -0.2888
  595SOL    HW2 2570   0.958   2.298   2.966  1.9614  0.8552 -0.6167
  596SOL     OW 2571   1.072   0.524   2.310 -0.0533 -0.7954  0.2198
  596SOL    HW1 2572   1.083   0.495   2.220 -0.7071  1.6373 -0.7096
  596SOL    HW2 2573   1.129   0.600   2.319 -0.0318 -0.9579  1.8578
  597SOL     OW 2574   3.054   2.616   2.719  0.5743  0.1960 -0.5823
  597SOL    HW1 2575   3.145   2.643   2.734  0.8154 -0.3133 -1.0879
  597SOL    HW2 2576   3.033   2.651   2.632  0.5636 -0.3804 -0.8162
  598SOL     OW 2577   2.909   3.186   0.244  0.0101  0.0899 -0.1677
  598SOL    HW1 2578   2.901   3.099   0.284  2.4705  0.1870  0.7481
  598SOL    HW2 2579   2.893   3.247   0.316  0.1638  0.3383 -0.3437
  599SOL     OW 2580   2.752   3.173   1.787 -0.0250 -0.2590 -0.1792
  599SOL    HW1 2581   2.817   3.237   1.757 -1.7293  1.4336 -0.4979
  599SOL    HW2 2582   2.717   3.135   1.707  1.4004 -2.1222  0.0226
  600SOL     OW 2583   0.884   1.093   2.675 -0.6630 -0.0008  0.3500
  600SOL    HW1 2584   0.858   1.184   2.686 -2.0966 -0.1612 -1.2547
  600SOL    HW2 2585   0.920   1.067   2.760  0.1904  2.1637  0.6934
  601SOL     OW 2586   3.038   0.169   2.074 -0.2457 -0.3854  0.0177
  601SOL    HW1 2587   3.018   0.257   2.044 -0.5013 -0.2921  0.4560
  601SOL    HW2 2588   3.123   0.177   2.117  0.5361 -0.6825 -1.3905
  602SOL     OW 2589   0.892   1.229   0.497  0.2520 -0.0804  0.1509
  602SOL    HW1 2590   0.798   1.244   0.491  0.1938 -0.7330 -0.7842
  602SOL    HW2 2591   0.931   1.314   0.480 -0.1688  0.2897  0.9887
  603SOL     OW 2592   3.038   2.838   0.046  0.1501  0.3482 -0.0426
  603SOL    HW1 2593   2.971   2.900   0.021  0.9720  1.1649 -0.2719
  603SOL    HW2 2594   3.109   2.892   0.082  1.1844 -0.3784 -0.9232
  604SOL     OW 2595   2.363   2.699   2.796 -0.0688  0.4473  0.0767
  604SOL    HW1 2596   2.292   2.731   2.852  0.7945  1.6397  0.5349
  604SOL    HW2 2597   2.416   2.644   2.854  0.0400  0.5347  0.0604
  605SOL     OW 2598   3.200   0.340   0.116 -0.0757 -0.0714 -0.6631
  605SOL    HW1 2599   3.145   0.262   0.108 -0.5405  0.0716  0.9033
  605SOL    HW2 2600   3.207   0.356   0.210 -0.2550  1.9668 -0.9433
  606SOL     OW 2601   0.599   0.630   2.988 -0.2448  0.2643  0.2348
  606SOL    HW1 2602   0.602   0.621   2.893 -1.5490  1.8838 -0.0042
  606SOL    HW2 2603   0.578   0.542   3.020 -0.9430 -0.0617 -1.0693
  607SOL     OW 2604   1.433   1.846   2.477 -0.0918 -0.3696 -0.4409
  607SOL    HW1 2605   1.477   1.920   2.519 -1.0389 -0.1870  0.2688
  607SOL    HW2 2606   1.384   1.804   2.548  1.8402 -2.8018 -0.3923
  608SOL     OW 2607   1.665   0.826   0.394 -0.4217  0.1975 -0.1454
  608SOL    HW1 2608   1.701   0.744   0.428 -1.4774 -0.5450 -0.7592
  608SOL    HW2 2609   1.692   0.893   0.458  0.3538 -0.6369  0.4219
  609SOL     OW 2610   0.484   1.607   3.123  0.0819 -0.1151  0.3102
  609SOL    HW1 2611   0.442   1.524   3.146  0.2393  0.2484  2.0460
  609SOL    HW2 2612   0.457   1.623   3.033 -0.8665 -1.4914  0.3168
  610SOL     OW 2613   0.233   1.063   0.256  0.3960  0.0410  0.4941
  610SOL    HW1 2614   0.227   1.001   0.184 -1.6008  0.9722 -0.2196
  610SOL    HW2 2615   0.148   1.057   0.300  0.7178  1.1882  1.3261
  611SOL     OW 2616   1.470   1.853   1.072  0.4526  0.2291  0.1030
  611SOL    HW1 2617   1.446   1.805   0.992  0.0237 -0.6900  0.7714
  611SOL    HW2 2618   1.515   1.931   1.040  1.0300 -0.5345 -1.0175
  612SOL     OW 2619   2.819   0.233   1.748  0.4786 -0.5611 -0.0244
  612SOL    HW1 2620   2.818   0.256   1.841 -1.5331 -1.3508  0.1985
  612SOL    HW2 2621   2.824   0.317   1.703  0.3157 -0.0945  0.8027
  613SOL     OW 2622   1.983   2.865   1.723  0.3559  0.6352  0.3769
  613SOL    HW1 2623   1.923   2.820   1.664  1.8101 -1.0992  0.1144
  613SOL    HW2 2624   1.974   2.818   1.806  1.2883  0.3742  0.3414
  614SOL     OW 2625   0.580   2.147   3.008 -0.0354 -0.0332  0.4458
  614SOL    HW1 2626   0.605   2.116   2.921 -1.0434 -0.2202  0.2015
  614SOL    HW2 2627   0.489   2.119   3.018 -0.3763  1.1925  0.9930
  615SOL     OW 2628   1.824   3.236   1.627 -0.3571  0.3609  0.3422
  615SOL    HW1 2629   1.896   3.174   1.610  0.3971  1.5843 -1.1440
  615SOL    HW2 2630   1.808   3.229   1.721  0.3567 -1.3798  0.3706
  616SOL     OW 2631   2.006   2.494   2.216  0.0548 -0.0049  0.3321
  616SOL    HW1 2632   2.063   2.567   2.191  1.0329 -0.5473  0.9054
  616SOL    HW2 2633   2.025   2.425   2.152 -1.4046  0.4751 -0.6550
  617SOL     OW 2634   2.620   0.955   1.350  1.0233 -0.3696 -0.4670
  617SOL    HW1 2635   2.624   1.044   1.386  0.4987 -0.5580  0.0852
  617SOL    HW2 2636   2.526   0.940   1.337  1.0548 -1.0825  0.0805
  618SOL     OW 2637   0.028   3.148   2.623 -0.2151  0.2617  0.0294
  618SOL    HW1 2638   0.066   3.074   2.575 -0.7790 -0.9816  1.4218
  618SOL    HW2 2639  -0.009   3.204   2.554  0.8399 -0.3804 -1.1041
  619SOL     OW 2640   2.005   1.574   0.021  0.3395  0.1319 -0.4177
  619SOL    HW1 2641   1.969   1.578  -0.068 -0.3654 -1.0996 -0.2078
  619SOL    HW2 2642   1.939   1.526   0.071  0.7529  0.7686  0.7641
  620SOL     OW 2643   0.170   1.853   2.890 -0.4149  0.2926  0.2873
  620SOL    HW1 2644   0.178   1.805   2.808 -0.4102  1.6719 -0.5319
  620SOL    HW2 2645   0.086   1.826   2.926  0.4305 -1.8439  0.8664
  621SOL     OW 2646   2.472   1.482   2.233 -0.1366  0.0274  0.0425
  621SOL    HW1 2647   2.497   1.428   2.308  1.8758  1.3876  0.4298
  621SOL    HW2 2648   2.412   1.547   2.269  1.6375  1.3308  0.7712
  622SOL     OW 2649   0.677   0.911   2.697  0.1933 -0.6262 -0.2324
  622SOL    HW1 2650   0.683   0.857   2.618  0.8762 -1.7086  0.5381
  622SOL    HW2 2651   0.738   0.983   2.681  0.7572 -1.1452 -0.4778
  623SOL     OW 2652   2.868   0.650   3.232  0.0332  0.1428  0.1741
  623SOL    HW1 2653   2.798   0.598   3.193 -0.2919  0.5829  0.1638
  623SOL    HW2 2654   2.850   0.740   3.205  0.0655  0.3945  0.9508
  624SOL     OW 2655   1.255   0.768   1.247 -0.3682 -0.3747 -0.1148
  624SOL    HW1 2656   1.276   0.853   1.208  0.4207 -0.3694  0.3033
  624SOL    HW2 2657   1.160   0.769   1.256 -0.3079  0.8546  0.7482
  625SOL     OW 2658   0.830   0.253   3.073 -0.3340 -0.2450 -0.3621
  625SOL    HW1 2659   0.837   0.331   3.018 -1.3293  0.7680  0.8802
  625SOL    HW2 2660   0.891   0.190   3.034  0.2511  1.0302 -1.5815
  626SOL     OW 2661   0.640   0.052   0.350 -0.0199 -0.0608 -0.2493
  626SOL    HW1 2662   0.667   0.023   0.437  0.2823  0.9904  0.0278
  626SOL    HW2 2663   0.719   0.092   0.313 -0.3346  0.1186 -0.7338
  627SOL     OW 2664   3.094   0.039   2.838  0.0294  0.4671  0.3426
  627SOL    HW1 2665   3.051   0.039   2.924  0.1428  0.1637  0.4033
  627SOL    HW2 2666   3.031   0.080   2.779 -0.0059  0.7751  0.5934
  628SOL     OW 2667   1.685   2.929   1.276  0.3948  0.1038 -0.0644
  628SOL    HW1 2668   1.678   3.013   1.320  0.4214 -0.0975  0.3245
  628SOL    HW2 2669   1.637   2.868   1.332  0.0995 -0.0788 -0.5063
  629SOL     OW 2670   0.940   0.690   1.045  0.3172 -0.0172 -0.4967
  629SOL    HW1 2671   0.946   0.735   1.129 -1.7159 -1.0713  0.2858
  629SOL    HW2 2672   1.004   0.619   1.050  1.0977  0.6899 -0.3615
  630SOL     OW 2673   1.474   0.489   2.248 -0.3611 -0.1455  0.2670
  630SOL    HW1 2674   1.532   0.546   2.197  0.2166 -1.4346 -0.5638
  630SOL    HW2 2675   1.405   0.464   2.187 -1.1654  0.4492  0.9191
  631SOL     OW 2676   1.127   2.422   3.206  0.4392  0.2962 -0.3642
  631SOL    HW1 2677   1.088   2.338   3.181  1.2266  0.2163 -1.3811
  631SOL    HW2 2678   1.134   2.417   3.302 -1.1239 -0.0681 -0.2458
  632SOL     OW 2679   1.846   1.621   1.494  0.0176 -0.1575 -0.2855
  632SOL    HW1 2680   1.920   1.614   1.433 -0.6296 -0.1184 -1.0975
  632SOL    HW2 2681   1.803   1.703   1.471 -0.8286 -0.6332 -0.4780
  633SOL     OW 2682   2.692   0.494   3.069 -0.1831  0.1104 -0.2240
  633SOL    HW1 2683   2.598   0.498   3.090 -0.2003  0.9629 -0.4186
  633SOL    HW2 2684   2.703   0.556   2.997  0.0959 -1.7650 -1.9202
  634SOL     OW 2685   2.590   0.594   2.826  0.4149 -0.3846  0.4497
  634SOL    HW1 2686   2.580   0.681   2.788  0.1035  0.2385  1.8855
  634SOL    HW2 2687   2.671   0.559   2.788 -0.8335 -0.5978 -2.2027
  635SOL     OW 2688   2.609   1.867   1.139 -0.2252  0.0107  0.4814
  635SOL    HW1 2689   2.552   1.886   1.213  0.5447  2.0248  0.6238
  635SOL    HW2 2690   2.671   1.802   1.172  0.4459  1.2741  1.8136
  636SOL     OW 2691   2.630   0.321   1.425 -0.0055  0.2650 -0.4514
  636SOL    HW1 2692   2.643   0.239   1.472  1.0854 -0.1413 -1.4127
  636SOL    HW2 2693   2.663   0.388   1.484  1.6654 -0.2659 -0.7069
  637SOL     OW 2694   1.368   2.475   1.165  0.3592 -0.0706  0.3050
  637SOL    HW1 2695   1.393   2.383   1.156  1.1020  0.1382  0.2244
  637SOL    HW2 2696   1.427   2.522   1.107 -1.5584  0.2356 -1.5454
  638SOL     OW 2697   2.288   0.305   0.318  0.0124  0.1758 -0.3972
  638SOL    HW1 2698   2.196   0.276   0.320 -0.1443  0.6355 -0.6875
  638SOL    HW2 2699   2.308   0.326   0.409 -0.7702  1.8714 -0.5808
  639SOL     OW 2700   0.096   2.758   0.893 -0.2072 -0.0018  0.2003
  639SOL    HW1 2701   0.043   2.818   0.945  0.1777  0.3169  0.2292
  639SOL    HW2 2702   0.186   2.789   0.904 -0.0996 -0.0314 -0.5201
  640SOL     OW 2703   3.192   2.761   1.106  0.2034 -0.3109 -0.2705
  640SOL    HW1 2704   3.155   2.719   1.029  0.2006  0.9592 -0.9898
  640SOL    HW2 2705   3.117   2.788   1.159  0.2059 -1.2028  0.2039
  641SOL     OW 2706   2.115   2.327   1.056  0.1550 -0.3746 -0.0527
  641SOL    HW1 2707   2.062   2.387   1.109 -1.2816 -1.1056 -0.6083
  641SOL    HW2 2708   2.178   2.291   1.118 -1.4300 -1.1544  1.1923
  642SOL     OW 2709   0.561   0.013   0.098  0.2085 -0.5035 -0.5607
  642SOL    HW1 2710   0.552   0.102   0.063  3.5217  0.3947  0.5257
  642SOL    HW2 2711   0.581   0.025   0.190  1.6218 -2.3052 -0.5743
  643SOL     OW 2712   1.064   2.186   3.085  0.3097 -0.0013 -0.5163
  643SOL    HW1 2713   1.120   2.113   3.110  0.9960  0.5907 -0.2890
  643SOL    HW2 2714   0.975   2.153   3.096  0.5779 -0.1856  1.5176
  644SOL     OW 2715   0.016   0.175   2.467  0.1895 -0.3004  0.4966
  644SOL    HW1 2716  -0.037   0.254   2.457  2.0210  1.0506  0.8480
  644SOL    HW2 2717   0.104   0.208   2.485  0.9564 -2.4488  0.9399
  645SOL     OW 2718   0.650   1.852   2.392  0.3909  0.0376 -0.1488
  645SOL    HW1 2719   0.664   1.870   2.299  1.4453  1.1036  0.1895
  645SOL    HW2 2720   0.707   1.914   2.438 -0.3807 -0.2127  1.2244
  646SOL     OW 2721   2.832   0.636   2.229  0.6244 -0.0152  0.0717
  646SOL    HW1 2722   2.823   0.713   2.173 -1.6651  0.1803  0.5973
  646SOL    HW2 2723   2.793   0.565   2.178  2.8701 -0.9269 -0.4774
  647SOL     OW 2724   1.137   2.253   0.409 -0.0660  0.6349  0.1317
  647SOL    HW1 2725   1.110   2.239   0.499 -1.1309 -0.0635 -0.2692
  647SOL    HW2 2726   1.088   2.187   0.359  0.0260  1.4100 -1.0175
  648SOL     OW 2727   2.430   3.100   1.426  0.4272 -0.1911  0.0075
  648SOL    HW1 2728   2.436   3.113   1.332  0.2786  2.4824  0.2771
  648SOL    HW2 2729   2.348   3.052   1.439  0.0690  0.0713 -1.1905
  649SOL     OW 2730   0.304   0.369   2.421 -0.7282 -0.0808 -0.0042
  649SOL    HW1 2731   0.389   0.413   2.424 -0.3326 -0.8531  0.1474
  649SOL    HW2 2732   0.242   0.435   2.452 -0.2588  0.6590 -0.6118
  650SOL     OW 2733   1.461   0.280   1.053  0.0272  0.5717  0.0105
  650SOL    HW1 2734   1.506   0.364   1.046  0.9990  0.2194  1.6739
  650SOL    HW2 2735   1.391   0.295   1.115  0.0597  0.2074  0.1366
  651SOL     OW 2736   0.323   2.654   3.052 -0.1101 -0.1992  0.1429
  651SOL    HW1 2737   0.384   2.592   3.093  0.6761  0.1687 -0.4453
  651SOL    HW2 2738   0.285   2.702   3.126  0.3065 -0.4348  0.5186
  652SOL     OW 2739   1.264   1.186   1.284  0.2799  0.2715  0.0671
  652SOL    HW1 2740   1.281   1.247   1.355 -1.6002  1.2720 -0.2833
  652SOL    HW2 2741   1.223   1.240   1.216  0.2424 -1.0387 -0.9777
  653SOL     OW 2742   1.598   2.774   2.553  0.2007  0.0454 -0.1451
  653SOL    HW1 2743   1.583   2.685   2.583 -1.3707  0.2535 -0.2655
  653SOL    HW2 2744   1.687   2.772   2.518  0.8221 -1.0399  1.3802
  654SOL     OW 2745   1.445   1.066   2.160  0.0041  0.0289  0.0723
  654SOL    HW1 2746   1.444   1.040   2.252 -1.7604 -1.2247 -0.2509
  654SOL    HW2 2747   1.455   0.984   2.112  2.1492  0.7708 -0.8810
  655SOL     OW 2748   1.686   0.838   1.786  0.1609  0.4799 -0.2258
  655SOL    HW1 2749   1.779   0.818   1.771 -0.3409 -0.8046 -1.8947
  655SOL    HW2 2750   1.654   0.865   1.700 -1.0123  0.9664  0.3545
  656SOL     OW 2751   0.723   1.628   2.513  0.0767  0.3098 -0.6312
  656SOL    HW1 2752   0.686   1.693   2.454  1.0126  1.2891 -0.1805
  656SOL    HW2 2753   0.727   1.672   2.598 -0.3013 -0.7279 -0.0594
  657SOL     OW 2754   0.857   2.556   1.813  0.4999 -0.2139  0.1291
  657SOL    HW1 2755   0.858   2.642   1.853 -0.6564  0.0657 -0.3839
  657SOL    HW2 2756   0.807   2.568   1.732  1.4961 -1.0753 -0.6465
  658SOL     OW 2757   0.341   3.230   3.156 -0.2662 -0.5912 -0.3795
  658SOL    HW1 2758   0.266   3.204   3.102  0.2928  0.7372 -1.8653
  658SOL    HW2 2759   0.312   3.308   3.202  0.0812 -0.2866 -0.6751
  659SOL     OW 2760   2.318   0.654   2.245  0.2602 -0.0198  0.5023
  659SOL    HW1 2761   2.344   0.640   2.337 -2.1066  1.1288  1.4316
  659SOL    HW2 2762   2.277   0.741   2.245 -0.2957 -0.2418 -1.5434
  660SOL     OW 2763   1.819   2.920   2.688 -0.0574  0.1298 -0.0731
  660SOL    HW1 2764   1.840   2.869   2.609  0.5773  1.3209 -0.7092
  660SOL    HW2 2765   1.725   2.911   2.699  0.0815 -1.4813  0.0684
  661SOL     OW 2766   1.943   2.834   1.232 -0.1563 -0.0335 -0.2186
  661SOL    HW1 2767   1.995   2.910   1.207 -0.9667  0.6267  0.0928
  661SOL    HW2 2768   1.856   2.868   1.251 -0.0241 -0.7239  1.9335
  662SOL     OW 2769   2.851   0.691   0.351 -0.2354 -0.7466  0.3834
  662SOL    HW1 2770   2.933   0.659   0.314 -0.7760 -1.6519 -0.0470
  662SOL    HW2 2771   2.783   0.641   0.307 -1.0628  0.3999  0.3157
  663SOL     OW 2772   2.075   1.552   0.920 -0.1948 -0.1207  0.0099
  663SOL    HW1 2773   2.074   1.461   0.892 -0.3504 -0.4620  1.0777
  663SOL    HW2 2774   2.153   1.560   0.975 -0.6431  0.1469  0.6350
  664SOL     OW 2775   0.031   3.093   1.269 -0.2920 -0.1571  0.0952
  664SOL    HW1 2776   0.065   3.006   1.287 -0.1256  0.3715  2.5669
  664SOL    HW2 2777  -0.010   3.121   1.350  0.0919  2.2748 -0.4651
  665SOL     OW 2778   1.496   2.785   1.412  0.4432  0.1054 -0.2098
  665SOL    HW1 2779   1.451   2.730   1.476  0.2990  0.0825 -0.3309
  665SOL    HW2 2780   1.458   2.761   1.328  0.7905 -0.0231 -0.3327
  666SOL     OW 2781   1.506   0.078   3.058  0.3172  0.0843  0.1856
  666SOL    HW1 2782   1.425   0.093   3.009  0.1611 -0.6908  0.2044
  666SOL    HW2 2783   1.527  -0.014   3.044  0.8534  0.1184  0.7041
  667SOL     OW 2784   0.997   3.114   1.920 -0.4153  0.4082  0.0954
  667SOL    HW1 2785   0.976   3.194   1.968  0.8529  1.9806 -1.8149
  667SOL    HW2 2786   0.943   3.118   1.841 -2.2514 -1.9917  1.0722
  668SOL     OW 2787   2.602   0.840   2.635 -0.1896  0.2627  0.3233
  668SOL    HW1 2788   2.658   0.910   2.601 -1.2240  1.2020  0.4876
  668SOL    HW2 2789   2.639   0.760   2.599 -0.2619  1.0716 -1.7024
  669SOL     OW 2790   0.181   2.970   2.492  0.6701 -0.1256 -0.0126
  669SOL    HW1 2791   0.228   3.037   2.442  0.7611  0.9170  1.4187
  669SOL    HW2 2792   0.250   2.927   2.544  0.4358 -0.5364 -0.0375
  670SOL     OW 2793   1.140   2.397   1.746  0.2726  0.2917 -0.6604
  670SOL    HW1 2794   1.054   2.361   1.771  0.6270 -0.8369 -0.9959
  670SOL    HW2 2795   1.149   2.475   1.799 -0.0955 -0.6590  0.8733
  671SOL     OW 2796   1.513   3.155   2.958 -0.4484 -0.4097  0.0701
  671SOL    HW1 2797   1.494   3.114   3.042  0.1343 -0.2288  0.3007
  671SOL    HW2 2798   1.593   3.111   2.928  0.7916  1.2453  0.8230
  672SOL     OW 2799   0.510   2.548   0.719  0.2428 -0.6736  0.1404
  672SOL    HW1 2800   0.591   2.534   0.768 -1.1131 -1.7297  2.2180
  672SOL    HW2 2801   0.441   2.511   0.775 -1.6366 -0.2319 -1.7536
  673SOL     OW 2802   2.175   0.347   1.673 -0.1178 -0.2986  0.0182
  673SOL    HW1 2803   2.180   0.297   1.755  0.8029 -0.8037 -0.3306
  673SOL    HW2 2804   2.208   0.287   1.606  1.6081  0.9463 -0.3229
  674SOL     OW 2805   1.281   1.402   1.483  0.0296  0.3942  0.2401
  674SOL    HW1 2806   1.350   1.461   1.453  0.8842  0.3991  2.1123
  674SOL    HW2 2807   1.224   1.455   1.538 -0.5058 -0.0078  0.0890
  675SOL     OW 2808   2.825   0.884   3.050  0.0843  0.3262  0.3937
  675SOL    HW1 2809   2.784   0.936   2.981 -0.5677  0.4689  0.8809
  675SOL    HW2 2810   2.897   0.839   3.006 -1.3233 -0.8840 -0.7954
  676SOL     OW 2811   1.066   3.042   1.519 -0.7212 -0.0837  0.0001
  676SOL    HW1 2812   1.024   3.032   1.433 -0.4378  1.1781 -0.3080
  676SOL    HW2 2813   1.153   3.075   1.499 -0.7459  0.4844  0.7898
  677SOL     OW 2814   1.995   2.006   0.538 -0.6241 -0.3913  0.0012
  677SOL    HW1 2815   2.017   1.992   0.446  0.7840  1.4941 -0.0157
  677SOL    HW2 2816   2.042   1.937   0.585 -0.3654 -0.6334 -0.6010
  678SOL     OW 2817   0.902   2.295   1.821  0.4495 -0.1432 -0.3249
  678SOL    HW1 2818   0.894   2.388   1.845  0.0114 -0.6016  1.5030
  678SOL    HW2 2819   0.825   2.278   1.767  0.8114  0.6784 -1.1159
  679SOL     OW 2820   2.418   1.381   1.949 -0.0967  0.1282 -0.5185
  679SOL    HW1 2821   2.445   1.387   2.040 -0.8422  0.2470 -0.3014
  679SOL    HW2 2822   2.333   1.337   1.952 -0.2627  0.4009 -1.1305
  680SOL     OW 2823   3.307   2.622   3.178 -0.7968 -0.0883  0.4054
  680SOL    HW1 2824   3.231   2.667   3.142 -0.9859 -0.3165  0.5194
  680SOL    HW2 2825   3.375   2.690   3.181 -0.5426 -0.2473 -1.0874
  681SOL     OW 2826   2.394   0.611   0.836  0.0798 -0.1728 -0.3220
  681SOL    HW1 2827   2.466   0.618   0.899 -1.1923  0.4043  1.1065
  681SOL    HW2 2828   2.398   0.692   0.785 -2.1380  2.0455  2.6638
  682SOL     OW 2829   2.832   0.567   2.695  0.0963 -0.1320  0.0475
  682SOL    HW1 2830   2.824   0.594   2.603 -1.0656 -0.3317  0.0724
  682SOL    HW2 2831   2.912   0.515   2.698  0.3735  0.2381 -0.7701
  683SOL     OW 2832   1.603   2.925   1.774 -0.4028 -0.6863 -0.0114
  683SOL    HW1 2833   1.659   2.848   1.787 -2.1634 -1.8114  1.1728
  683SOL    HW2 2834   1.537   2.919   1.843 -0.2470  2.2412  0.4805
  684SOL     OW 2835   1.812   2.315   1.980  0.1681  0.1721 -0.3415
  684SOL    HW1 2836   1.760   2.359   1.913 -0.8257 -0.7638 -0.2254
  684SOL    HW2 2837   1.756   2.316   2.058  1.7992  2.3823  0.9182
  685SOL     OW 2838   0.743   1.307   2.944  0.2879  0.1037 -0.3156
  685SOL    HW1 2839   0.830   1.271   2.960  0.0802 -0.7848 -1.1244
  685SOL    HW2 2840   0.683   1.240   2.975 -0.1058  0.1199 -1.0178
  686SOL     OW 2841   1.502   3.194   2.261 -0.3531 -0.3694  0.4101
  686SOL    HW1 2842   1.538   3.107   2.276 -1.7732 -1.1311 -0.4082
  686SOL    HW2 2843   1.525   3.244   2.340  3.3951 -0.4177 -0.4526
  687SOL     OW 2844   1.649   1.060   0.562 -0.2096  0.3208 -0.1321
  687SOL    HW1 2845   1.568   1.037   0.518  0.3816 -1.7625 -0.2732
  687SOL    HW2 2846   1.635   1.034   0.654 -0.3426  1.6936  0.2469
  688SOL     OW 2847   1.786   0.894   2.334  0.0635  0.3735 -0.5524
  688SOL    HW1 2848   1.878   0.909   2.313  0.2268 -0.3192 -0.3439
  688SOL    HW2 2849   1.763   0.966   2.393  0.6875  0.1257  0.0062
  689SOL     OW 2850   1.866   1.235   0.483 -0.1717  0.0688 -0.0446
  689SOL    HW1 2851   1.819   1.305   0.528 -0.8951  0.0030 -0.6758
  689SOL    HW2 2852   1.811   1.157   0.496  0.1317 -0.1669 -0.1649
  690SOL     OW 2853   1.129   0.958   2.084 -0.1173  0.1260  0.1125
  690SOL    HW1 2854   1.219   0.926   2.085 -0.3311 -0.4892 -0.1543
  690SOL    HW2 2855   1.124   1.013   2.006 -0.0796 -0.1506 -0.0853
  691SOL     OW 2856   0.838   0.581   3.337  0.4677 -0.2561  0.2204
  691SOL    HW1 2857   0.932   0.566   3.343  0.3047 -0.7821  1.8150
  691SOL    HW2 2858   0.798   0.505   3.379 -0.6469  0.3373  0.2768
  692SOL     OW 2859   0.691   3.024   1.880 -0.1258 -0.5525  0.1066
  692SOL    HW1 2860   0.727   3.074   1.806 -0.4042 -1.4691 -0.6696
  692SOL    HW2 2861   0.663   3.091   1.942 -1.1318  0.3166 -1.2090
  693SOL     OW 2862   2.915   2.705   2.485 -0.1929  0.0981 -0.5117
  693SOL    HW1 2863   2.820   2.706   2.478 -0.3558 -3.3143 -0.3744
  693SOL    HW2 2864   2.945   2.680   2.398  0.2933 -2.3122  0.2838
  694SOL     OW 2865   0.637   0.020   0.633 -0.5568 -0.4127  0.0689
  694SOL    HW1 2866   0.639   0.041   0.726  0.0211 -1.2770  0.2607
  694SOL    HW2 2867   0.573  -0.050   0.626  0.0574 -0.9728 -0.0416
  695SOL     OW 2868   2.989   2.956   2.569  0.9702 -0.7608 -0.2114
  695SOL    HW1 2869   2.957   2.876   2.527  0.3004 -0.9816  0.6995
  695SOL    HW2 2870   3.052   2.992   2.506  0.2273 -1.2437 -1.2680
  696SOL     OW 2871   2.314   3.240   1.973 -0.4959 -0.1478 -0.1887
  696SOL    HW1 2872   2.362   3.313   1.934 -1.5981  1.4106  1.2116
  696SOL    HW2 2873   2.253   3.212   1.905 -0.8273  0.9893 -0.3737
  697SOL     OW 2874   1.939   2.167   0.264 -0.1797  0.1364 -0.8278
  697SOL    HW1 2875   1.978   2.080   0.252 -0.1611  0.2896 -1.9425
  697SOL    HW2 2876   1.913   2.194   0.176 -1.8942  0.4666 -0.2540
  698SOL     OW 2877   3.235   0.416   2.490 -0.0866 -0.2678 -0.3363
  698SOL    HW1 2878   3.323   0.442   2.519 -0.0735 -0.1515 -0.4742
  698SOL    HW2 2879   3.183   0.412   2.570 -0.1694  0.5123 -0.3429
  699SOL     OW 2880   0.201   3.225   1.071 -0.1619  0.2505 -0.0134
  699SOL    HW1 2881   0.181   3.212   1.164  0.5272  2.3586  0.5015
  699SOL    HW2 2882   0.122   3.266   1.035 -0.3077 -0.2647 -0.2826
  700SOL     OW 2883   0.885   0.192   0.352  0.5107 -0.1784  0.2533
  700SOL    HW1 2884   0.905   0.148   0.435 -0.7855 -0.0939  0.6359
  700SOL    HW2 2885   0.970   0.200   0.308  0.9862 -1.6976  0.8370
  701SOL     OW 2886   0.151   2.657   2.688 -0.6277  0.2653 -0.6057
  701SOL    HW1 2887   0.115   2.742   2.714 -0.1534  0.4996 -0.7135
  701SOL    HW2 2888   0.102   2.594   2.740 -1.2367  0.5785 -0.7924
  702SOL     OW 2889   1.632   1.871   0.784 -0.3936  0.1064 -0.4546
  702SOL    HW1 2890   1.711   1.817   0.792 -0.1851  0.6008  1.1344
  702SOL    HW2 2891   1.560   1.807   0.780 -0.0885 -0.3419  0.6452
  703SOL     OW 2892   1.023   3.040   0.862 -0.2221  0.2221  0.0089
  703SOL    HW1 2893   0.963   3.029   0.788 -0.2293 -0.9739  0.1813
  703SOL    HW2 2894   1.038   2.952   0.895 -1.0218  0.7928  2.0772
  704SOL     OW 2895   1.991   0.562   1.670 -0.3733  0.2568  0.2147
  704SOL    HW1 2896   1.944   0.502   1.727  1.7768 -1.3434  0.4296
  704SOL    HW2 2897   2.060   0.509   1.630  1.3738  2.4664  0.0664
  705SOL     OW 2898   2.476   0.557   1.327 -0.4878 -0.6977 -0.1952
  705SOL    HW1 2899   2.397   0.538   1.379 -0.3631 -0.8226 -0.0479
  705SOL    HW2 2900   2.490   0.478   1.275 -0.2442 -0.8255  0.0604
  706SOL     OW 2901   1.055   0.359   0.583  0.1017  0.3952  0.0432
  706SOL    HW1 2902   1.049   0.271   0.620 -0.8070 -0.3145 -1.6736
  706SOL    HW2 2903   0.970   0.399   0.602 -0.8735 -0.4347 -2.2503
  707SOL     OW 2904   2.164   0.218   2.180 -0.2095 -0.5431  0.3114
  707SOL    HW1 2905   2.202   0.131   2.192 -0.3177 -0.4609  1.2784
  707SOL    HW2 2906   2.132   0.243   2.267 -0.6138  0.2596 -0.0586
  708SOL     OW 2907   1.689   0.177   1.182  0.0249  0.1217  0.5112
  708SOL    HW1 2908   1.618   0.198   1.122  0.1232  0.7063  0.5880
  708SOL    HW2 2909   1.647   0.159   1.266 -0.1733 -1.4465  0.1035
  709SOL     OW 2910   1.487   2.202   1.136  0.4586 -0.3115  0.2100
  709SOL    HW1 2911   1.502   2.156   1.054 -0.2021  0.4533 -0.3529
  709SOL    HW2 2912   1.397   2.179   1.160  0.3604  0.1385  0.2767
  710SOL     OW 2913   1.054   2.837   1.725 -0.4496  0.9151  0.0518
  710SOL    HW1 2914   0.966   2.829   1.689 -0.4160  1.1418 -0.0814
  710SOL    HW2 2915   1.098   2.900   1.668 -0.0916  0.5417 -0.0906
  711SOL     OW 2916   1.678   1.503   1.653  0.4072 -0.4152  0.6746
  711SOL    HW1 2917   1.747   1.540   1.599 -0.3045  1.7651  1.1708
  711SOL    HW2 2918   1.637   1.436   1.598  0.1313  1.2741 -1.2758
  712SOL     OW 2919   3.189   0.048   3.292 -0.4779  0.0804  0.5776
  712SOL    HW1 2920   3.232   0.077   3.212 -0.4591 -0.9491  0.1960
  712SOL    HW2 2921   3.259   0.012   3.346 -0.3082  1.7897  1.5700
  713SOL     OW 2922   2.195   1.421   2.471 -0.0061 -0.3774  0.7169
  713SOL    HW1 2923   2.221   1.498   2.420 -3.0189  0.7044  0.6132
  713SOL    HW2 2924   2.204   1.348   2.410  1.3045  0.1052  0.2897
  714SOL     OW 2925   1.416   2.464   1.914 -0.6639 -0.2274  0.6471
  714SOL    HW1 2926   1.439   2.483   2.005 -0.4479  0.4201  0.4660
  714SOL    HW2 2927   1.358   2.536   1.889 -0.0034  0.0930 -0.0013
  715SOL     OW 2928   2.749   0.113   2.112  0.1419  0.0213  0.3875
  715SOL    HW1 2929   2.842   0.127   2.094  0.0428 -0.0848 -0.2083
  715SOL    HW2 2930   2.728   0.178   2.180  1.3416 -1.8589  2.7040
  716SOL     OW 2931   0.029   0.153   3.075 -0.2342 -0.0382 -0.0261
  716SOL    HW1 2932   0.047   0.129   2.984  1.2680  0.1930  0.1965
  716SOL    HW2 2933   0.000   0.244   3.070  0.9243  0.3322 -0.1744
  717SOL     OW 2934   0.779   2.534   0.022 -0.2742 -0.0930  0.2167
  717SOL    HW1 2935   0.823   2.530   0.107  0.6947 -0.3705 -0.2942
  717SOL    HW2 2936   0.739   2.447   0.011 -1.2771  0.2671  0.8324
  718SOL     OW 2937   2.941   0.424   1.958  0.7154 -0.2380  0.0670
  718SOL    HW1 2938   2.986   0.492   1.907  0.2458  0.6394  0.7847
  718SOL    HW2 2939   2.854   0.461   1.976  0.4930 -0.9802  0.5617
  719SOL     OW 2940   0.783   1.358   2.658  0.2188 -0.4028 -0.0687
  719SOL    HW1 2941   0.732   1.375   2.737 -0.7519 -0.8024 -0.5894
  719SOL    HW2 2942   0.765   1.433   2.601  2.0383  0.6193  0.5941
  720SOL     OW 2943   2.965   3.227   3.326  0.2447  0.5438  0.8350
  720SOL    HW1 2944   3.053   3.259   3.306  0.2141 -0.0996 -0.4201
  720SOL    HW2 2945   2.966   3.212   3.421  1.2078  1.3418  0.9743
  721SOL     OW 2946   2.566   1.463   1.275  0.0989  0.0692  0.1735
  721SOL    HW1 2947   2.577   1.539   1.332 -0.2058  1.1025 -1.0959
  721SOL    HW2 2948   2.482   1.477   1.231  0.5714 -0.4024 -0.9368
  722SOL     OW 2949   0.881   2.084   0.053 -0.3382 -0.2036  0.3672
  722SOL    HW1 2950   0.914   2.066   0.141 -0.6513 -3.8911 -0.1452
  722SOL    HW2 2951   0.828   2.164   0.064  2.6184  1.6765  2.6481
  723SOL     OW 2952   0.930   0.032   2.959 -0.1698 -0.0674 -0.3152
  723SOL    HW1 2953   0.923   0.070   2.871  1.9771  0.6718 -0.2233
  723SOL    HW2 2954   0.843  -0.004   2.976 -1.0573  1.0323 -2.1549
  724SOL     OW 2955   0.616   2.398   1.125  0.0926 -0.2549  0.2113
  724SOL    HW1 2956   0.624   2.438   1.212 -0.1561  1.4215 -0.4936
  724SOL    HW2 2957   0.605   2.305   1.142 -1.1636  0.1712  2.0507
  725SOL     OW 2958   1.271   1.092   2.483  0.0236  0.1422 -0.0359
  725SOL    HW1 2959   1.289   1.185   2.471  0.0661  0.2328  0.7160
  725SOL    HW2 2960   1.193   1.075   2.429 -0.0517  0.6407 -0.0818
  726SOL     OW 2961   3.200   0.045   0.273 -0.3341  0.3728 -0.0708
  726SOL    HW1 2962   3.214   0.127   0.320 -0.5706  0.7926 -0.7185
  726SOL    HW2 2963   3.112   0.053   0.236 -0.5727 -0.3974  0.2957
  727SOL     OW 2964   0.698   3.050   3.171 -0.0976  0.3386  0.1270
  727SOL    HW1 2965   0.664   3.071   3.258 -1.6067  0.6627 -0.5153
  727SOL    HW2 2966   0.760   2.979   3.187  1.5160  1.9997  1.7399
  728SOL     OW 2967   2.516   2.425   1.568 -0.2182  0.1995 -0.3934
  728SOL    HW1 2968   2.451   2.443   1.500 -1.4769  0.7377  0.8941
  728SOL    HW2 2969   2.597   2.464   1.535 -1.1769  1.8631 -0.8962
  729SOL     OW 2970   2.265   2.034   0.082  0.0639 -0.1274 -0.0809
  729SOL    HW1 2971   2.342   2.082   0.113 -1.0094 -0.6502  3.9818
  729SOL    HW2 2972   2.296   1.943   0.073  0.5476  0.1420 -1.4516
  730SOL     OW 2973   2.284   2.304   2.995 -0.0098  0.1111  0.3183
  730SOL    HW1 2974   2.295   2.379   3.053  2.7633 -0.3764  0.5736
  730SOL    HW2 2975   2.251   2.235   3.052 -0.5734  0.5512  0.5355
  731SOL     OW 2976   2.569   2.567   2.953  0.9906  0.1357 -0.2681
  731SOL    HW1 2977   2.588   2.494   3.013  0.2564  0.3838  0.2717
  731SOL    HW2 2978   2.631   2.554   2.881  0.9376 -0.9712 -0.1397
  732SOL     OW 2979   0.577   0.421   2.457  0.0576  0.9453 -0.2061
  732SOL    HW1 2980   0.669   0.431   2.431  0.3389  0.4768  0.5786
  732SOL    HW2 2981   0.578   0.351   2.523 -1.0931 -0.3203 -1.4548
  733SOL     OW 2982   1.925   1.519   2.409  0.7920 -0.1763  0.0919
  733SOL    HW1 2983   1.846   1.465   2.417  0.9349 -0.5569 -0.8758
  733SOL    HW2 2984   1.993   1.468   2.453  0.7412 -0.3977 -0.0799
  734SOL     OW 2985   3.150   2.769   3.025  0.3209 -0.5782 -0.5931
  734SOL    HW1 2986   3.080   2.711   2.994 -1.0314  0.8326 -0.3524
  734SOL    HW2 2987   3.104   2.850   3.049  1.5536 -0.7787  3.0346
  735SOL     OW 2988   1.380   0.124   0.584 -0.1276 -0.1807 -0.1201
  735SOL    HW1 2989   1.294   0.091   0.557 -0.1514 -0.8908  0.7540
  735SOL    HW2 2990   1.368   0.153   0.674  0.4901 -0.0493 -0.0721
  736SOL     OW 2991   1.055   2.267   0.681 -0.6873  0.1766  0.0464
  736SOL    HW1 2992   1.147   2.244   0.689 -0.5130  0.4136 -1.0908
  736SOL    HW2 2993   1.029   2.295   0.769  0.6650  1.3205  0.1145
  737SOL     OW 2994   2.588   0.977   0.490  0.0808  0.3016  0.2435
  737SOL    HW1 2995   2.624   0.961   0.402 -0.5201  0.9980 -0.1362
  737SOL    HW2 2996   2.570   0.889   0.524  0.9825 -0.0068 -0.0447
  738SOL     OW 2997   1.329   1.289   2.755 -0.6488  0.2993 -0.4743
  738SOL    HW1 2998   1.381   1.367   2.735 -0.1947  0.0129 -0.4089
  738SOL    HW2 2999   1.243   1.308   2.718 -0.0310  0.0853 -2.0856
  739SOL     OW 3000   0.385   2.802   1.013  0.2895 -0.3085  0.5887
  739SOL    HW1 3001   0.475   2.796   0.980  0.6499  0.5312  1.3805
  739SOL    HW2 3002   0.346   2.873   0.962  0.6772  0.6140  1.5318
  740SOL     OW 3003   2.770   0.393   0.636 -0.5044  0.2498 -0.3503
  740SOL    HW1 3004   2.710   0.325   0.668  1.3672 -1.2635  0.1300
  740SOL    HW2 3005   2.771   0.459   0.705 -1.1506  0.0061 -0.1005
  741SOL     OW 3006   0.574   3.030   1.257  0.4593  0.5947 -0.2103
  741SOL    HW1 3007   0.485   2.994   1.258  1.0848 -1.0465  0.7837
  741SOL    HW2 3008   0.607   3.013   1.345  1.6837  1.3879 -0.5037
  742SOL     OW 3009   0.530   0.354   0.420  0.0245 -0.0628  0.2952
  742SOL    HW1 3010   0.444   0.329   0.385  0.8328 -0.7908 -1.2462
  742SOL    HW2 3011   0.552   0.435   0.375  0.3276 -0.0907  0.3880
  743SOL     OW 3012   0.959   2.600   2.908  0.3814  0.7010  0.0009
  743SOL    HW1 3013   0.997   2.640   2.986 -2.2814  0.5135  1.5196
  743SOL    HW2 3014   0.865   2.614   2.917 -0.2582 -1.7103 -1.8094
  744SOL     OW 3015   1.476   1.583   1.377  0.3822 -0.1699 -0.0573
  744SOL    HW1 3016   1.463   1.612   1.467  0.1396 -0.5241  0.0253
  744SOL    HW2 3017   1.425   1.643   1.324  1.4153  0.7320 -0.0666
  745SOL     OW 3018   2.299   1.535   1.695 -0.2892 -0.6014  0.2114
  745SOL    HW1 3019   2.217   1.490   1.714 -1.2599  0.2830 -1.5577
  745SOL    HW2 3020   2.357   1.513   1.768 -2.2353 -0.8990  1.7482
  746SOL     OW 3021   2.226   2.998   2.610 -0.5551  0.1793 -0.1555
  746SOL    HW1 3022   2.322   2.996   2.613 -0.5831 -1.1510  0.8553
  746SOL    HW2 3023   2.199   2.964   2.696 -1.9274 -0.4286 -0.8026
  747SOL     OW 3024   0.327   0.260   2.718 -0.1553  0.1606  0.0493
  747SOL    HW1 3025   0.312   0.166   2.731  1.9547 -0.2834 -0.3130
  747SOL    HW2 3026   0.410   0.264   2.670  0.4091  2.2550  1.0987
  748SOL     OW 3027   2.039   1.170   2.416  0.3497 -0.4875 -0.4736
  748SOL    HW1 3028   2.035   1.209   2.329 -1.4277  0.2242 -0.1233
  748SOL    HW2 3029   2.124   1.199   2.451  0.6429  0.0557 -1.5786
  749SOL     OW 3030   3.236   3.147   2.867 -0.3997 -0.0468  0.1038
  749SOL    HW1 3031   3.263   3.152   2.775 -0.2143 -0.2312  0.1476
  749SOL    HW2 3032   3.218   3.238   2.892  0.7480  0.1584  0.2426
  750SOL     OW 3033   1.388   2.722   2.333 -0.0961  0.1653 -0.7214
  750SOL    HW1 3034   1.458   2.787   2.334 -0.5623  0.6724  0.3660
  750SOL    HW2 3035   1.384   2.689   2.423 -0.1261 -1.0916 -1.1646
  751SOL     OW 3036   0.072   3.301   0.118 -0.2101  0.3537  0.0460
  751SOL    HW1 3037   0.002   3.323   0.180  0.1989  1.5063  0.1148
  751SOL    HW2 3038   0.133   3.247   0.169 -0.2421  0.6831  0.4375
  752SOL     OW 3039   1.024   0.928   0.644 -0.0630 -0.1496 -0.4722
  752SOL    HW1 3040   0.958   0.900   0.708  0.0627 -1.9483 -1.0849
  752SOL    HW2 3041   1.066   0.847   0.615  1.4191  0.8270 -1.1987
  753SOL     OW 3042   3.009   3.231   0.658 -0.5535 -0.3605  0.1968
  753SOL    HW1 3043   2.954   3.161   0.695 -1.7628  1.1671  1.4628
  753SOL    HW2 3044   3.064   3.259   0.732 -0.6670  0.5547 -0.0586
  754SOL     OW 3045   0.707   1.902   2.135  0.5528  0.0362 -0.2657
  754SOL    HW1 3046   0.622   1.938   2.110  0.8344 -0.1565 -1.5734
  754SOL    HW2 3047   0.771   1.968   2.106  0.9499 -0.6289 -0.9479
  755SOL     OW 3048   1.874   2.243   1.330 -0.2170 -0.2062  0.0543
  755SOL    HW1 3049   1.811   2.236   1.402 -0.5947  0.1167 -0.2441
  755SOL    HW2 3050   1.845   2.319   1.279  0.5514  0.0901  0.0470
  756SOL     OW 3051   0.297   2.067   1.939 -0.6614  0.6051 -0.2619
  756SOL    HW1 3052   0.287   2.002   1.870 -0.6909 -0.3335  0.6077
  756SOL    HW2 3053   0.367   2.032   1.995 -0.6757  1.3214  0.2210
  757SOL     OW 3054   2.041   3.208   2.291  0.1518 -0.0954  0.2570
  757SOL    HW1 3055   2.135   3.225   2.294  0.1169 -0.0047  1.6044
  757SOL    HW2 3056   2.031   3.136   2.229  1.1667 -0.4221  0.4535
  758SOL     OW 3057   2.515   2.916   2.915  0.1497 -0.1095  0.2683
  758SOL    HW1 3058   2.460   2.863   2.857  2.6560 -2.2779 -0.3441
  758SOL    HW2 3059   2.469   2.916   2.999 -1.3597 -0.7489 -0.5184
  759SOL     OW 3060   1.552   1.623   2.372 -0.2197  0.1379 -0.4341
  759SOL    HW1 3061   1.481   1.576   2.327  1.2554 -0.3281 -2.4585
  759SOL    HW2 3062   1.514   1.708   2.394 -1.4023 -0.0666 -1.5046
  760SOL     OW 3063   1.728   1.041   0.892  0.1072 -0.3253 -0.2200
  760SOL    HW1 3064   1.778   0.969   0.854  0.0158 -1.4236  1.6134
  760SOL    HW2 3065   1.792   1.091   0.942 -0.3272 -0.9164  0.9706
  761SOL     OW 3066   1.580   1.396   1.200 -0.3158 -0.5809 -0.3349
  761SOL    HW1 3067   1.582   1.314   1.249 -0.1311 -0.9871 -1.0073
  761SOL    HW2 3068   1.559   1.463   1.266 -1.5761 -1.3003  0.0315
  762SOL     OW 3069   1.118   2.016   0.265 -0.2161 -0.4866  0.0476
  762SOL    HW1 3070   1.212   2.023   0.280 -0.3897 -0.2725  1.0705
  762SOL    HW2 3071   1.097   1.924   0.284 -0.5114 -0.1139  1.6657
  763SOL     OW 3072   2.543   2.504   0.652 -0.2970 -0.2199 -0.0278
  763SOL    HW1 3073   2.504   2.438   0.710 -0.2570  0.3266  0.6372
  763SOL    HW2 3074   2.637   2.498   0.669 -0.0099 -1.7399 -1.8469
  764SOL     OW 3075   1.973   1.474   1.691  0.5002 -0.1519  0.3521
  764SOL    HW1 3076   1.933   1.517   1.616  0.7927  1.0139  0.8361
  764SOL    HW2 3077   1.920   1.502   1.766  1.9366  1.1447  0.9512
  765SOL     OW 3078   1.875   2.412   2.445 -0.2134  0.3273  0.5756
  765SOL    HW1 3079   1.904   2.429   2.355 -1.7887  0.0257 -0.0258
  765SOL    HW2 3080   1.955   2.410   2.496  1.2526 -3.4873 -1.4270
  766SOL     OW 3081   0.406   0.707   0.096 -0.0043  0.1723 -0.5319
  766SOL    HW1 3082   0.482   0.697   0.038 -0.1067  0.0865 -0.6520
  766SOL    HW2 3083   0.368   0.791   0.071  0.3394  0.4522 -0.1304
  767SOL     OW 3084   1.816   1.472   0.303  0.0770 -0.1178  0.3593
  767SOL    HW1 3085   1.737   1.516   0.269 -0.6858 -1.2208  0.6470
  767SOL    HW2 3086   1.825   1.505   0.392 -0.3124 -0.3031  0.4698
  768SOL     OW 3087   0.963   1.630   2.372  0.0371 -0.6008  0.6536
  768SOL    HW1 3088   0.997   1.716   2.398  1.2095 -0.2668 -1.6533
  768SOL    HW2 3089   0.879   1.623   2.417 -0.7638  2.3820 -0.0841
  769SOL     OW 3090   2.568   2.148   2.996 -0.7608  0.0143 -0.3750
  769SOL    HW1 3091   2.484   2.159   2.952 -0.7997  0.9143 -0.0927
  769SOL    HW2 3092   2.634   2.170   2.929 -0.7737  0.0655 -0.3707
  770SOL     OW 3093   0.212   2.992   1.645  0.0803 -0.4490 -0.5719
  770SOL    HW1 3094   0.128   2.954   1.618  0.0368 -0.6398 -0.1739
  770SOL    HW2 3095   0.215   3.077   1.601 -0.8186  0.0314  0.2487
  771SOL     OW 3096   2.141   1.270   0.869 -0.2046 -0.1299 -0.1872
  771SOL    HW1 3097   2.143   1.286   0.775  2.1055 -0.7552 -0.3089
  771SOL    HW2 3098   2.232   1.280   0.897 -0.8306  0.0009  1.9864
  772SOL     OW 3099   0.859   1.565   2.950 -0.0539  0.1147  0.2201
  772SOL    HW1 3100   0.803   1.629   2.907  0.8274  0.2691 -0.7334
  772SOL    HW2 3101   0.804   1.488   2.961 -0.8546  0.7111  0.5580
  773SOL     OW 3102   2.020   3.263   1.341  0.1890 -0.2580 -0.3202
  773SOL    HW1 3103   2.110   3.267   1.374  0.9766  0.5049 -2.3984
  773SOL    HW2 3104   2.002   3.352   1.311 -1.0835 -0.5364 -0.4224
  774SOL     OW 3105   1.108   2.470   2.083 -0.5490  0.6501  0.0400
  774SOL    HW1 3106   1.127   2.538   2.019 -1.6010  0.2213 -0.7647
  774SOL    HW2 3107   1.048   2.511   2.145 -1.7323  0.2881 -0.8328
  775SOL     OW 3108   2.349   0.985   1.280 -0.3567  0.5101 -0.0187
  775SOL    HW1 3109   2.281   0.993   1.213 -1.0027  0.5799  0.6287
  775SOL    HW2 3110   2.322   1.046   1.349  0.2737  0.4053  0.3300
  776SOL     OW 3111   0.267   0.310   0.350 -0.7257  0.1931  0.0274
  776SOL    HW1 3112   0.182   0.337   0.387  0.1063  2.3328  0.5205
  776SOL    HW2 3113   0.265   0.343   0.260 -0.2238  0.7425  0.2116
  777SOL     OW 3114   1.152   2.279   2.694 -0.2788 -0.1288 -0.4456
  777SOL    HW1 3115   1.105   2.362   2.681 -0.4451 -0.1135  0.2161
  777SOL    HW2 3116   1.084   2.217   2.720 -0.0740 -0.3510 -0.4346
  778SOL     OW 3117   2.592   2.375   3.149  0.0627 -0.5169  0.1097
  778SOL    HW1 3118   2.647   2.343   3.220  0.4639 -2.6364 -1.0769
  778SOL    HW2 3119   2.564   2.296   3.103 -1.2195  0.7198 -1.3384
  779SOL     OW 3120   0.382   0.073   0.441  0.2608  0.3948  0.8908
  779SOL    HW1 3121   0.331   0.148   0.409 -0.7278 -0.5211  0.2639
  779SOL    HW2 3122   0.472   0.096   0.421 -0.0685  1.2196  0.2775
  780SOL     OW 3123   0.312   2.589   0.535  0.2942 -0.2727  0.3994
  780SOL    HW1 3124   0.327   2.680   0.510 -1.0916  0.2573  1.3706
  780SOL    HW2 3125   0.376   2.573   0.605  0.8050 -0.1902 -0.0378
  781SOL     OW 3126   2.375   1.324   1.566  0.4126  0.2221 -0.3164
  781SOL    HW1 3127   2.370   1.414   1.599  1.3225  0.6197 -1.1945
  781SOL    HW2 3128   2.285   1.294   1.563  0.0940  1.1191 -0.0199
  782SOL     OW 3129   1.899   2.506   0.930 -0.1321 -0.4277 -0.1586
  782SOL    HW1 3130   1.825   2.451   0.957  0.3200 -0.1829  1.7374
  782SOL    HW2 3131   1.951   2.517   1.010  0.4073  1.8176 -0.7629
  783SOL     OW 3132   2.903   2.996   0.440 -0.3583  0.1156 -0.5406
  783SOL    HW1 3133   2.860   3.042   0.513  0.0494  2.0727 -1.4794
  783SOL    HW2 3134   2.851   2.916   0.429 -0.5185 -0.1693  1.7747
  784SOL     OW 3135   1.986   1.538   1.287 -0.1159  0.9013 -0.1925
  784SOL    HW1 3136   1.964   1.535   1.194 -1.6252  0.0543  0.1537
  784SOL    HW2 3137   2.080   1.523   1.290 -0.1765  0.0722 -1.5517
  785SOL     OW 3138   0.452   0.397   2.142  0.5166  0.5668 -0.1802
  785SOL    HW1 3139   0.501   0.318   2.164 -1.6970 -0.8409 -0.0012
  785SOL    HW2 3140   0.469   0.457   2.215  2.6706  0.5298 -0.5995
  786SOL     OW 3141   2.832   0.278   3.096  0.4662  0.3202  0.1932
  786SOL    HW1 3142   2.773   0.349   3.071  0.4280 -0.1796 -1.1790
  786SOL    HW2 3143   2.801   0.251   3.183 -0.4587  0.9693  0.0758
  787SOL     OW 3144   1.234   2.159   1.194  0.1428 -0.0102  0.0663
  787SOL    HW1 3145   1.182   2.096   1.144  1.0088  0.1475 -1.1011
  787SOL    HW2 3146   1.177   2.235   1.203 -0.4328 -0.4653  0.3202
  788SOL     OW 3147   0.307   0.415   2.965 -0.4948 -0.0869  0.0924
  788SOL    HW1 3148   0.293   0.360   2.888  1.5990 -0.8749  0.2293
  788SOL    HW2 3149   0.397   0.399   2.991 -0.3587  2.0780  1.2259
  789SOL     OW 3150   1.153   2.725   2.771  0.2446  0.3981 -0.2806
  789SOL    HW1 3151   1.088   2.792   2.791 -0.8878 -0.4024 -1.1890
  789SOL    HW2 3152   1.113   2.643   2.799  0.8698 -0.1081 -0.8509
  790SOL     OW 3153   2.506   1.131   3.086  0.1519  0.1529 -0.5654
  790SOL    HW1 3154   2.557   1.177   3.153 -0.0466  1.1052 -1.0394
  790SOL    HW2 3155   2.439   1.084   3.135  1.8995 -1.7525  0.1360
  791SOL     OW 3156   1.098   0.108   1.367  0.4615 -0.0205  0.0491
  791SOL    HW1 3157   1.070   0.076   1.453 -0.5786 -0.8998 -0.5870
  791SOL    HW2 3158   1.171   0.050   1.343  0.6451  0.1211  0.2562
  792SOL     OW 3159   0.173   0.826   3.112 -0.3500 -0.5831 -0.3440
  792SOL    HW1 3160   0.083   0.805   3.084 -0.2577 -2.2095  0.4283
  792SOL    HW2 3161   0.215   0.861   3.034 -1.0256 -1.9403 -1.3712
  793SOL     OW 3162   2.442   2.969   2.293  0.1435  0.0451 -0.3403
  793SOL    HW1 3163   2.467   2.956   2.201  0.3960 -0.1652 -0.2427
  793SOL    HW2 3164   2.395   2.890   2.317  0.6105 -0.1659 -0.1092
  794SOL     OW 3165   1.490   0.508   0.715  0.6767 -0.2013 -0.5734
  794SOL    HW1 3166   1.467   0.484   0.626  0.6397 -2.0494 -0.0958
  794SOL    HW2 3167   1.406   0.509   0.762  0.9735 -2.3709  0.1153
  795SOL     OW 3168   2.261   0.196   1.019  0.0021 -0.6526 -0.5338
  795SOL    HW1 3169   2.344   0.153   1.038  1.0271  1.1186 -0.8307
  795SOL    HW2 3170   2.273   0.286   1.048 -0.5371  0.5738 -3.7958
  796SOL     OW 3171   0.821   1.908   1.180 -0.1710  0.3515  0.5354
  796SOL    HW1 3172   0.801   1.824   1.139 -0.0223  0.6836 -0.2470
  796SOL    HW2 3173   0.823   1.890   1.273 -0.7224 -0.3918  0.4121
  797SOL     OW 3174   0.095   2.814   0.246 -0.6519  0.5415 -0.5059
  797SOL    HW1 3175   0.187   2.834   0.230 -0.5038 -0.6630 -1.3251
  797SOL    HW2 3176   0.071   2.754   0.175 -0.8424 -2.6987  2.0356
  798SOL     OW 3177   0.981   3.057   2.342 -0.1080  0.3889  0.4976
  798SOL    HW1 3178   0.938   3.143   2.344 -1.5473 -0.3154  0.9989
  798SOL    HW2 3179   1.049   3.063   2.409 -0.2480  1.1148  0.5835
  799SOL     OW 3180   2.198   1.208   1.314  0.1017  0.2239  0.1459
  799SOL    HW1 3181   2.166   1.231   1.401 -1.4441  1.0331 -0.5944
  799SOL    HW2 3182   2.198   1.291   1.266  0.7704 -0.2427 -0.6879
  800SOL     OW 3183   2.691   3.150   3.014 -0.4369 -0.2202 -0.8490
  800SOL    HW1 3184   2.672   3.064   2.978  1.6561 -0.9559 -0.3164
  800SOL    HW2 3185   2.773   3.176   2.973  0.9083 -0.1532  1.6848
  801SOL     OW 3186   2.582   0.412   0.121  0.1030  0.3717 -0.0814
  801SOL    HW1 3187   2.610   0.404   0.212 -0.5304  0.0601  0.0920
  801SOL    HW2 3188   2.606   0.501   0.097  1.2868  0.1015  0.0342
  802SOL     OW 3189   0.615   2.746   0.536 -0.3879  0.0960  0.2935
  802SOL    HW1 3190   0.567   2.681   0.587 -0.2894  0.2181  0.5408
  802SOL    HW2 3191   0.565   2.827   0.547 -1.7349 -0.3808 -1.7364
  803SOL     OW 3192   1.719   2.307   2.856 -0.4790 -0.0109 -0.0959
  803SOL    HW1 3193   1.803   2.308   2.810 -0.3419  0.1949  0.1621
  803SOL    HW2 3194   1.662   2.254   2.799  0.3525 -1.8161  0.6692
  804SOL     OW 3195   1.022   1.756   0.340 -0.1922  0.4216  1.0013
  804SOL    HW1 3196   1.055   1.739   0.252  0.3680  0.2588  1.2381
  804SOL    HW2 3197   0.928   1.743   0.333 -0.3090  1.5641  0.1507
  805SOL     OW 3198   0.711   0.250   1.792 -0.2406 -0.1729 -0.3252
  805SOL    HW1 3199   0.771   0.223   1.862 -1.1547 -0.8908  0.1977
  805SOL    HW2 3200   0.627   0.211   1.816 -0.6046 -0.3191 -1.7565
  806SOL     OW 3201   1.818   2.923   2.050  0.1713 -0.0595 -0.0382
  806SOL    HW1 3202   1.787   2.887   2.134  0.3728 -1.4817 -0.5542
  806SOL    HW2 3203   1.787   2.861   1.984  1.7820 -0.0585 -0.8288
  807SOL     OW 3204   2.269   2.751   2.378  0.3631  0.1815  0.4258
  807SOL    HW1 3205   2.332   2.695   2.423 -0.7453 -0.5946  1.0766
  807SOL    HW2 3206   2.225   2.799   2.449 -0.6711 -0.2679  0.1037
  808SOL     OW 3207   3.068   0.387   2.968 -0.5021 -0.5561 -0.2158
  808SOL    HW1 3208   3.008   0.333   3.020 -0.1344 -0.3564  0.4356
  808SOL    HW2 3209   3.125   0.428   3.033  0.3320 -0.7304 -0.8209
  809SOL     OW 3210   2.437   1.578   0.302  0.0312  0.1268  1.0733
  809SOL    HW1 3211   2.461   1.671   0.305 -1.7192  0.7671 -1.3450
  809SOL    HW2 3212   2.345   1.577   0.329  0.0139 -0.9155  1.0173
  810SOL     OW 3213   0.571   0.998   0.407 -0.1404 -0.0699 -0.1776
  810SOL    HW1 3214   0.587   0.958   0.322 -0.2012  1.4615 -0.9531
  810SOL    HW2 3215   0.618   0.943   0.469  0.5382 -0.7803 -1.2867
  811SOL     OW 3216   2.735   2.580   2.709  0.1276 -0.0473 -0.0609
  811SOL    HW1 3217   2.747   2.654   2.769 -1.2049  0.4222 -0.3400
  811SOL    HW2 3218   2.720   2.621   2.624  0.5773 -0.6815 -0.4543
  812SOL     OW 3219   1.311   3.055   1.064 -0.4139 -0.2194  0.5357
  812SOL    HW1 3220   1.338   2.963   1.069 -0.9854 -0.5375 -1.2588
  812SOL    HW2 3221   1.387   3.105   1.092  0.9457 -1.1778 -1.2285
  813SOL     OW 3222   0.789   2.786   3.224  0.1494  0.0753  0.3003
  813SOL    HW1 3223   0.878   2.756   3.205  0.4767  0.1477  1.6350
  813SOL    HW2 3224   0.752   2.717   3.279 -0.9697 -0.4057 -0.9921
  814SOL     OW 3225   2.734   2.811   2.182  0.2411 -0.0838 -0.3597
  814SOL    HW1 3226   2.825   2.781   2.177  0.0140 -0.6531 -1.4948
  814SOL    HW2 3227   2.737   2.902   2.150  0.6920  0.6333  1.5771
  815SOL     OW 3228   2.800   0.809   1.792 -0.3832 -0.0642 -0.1288
  815SOL    HW1 3229   2.846   0.725   1.789 -1.1406 -0.4669 -0.5523
  815SOL    HW2 3230   2.802   0.841   1.702  1.8694  1.4834  0.3711
  816SOL     OW 3231   1.392   1.676   2.947  0.4737 -0.1360  0.1729
  816SOL    HW1 3232   1.304   1.655   2.914 -0.1121  1.6769  0.4413
  816SOL    HW2 3233   1.438   1.713   2.872  0.7191 -0.2854  0.2484
  817SOL     OW 3234   2.269   1.213   2.250  0.1769  0.0368  0.4495
  817SOL    HW1 3235   2.338   1.222   2.184  1.0392  2.4002  1.5592
  817SOL    HW2 3236   2.189   1.241   2.206  0.2154 -1.0298 -0.3394
  818SOL     OW 3237   1.218   3.137   2.486 -0.1817 -0.3485  0.4548
  818SOL    HW1 3238   1.311   3.152   2.469  0.2362 -0.1439  2.6261
  818SOL    HW2 3239   1.207   3.043   2.476 -0.1555 -0.1894 -1.4529
  819SOL     OW 3240   0.852   0.650   1.567  0.1651  0.2839 -0.1737
  819SOL    HW1 3241   0.782   0.611   1.620 -2.3037  1.5667 -2.2631
  819SOL    HW2 3242   0.889   0.719   1.623 -0.0987 -0.5292  1.0380
  820SOL     OW 3243   1.094   2.764   1.200 -0.3979 -0.6994 -0.8728
  820SOL    HW1 3244   1.041   2.746   1.122 -0.2646 -0.4235 -1.0288
  820SOL    HW2 3245   1.090   2.859   1.210  0.9941 -0.5405 -1.5587
  821SOL     OW 3246   0.997   0.848   2.427  0.0208 -0.5788  0.4842
  821SOL    HW1 3247   1.069   0.823   2.369 -0.5275 -1.0425 -0.0207
  821SOL    HW2 3248   0.982   0.941   2.408  0.0965 -0.6312  0.1533
  822SOL     OW 3249   0.253   3.060   0.867  0.0061 -0.6265  0.0415
  822SOL    HW1 3250   0.192   3.077   0.795 -0.4592 -1.2967  0.2653
  822SOL    HW2 3251   0.218   3.111   0.941  0.4411  0.0010 -0.1776
  823SOL     OW 3252   2.684   3.079   1.521  0.5685  0.7069  0.1372
  823SOL    HW1 3253   2.705   3.149   1.460  0.8758 -1.3987 -2.3642
  823SOL    HW2 3254   2.592   3.059   1.504  0.6682  0.0677  0.3142
  824SOL     OW 3255   1.248   1.795   2.283 -0.3155  0.1115  0.8060
  824SOL    HW1 3256   1.338   1.801   2.317  0.5847 -0.7905 -1.2408
  824SOL    HW2 3257   1.194   1.786   2.362  1.5582 -1.0863  2.0610
  825SOL     OW 3258   1.612   1.603   2.037  0.2773 -0.4060  0.1599
  825SOL    HW1 3259   1.612   1.699   2.039  0.6557 -0.4004  0.0402
  825SOL    HW2 3260   1.705   1.580   2.038  0.2738 -0.7254 -2.1745
  826SOL     OW 3261   2.014   2.008   2.102 -0.0130  0.3393 -0.0986
  826SOL    HW1 3262   1.936   2.013   2.157  0.4781  3.2959  0.5078
  826SOL    HW2 3263   1.982   1.978   2.017 -1.0262 -2.7979  1.2276
  827SOL     OW 3264   1.584   1.446   3.235 -0.0646  0.5595 -0.0546
  827SOL    HW1 3265   1.622   1.473   3.319  0.0997 -1.2775  0.5242
  827SOL    HW2 3266   1.490   1.456   3.247  0.0452  2.3667 -0.4559
  828SOL     OW 3267   2.125   2.458   2.565  0.3198 -0.0243  0.4205
  828SOL    HW1 3268   2.140   2.427   2.654 -1.2351 -1.5008  0.2270
  828SOL    HW2 3269   2.122   2.553   2.572  1.1100 -0.0791  1.7779
  829SOL     OW 3270   1.406   2.193   1.820  0.0770 -0.3869  0.3529
  829SOL    HW1 3271   1.400   2.286   1.842 -0.5378 -0.7413  1.7691
  829SOL    HW2 3272   1.351   2.184   1.743 -0.6281  0.2561  0.7673
  830SOL     OW 3273   1.514   1.471   2.650 -0.6880  0.0731 -0.1534
  830SOL    HW1 3274   1.500   1.563   2.671 -0.9849 -0.0907  0.3852
  830SOL    HW2 3275   1.470   1.458   2.566  0.2464  0.6668 -0.7437
  831NA      NA 3276   1.499   0.444   2.478  0.2130 -0.4608  0.0455
  832NA      NA 3277   1.415   0.789   0.428  0.2883 -0.1681 -0.3277
  833NA      NA 3278   2.077   0.425   3.107  0.0798 -0.1233 -0.0602
  834NA      NA 3279   1.068   1.118   3.223 -0.0374 -0.0587  0.3107
  835NA      NA 3280   2.181   2.709   0.480 -0.0909  0.3877 -0.2066
  836NA      NA 3281   1.413   0.895   3.205 -0.2027 -0.0008  0.1832
  837NA      NA 3282   2.029   0.156   0.971 -0.1308 -0.2928  0.4035
  838NA      NA 3283   1.947   2.420   0.388  0.2172  0.2323  0.1246
  839NA      NA 3284   1.463   0.211   0.353  0.3606  0.1555 -0.2909
  840NA      NA 3285   1.341   1.174   2.955  0.1235 -0.3305 -0.1045
  841NA      NA 3286   1.690   0.952   2.922 -0.4891 -0.0691  0.5292
  842NA      NA 3287   1.402   0.965   2.632  0.3027 -0.1584  0.0163
  843NA      NA 3288   2.375   0.164   3.070 -0.0818 -0.2627 -0.1909
  844NA      NA 3289   1.974   1.085   2.630 -0.2145  0.5107  0.3670
  845NA      NA 3290   2.424   3.176   3.317 -0.0577  0.0040  0.4691
  846NA      NA 3291   2.104   0.075   0.008 -0.0131  0.0641 -0.3505
  847NA      NA 3292   1.540   2.991   0.234  0.0871 -0.1526 -0.0085
  848NA      NA 3293   1.452   0.545   0.096  0.0124 -0.0152 -0.0297
  849NA      NA 3294   1.517   3.261   0.550  0.3706  0.3908  0.0698
  850NA      NA 3295   1.341   2.782   2.924 -0.0069 -0.3994 -0.3891
  851NA      NA 3296   1.162   0.439   0.351 -0.8896 -0.2275 -0.2404
  852NA      NA 3297   2.199   1.444   2.709 -0.3635 -0.2091  0.1313
  853NA      NA 3298   2.092   3.292   0.553  0.0649  0.4703  0.0722
  854NA      NA 3299   1.625   2.788   3.228  0.2104  0.0984  0.3193
  855NA      NA 3300   1.937   2.524   3.174 -1.0472  0.3756 -0.1563
  856NA      NA 3301   2.280   0.743   3.188  0.0949  0.1854 -0.1385
  857NA      NA 3302   1.674   1.303   2.664 -0.1735  0.1296 -0.3099
  858NA      NA 3303   1.430   0.633   2.836  0.4021 -0.6401  0.0468
  859NA      NA 3304   1.738   0.634   3.164 -0.0578  0.0773 -0.1664
  860NA      NA 3305   2.392   0.330   2.529  0.0033 -0.2773 -0.1639
  861NA      NA 3306   1.908   1.322   2.991  0.5388  0.1591 -0.2282
  862NA      NA 3307   1.095   0.858   2.916  0.0463 -0.2056 -0.1545
  863NA      NA 3308   1.611   2.655   0.442 -0.2172 -0.3377  0.4833
  864NA      NA 3309   1.337   2.657   0.155 -0.0449 -0.0729 -0.0433
  865NA      NA 3310   1.054   1.056   0.439 -0.2027 -0.1525 -0.3309
  866NA      NA 3311   2.127   0.203   2.785  0.0041 -0.2964  0.5429
  867NA      NA 3312   2.354   0.868   2.621  0.4013  0.0781  0.1106
  868NA      NA 3313   1.379   2.453   3.156 -0.0641  0.4101 -0.0341
  869NA      NA 3314   1.652   2.300   0.644  0.0164 -0.6201 -0.1583
  870NA      NA 3315   1.503   0.321   3.083 -0.4006 -0.2154 -0.3170
  871NA      NA 3316   1.786   0.298   0.043 -0.1437  0.2120  0.0291
  872NA      NA 3317   1.362   3.108   2.768 -0.2335  0.6833  0.3120
  873NA      NA 3318   1.857   0.193   2.468  0.2520 -0.4319 -0.2664
  874NA      NA 3319   2.438   2.844   0.174  0.2173 -0.1378 -0.1385
  875NA      NA 3320   2.131   2.967   0.772 -0.1193  0.0746 -0.0240
  876NA      NA 3321   1.818   3.186   0.826  0.3069  0.1076 -0.5206
  877NA      NA 3322   2.468   2.725   0.760  0.5445 -0.1297  0.2160
  878NA      NA 3323   2.145   3.038   0.223 -0.1052  0.0461 -0.0183
  879NA      NA 3324   2.386   3.263   0.833  0.0098 -0.3029  0.0365
  880NA      NA 3325   2.224   2.512   0.134 -0.1255  0.1912 -0.2881
  881NA      NA 3326   1.361   2.326   0.385 -0.0362  0.2454  0.2967
  882NA      NA 3327   1.978   0.956   3.216 -0.1059 -0.2297  0.1476
  883NA      NA 3328   2.376   0.521   2.859  0.0669 -0.0833  0.2045
  884NA      NA 3329   1.372   2.550   0.705 -0.1057  0.1543  0.0482
  885NA      NA 3330   1.889   1.232   0.235 -0.0602  0.2277 -0.1377
  886NA      NA 3331   2.145   3.200   2.989  0.5537  0.1034  0.2033
  887NA      NA 3332   2.374   0.078   0.297 -0.1735 -0.1059 -0.0880
  888NA      NA 3333   1.162   3.320   3.043 -0.0183 -0.2846 -0.1218
  889NA      NA 3334   1.893   2.862   2.921  0.4151 -0.4910  0.4210
  890NA      NA 3335   1.589   2.896   0.764  0.1182  0.2832  0.3281
  891NA      NA 3336   2.012   0.752   2.867  0.2014  0.1114 -0.1437
  892NA      NA 3337   2.536   2.615   3.197 -0.5773 -0.2554  0.4190
  893NA      NA 3338   1.905   2.657   0.737  0.0083 -0.0332  0.1638
  894NA      NA 3339   1.841   3.177   2.705  0.0926 -0.4345  0.3553
  895NA      NA 3340   1.823   3.317   0.253  0.3713  0.1537 -0.0512
  896NA      NA 3341   1.717   2.085   0.325  0.1394 -0.1590  0.1028
  897NA      NA 3342   1.352   1.122   0.179  0.2753 -0.3414  0.2675
  898NA      NA 3343   1.447   2.113   0.003  0.2339  0.0401  0.0716
  899NA      NA 3344   1.662   2.228   3.073 -0.1174 -0.5402  0.1655
  900NA      NA 3345   1.673   2.450   0.090  0.1597  0.1596 -0.0036
  901NA      NA 3346   1.179   0.538   3.140 -0.0229 -0.3241  0.1853
  902NA      NA 3347   1.273   2.993   3.261  0.2021 -0.2125 -0.0500
  903NA      NA 3348   1.192   0.301   2.812  0.5392  0.0101  0.0994
  904NA      NA 3349   1.840   2.984   0.497  0.2543  0.4361  0.0786
  905NA      NA 3350   2.507   2.508   0.408 -0.3714 -0.0655 -0.2721
  906NA      NA 3351   1.854   3.119   3.277 -0.1041 -0.5524 -0.0813
  907NA      NA 3352   1.126   0.749   0.133  0.0498 -0.1089 -0.3782
  908NA      NA 3353   1.091   3.333   2.555  0.0946 -0.5208  0.1924
  909NA      NA 3354   1.916   2.753   0.175  0.2760  0.3432  0.1599
  910NA      NA 3355   2.056   0.535   2.535 -0.0400 -0.2168 -0.1554
  911NA      NA 3356   2.188   2.849   3.175  0.0930  0.0573 -0.5166
  912NA      NA 3357   1.999   0.623   0.130 -0.0344 -0.0325 -0.0127
  913NA      NA 3358   1.754   0.423   2.806 -0.1154 -0.4096 -0.4019
  914NA      NA 3359   1.290   2.895   0.508 -0.0568  0.1447  0.3254
  915NA      NA 3360   2.233   0.987   0.187 -0.0066 -0.3023 -0.1101
  916NA      NA 3361   1.202   0.235   0.027  0.5276 -0.2657 -0.5704
  917NA      NA 3362   1.655   2.563   2.894  0.5116 -0.1311  0.4394
  918NA      NA 3363   2.363   0.397   0.076 -0.1348 -0.0472 -0.0229
  919NA      NA 3364   1.345   2.211   2.818  0.2965  0.2432 -0.1855
  920NA      NA 3365   1.213   3.224   0.245 -0.0745 -0.7330  0.0485
  921NA      NA 3366   1.267   3.113   0.833 -0.2679 -0.5640 -0.4875
  922NA      NA 3367   1.672   0.893   0.156  0.1541  0.4134  0.2319
  923NA      NA 3368   1.525   3.324   3.332 -0.3144  0.1017 -0.1346
  924NA      NA 3369   2.223   1.078   2.951 -0.0681 -0.0948 -0.0656
  925NA      NA 3370   2.166   1.308   3.280 -0.0016  0.0916 -0.0204
  926NA      NA 3371   1.636   1.200   3.238 -0.1054 -0.0774  0.2370
  927NA      NA 3372   1.553   0.099   2.687  0.0169 -0.0782  0.8584
  928NA      NA 3373   1.718   0.743   2.585  0.3321 -0.0774  0.2113
  929NA      NA 3374   1.812   0.101   3.031 -0.5132  0.1051  0.0843
  930NA      NA 3375   2.446   3.048   0.497 -0.0295 -0.3518 -0.0430
  931CL      CL 3376   1.788   0.372   3.084 -0.4615  0.1863 -0.0842
  932CL      CL 3377   1.382   2.399   0.103  0.1167  0.3349 -0.0083
  933CL      CL 3378   1.219   0.268   3.089  0.0461 -0.1232  0.3954
  934CL      CL 3379   2.505   2.561   0.132 -0.3884 -0.2601 -0.3740
  935CL      CL 3380   1.690   0.926   3.200 -0.1151 -0.1248  0.2412
  936CL      CL 3381   1.342   2.733   3.204 -0.1477 -0.2709  0.1528
  937CL      CL 3382   1.166   0.496   0.071  0.1223  0.1402 -0.0390
  938CL      CL 3383   1.154   0.586   2.853 -0.2745 -0.1689 -0.3092
  939CL      CL 3384   1.620   1.246   2.947  0.3012 -0.2689 -0.4754
  940CL      CL 3385   1.276   2.964   0.213 -0.1427 -0.0959 -0.3797
  941CL      CL 3386   1.832   3.258   0.559  0.4188  0.2482 -0.0443
  942CL      CL 3387   1.045   1.052   0.174  0.3038 -0.1873 -0.0771
  943CL      CL 3388   1.964   1.019   2.933  0.1054  0.2771 -0.1719
  944CL      CL 3389   1.056   1.133   2.944 -0.0862  0.1239  0.2331
  945CL      CL 3390   2.456   2.775   0.468 -0.0746 -0.2894 -0.0560
  946CL      CL 3391   1.566   2.922   0.498 -0.0086  0.0615  0.0077
  947CL      CL 3392   1.126   0.807   3.192 -0.2240 -0.1850  0.1494
  948CL      CL 3393   1.444   2.029   0.279  0.1418 -0.3040 -0.1811
  949CL      CL 3394   1.320   2.823   0.782 -0.3415  0.1568  0.0863
  950CL      CL 3395   1.660   2.364   0.374 -0.1035  0.2804  0.1177
  951CL      CL 3396   1.246   3.162   0.556 -0.2095 -0.0406  0.5066
  952CL      CL 3397   1.812   0.041   3.322  0.0766 -0.2466  0.3744
  953CL      CL 3398   2.179   2.709   0.756  0.1466 -0.0887 -0.2792
  954CL      CL 3399   2.291   0.810   2.899  0.5638  0.0053 -0.0437
  955CL      CL 3400   1.838   0.118   2.739  0.2655  0.0810 -0.0703
  956CL      CL 3401   1.858   3.152   2.980  0.1265  0.2194  0.2227
  957CL      CL 3402   1.532   3.295   0.280 -0.0215 -0.2650 -0.1655
  958CL      CL 3403   1.489   0.335   2.807 -0.0057 -0.0503  0.0744
  959CL      CL 3404   2.166   1.271   0.240 -0.1169 -0.3456  0.2222
  960CL      CL 3405   1.897   1.264   3.265 -0.3384 -0.0573 -0.0918
  961CL      CL 3406   1.792   0.479   2.514 -0.2100 -0.1131 -0.2435
  962CL      CL 3407   2.273   0.684   0.133  0.0408  0.2325  0.2520
  963CL      CL 3408   1.604   2.833   2.935 -0.2727 -0.2041  0.0399
  964CL      CL 3409   2.149   3.123   3.267 -0.0303 -0.0854 -0.2214
  965CL      CL 3410   1.944   0.908   0.197 -0.1476 -0.2308 -0.3239
  966CL      CL 3411   1.329   1.052   0.470  0.0615  0.2956  0.0887
  967CL      CL 3412   1.394   2.186   3.091 -0.0878  0.1841  0.7561
  968CL      CL 3413   1.201   0.163   0.306  0.1301 -0.0338  0.1863
  969CL      CL 3414   1.659   1.040   2.619 -0.1086 -0.0318 -0.1943
  970CL      CL 3415   1.936   1.358   2.710  0.2185 -0.3675 -0.2932
  971CL      CL 3416   2.121   0.275   2.494 -0.1520 -0.0262 -0.1766
  972CL      CL 3417   2.021   0.697   3.169 -0.4086 -0.4976 -0.2407
  973CL      CL 3418   2.389   0.101   0.012 -0.2176 -0.0066 -0.0807
  974CL      CL 3419   2.356   0.596   2.548  0.0585 -0.0333 -0.1202
  975CL      CL 3420   2.249   1.013   3.232  0.1077 -0.0361  0.2269
  976CL      CL 3421   1.564   3.061   3.283  0.3914  0.1801 -0.1323
  977CL      CL 3422   2.390   0.261   2.796 -0.1109  0.2270  0.3278
  978CL      CL 3423   1.185   3.034   2.978 -0.3404 -0.0797  0.1882
  979CL      CL 3424   1.128   0.711   0.409  0.2013 -0.1099  0.1544
  980CL      CL 3425   1.633   1.161   0.190 -0.0935  0.1764 -0.0884
  981CL      CL 3426   2.192   1.369   3.003  0.1774 -0.1888  0.4808
  982CL      CL 3427   2.101   0.037   0.290 -0.0143  0.0145 -0.4126
  983CL      CL 3428   2.532   0.033   1.033  0.0884  0.2563 -0.1974
  984CL      CL 3429   1.341   1.175   3.251 -0.2956 -0.0788  0.2788
  985CL      CL 3430   1.637   2.562   0.721  0.3329  0.1676  0.2385
  986CL      CL 3431   1.398   2.484   2.865  0.0512 -0.2067  0.2743
  987CL      CL 3432   1.716   0.588   0.093 -0.1245  0.0539  0.1605
  988CL      CL 3433   2.231   2.574   3.176  0.1230 -0.1234  0.2308
  989CL      CL 3434   1.273   0.040   2.794 -0.2705 -0.4068 -0.0263
  990CL      CL 3435   1.345   2.603   0.437  0.1875  0.3741  0.3377
  991CL      CL 3436   2.226   2.443   0.416 -0.1766 -0.2130 -0.2987
  992CL      CL 3437   1.583   0.171   2.424  0.0518  0.0166 -0.0576
  993CL      CL 3438   2.290   1.129   2.668  0.1812 -0.0362 -0.0185
  994CL      CL 3439   1.659   2.490   3.172  0.2741  0.4085  0.2633
  995CL      CL 3440   2.141   3.022   0.501  0.0879  0.1999  0.0682
  996CL      CL 3441   1.504   0.267   0.033 -0.2036 -0.0258  0.0532
  997CL      CL 3442   0.959   0.223   2.697  0.1034  0.1238  0.0706
  998CL      CL 3443   2.463   3.015   0.784 -0.3464 -0.3979  0.2030
  999CL      CL 3444   0.925   0.117   2.049 -0.0638 -0.2436 -0.2227
 1000CL      CL 3445   1.941   2.482   0.112 -0.3228  0.1857  0.0012
 1001CL      CL 3446   1.909   2.806   3.245  0.3500  0.1682  0.0134
 1002CL      CL 3447   1.610   2.727   0.162  0.1472 -0.1683 -0.1454
 1003CL      CL 3448   1.868   3.050   0.220  0.1543  0.0535 -0.0509
 1004CL      CL 3449   2.465   2.902   3.236  0.2915  0.0508 -0.3117
 1005CL      CL 3450   1.456   0.707   2.563  0.1353 -0.1144 -0.2157
 1006CL      CL 3451   2.110   3.217   0.861  0.4027  0.1977  0.0790
 1007CL      CL 3452   1.401   0.916   2.913  0.0488 -0.1735  0.2394
 1008CL      CL 3453   1.714   2.145   0.021 -0.0386  0.0138  0.4040
 1009CL      CL 3454   1.458   0.605   3.138 -0.1324 -0.1872  0.1915
 1010CL      CL 3455   1.542   2.110   2.671 -0.5301  0.5855  0.1250
 1011CL      CL 3456   1.738   0.691   2.853  0.1958  0.3614 -0.0368
 1012CL      CL 3457   1.925   2.587   2.891  0.1480  0.1939 -0.3962
 1013CL      CL 3458   2.062   0.469   2.832 -0.4942  0.1595 -0.6133
 1014CL      CL 3459   2.393   0.032   0.579 -0.0570  0.0854  0.2112
 1015CL      CL 3460   1.375   2.265   0.676  0.3228  0.1531  0.2560
 1016CL      CL 3461   2.409   3.108   0.238  0.2182 -0.1390 -0.4446
 1017CL      CL 3462   1.401   0.817   0.144 -0.5488 -0.4101 -0.0570
 1018CL      CL 3463   1.249   3.274   3.300  0.0728 -0.0857 -0.2656
 1019CL      CL 3464   1.854   2.913   0.774  0.4274  0.0658 -0.2565
 1020CL      CL 3465   2.003   0.811   2.575 -0.2737 -0.0538 -0.4049
 1021CL      CL 3466   2.273   1.510   1.173  0.1044  0.3728 -0.0428
 1022CL      CL 3467   1.434   0.482   0.389 -0.0457 -0.0461 -0.0052
 1023CL      CL 3468   2.178   2.766   0.198 -0.1011  0.5203  0.3249
 1024CL      CL 3469   1.590   3.166   2.613 -0.0180 -0.2277  0.3146
 1025CL      CL 3470   2.153   2.926   2.911 -0.2781 -0.1127  0.0162
 1026CL      CL 3471   2.103   0.137   3.054  0.2334 -0.1630 -0.2792
 1027CL      CL 3472   2.066   0.359   0.043 -0.2250  0.3725 -0.6294
 1028CL      CL 3473   1.539   3.174   0.820  0.3210  0.2105  0.2066
 1029CL      CL 3474   1.898   2.705   0.450  0.2328  0.0507 -0.4492
 1030CL      CL 3475   2.350   0.473   3.132  0.3089  0.5554  0.1913
   3.33818   3.33818   3.33818
