Generic title in water
 3475
    1PET     C9    1   1.221   3.098   2.718 -0.5488 -0.8524  0.0976
    1PET     H6    2   1.153   3.184   2.727 -0.2736 -0.2935 -2.6803
    1PET     H7    3   1.240   3.075   2.613 -1.0733 -0.5602 -0.0615
    1PET     O2    4   1.340   3.121   2.785  0.1067 -0.4078  0.5726
    1PET     C8    5   1.427   3.019   2.798  0.0610  0.5350  0.2179
    1PET     O1    6   1.401   2.900   2.782 -0.1389 -0.8583  0.1306
    1PET     C4    7   1.560   3.070   2.842 -0.4566  0.3056  0.0352
    1PET     C5    8   1.623   3.174   2.767  0.5607  0.1379 -0.6081
    1PET     C6    9   1.750   3.218   2.805  0.4506 -0.6323  0.5789
    1PET     H4   10   1.788   3.310   2.761  1.3765 -1.5806 -0.6176
    1PET     H3   11   1.579   3.224   2.681 -3.9080  0.7024  1.8607
    1PET     C3   12   1.629   3.003   2.935  0.2990 -0.5968 -0.4982
    1PET     H2   13   1.594   2.909   2.975 -0.0049 -0.2030  0.1768
    1PET     C2   14   1.753   3.057   2.984  0.4103  0.2767  0.8005
    1PET     H1   15   1.795   3.004   3.069 -1.2609 -1.9977  0.2739
    1PET     C1   16   1.822   3.154   2.903  0.1404 -0.1520  0.2626
    1PET     C7   17   1.958   3.203   2.950  0.7664  0.3990  0.1280
    1PET     O3   18   2.037   3.124   2.997 -0.2175 -0.3544 -0.0139
    1PET     O4   19   1.977   3.333   2.910 -0.0516 -0.2637 -0.5422
    1PET    C10   20   2.087   3.406   2.963 -0.3729 -0.5327  0.8622
    1PET     H8   21   2.110   3.376   3.066 -2.2462 -0.4162  1.3395
    1PET     H9   22   2.075   3.515   2.957 -0.4273 -0.4517  2.2422
    1PET    C11   23   2.215   3.376   2.885 -1.1170  0.0987  0.2510
    1PET    H10   24   2.204   3.426   2.788 -0.8822 -1.9966 -0.8874
    1PET    H11   25   2.233   3.271   2.859 -1.4822 -0.3751  1.8342
    1PET    C12   26   2.356   3.423   2.933 -1.3929  0.0748 -0.0413
    1PET    H13   27   2.360   3.529   2.909 -0.3860 -0.0221 -0.3371
    1PET    H14   28   2.440   3.386   2.872 -1.6164 -2.1219  0.9437
    2PEO     C1   29   2.401   3.395   3.080 -0.3119 -0.7852  0.5781
    2PEO     H3   30   2.337   3.453   3.148  0.9524 -0.1251  1.2164
    2PEO     H4   31   2.509   3.415   3.081 -0.2081 -0.2874 -4.8156
    2PEO      O   32   2.375   3.262   3.116 -0.6112 -0.6466  0.3087
    2PEO     C2   33   2.489   3.200   3.184  0.3967 -0.7942 -0.7552
    2PEO     H5   34   2.573   3.192   3.115  1.8022 -0.3642  0.8771
    2PEO     H6   35   2.461   3.095   3.198  2.6189 -1.3756 -0.4202
    2PEO     C3   36   2.534   3.272   3.317  0.2092  0.5589  0.4002
    2PEO     H7   37   2.473   3.356   3.354  0.4658  0.0712  1.9879
    2PEO     H8   38   2.634   3.310   3.292  0.1332  0.6038  0.1728
    2PEO     O1   39   2.559   3.176   3.427  0.2770  0.8180 -0.2924
    2PEO     C4   40   2.635   3.052   3.393  1.0031 -1.2948  0.3328
    2PEO     H9   41   2.581   3.013   3.306 -1.2416 -0.5818  1.3796
    2PEO    H10   42   2.618   2.987   3.480  0.4274 -0.0300  1.1643
    2PEO     C5   43   2.785   3.075   3.369  0.2731 -0.2344 -0.0657
    2PEO    H11   44   2.803   3.142   3.284  2.8648 -1.0684 -0.2064
    2PEO    H12   45   2.832   2.980   3.342 -0.6057 -0.9094  0.7907
    2PEO     O2   46   2.843   3.140   3.481 -0.2367  0.1466 -0.1419
    2PEO     C6   47   2.885   3.060   3.592 -0.5744  0.4062 -0.0719
    2PEO    H13   48   2.931   2.962   3.576 -0.2143  0.1629  2.2484
    2PEO    H14   49   2.792   3.031   3.642 -0.0818  1.5813  1.5776
    2PEO     C7   50   2.953   3.161   3.683  0.0459  0.1388 -0.3879
    2PEO    H15   51   2.994   3.224   3.603  1.9328 -3.3955 -2.2773
    2PEO    H16   52   3.032   3.110   3.740  1.4080  0.9921 -1.4827
    2PEO     O3   53   2.856   3.233   3.764  0.5948  0.0438  0.0784
    2PEO     C8   54   2.900   3.335   3.857 -1.1431 -0.4084  1.1725
    2PEO    H17   55   2.963   3.402   3.798 -1.3916 -0.1077  1.2457
    2PEO    H18   56   2.974   3.293   3.926 -1.5898  1.9579  3.1958
    2PEO     C9   57   2.790   3.384   3.951  0.2790 -0.2260  0.4361
    2PEO    H19   58   2.846   3.431   4.032  1.0312 -0.5637  0.1162
    2PEO    H20   59   2.730   3.296   3.979 -0.7128  0.2356 -0.1908
    2PEO     O4   60   2.715   3.473   3.872  0.4135  0.1850  0.3798
    2PEO    C10   61   2.786   3.602   3.838  0.7013  0.7744  0.1672
    2PEO    H21   62   2.890   3.590   3.806  0.6205  0.2970  0.0850
    2PEO    H22   63   2.784   3.662   3.930  0.6791  0.2790  0.4973
    3PET     C9   64   2.710   3.660   3.724  0.0334  0.3598 -0.2007
    3PET     H6   65   2.732   3.767   3.719  0.4718  0.2515 -0.5922
    3PET     H7   66   2.600   3.654   3.726 -0.5434  6.8334 -1.9488
    3PET     O2   67   2.768   3.603   3.597 -0.1345 -0.2390 -0.3625
    3PET     C8   68   2.701   3.620   3.478  0.7456 -0.0059 -0.4255
    3PET     O1   69   2.598   3.680   3.477 -0.2572 -0.1001 -0.1067
    3PET     C4   70   2.764   3.544   3.363 -0.0359  0.1174  0.0026
    3PET     C5   71   2.860   3.450   3.379  0.1584  0.2141 -0.4917
    3PET     C6   72   2.936   3.400   3.272  0.3351  0.3020  0.6070
    3PET     H4   73   2.996   3.312   3.291  0.2460 -0.8499 -3.8562
    3PET     H3   74   2.871   3.406   3.478  0.3384  3.3427  0.9234
    3PET     C3   75   2.729   3.588   3.236  0.0844  0.0084  0.1066
    3PET     H2   76   2.663   3.673   3.229  1.8653  1.3774 -0.5930
    3PET     C2   77   2.816   3.545   3.125  0.2287 -0.2227 -0.2699
    3PET     H1   78   2.791   3.592   3.031 -1.6809 -0.1937  0.2314
    3PET     C1   79   2.913   3.445   3.143  0.3383 -0.3799  0.6846
    3PET     C7   80   2.999   3.400   3.029 -0.0256  0.5177  0.1084
    3PET     O3   81   2.948   3.414   2.919 -0.6281  0.6005 -0.2370
    3PET     O4   82   3.128   3.359   3.052  0.1709  0.0544  1.0705
    3PET    C10   83   3.227   3.375   2.949 -0.2366  0.0955  0.0364
    3PET     H8   84   3.330   3.361   2.985 -1.1634  0.0832  2.8267
    3PET     H9   85   3.217   3.476   2.910  3.2042  0.2395 -0.6013
    3PET    C11   86   3.211   3.247   2.865  0.1049 -0.3492  0.7537
    3PET    H10   87   3.279   3.258   2.780 -2.5515 -1.0236 -1.5514
    3PET    H11   88   3.116   3.257   2.810 -1.0438 -1.4673  2.4853
    3PET    C12   89   3.238   3.109   2.934 -0.0564 -0.7728  0.4824
    3PET    H13   90   3.338   3.108   2.979 -0.2897  0.2741  1.0407
    3PET    H14   91   3.237   3.041   2.848 -0.6156  2.7885 -2.4191
    4PET     C9   92   3.141   3.053   3.033  1.0705 -0.6735 -0.4261
    4PET     H6   93   3.144   3.100   3.132  0.4772  1.4710 -1.4080
    4PET     H7   94   3.161   2.945   3.023  0.1387 -1.1153  2.0716
    4PET     O2   95   3.004   3.072   2.986  1.0826 -0.3949 -0.0810
    4PET     C8   96   2.894   3.003   3.025  0.0495  0.0517  0.4525
    4PET     O1   97   2.901   2.919   3.111 -0.9096  0.1720  0.3385
    4PET     C4   98   2.769   3.027   2.945  0.0549  0.1382 -0.2159
    4PET     C5   99   2.763   3.133   2.851  0.0602  0.1752 -0.5046
    4PET     C6  100   2.644   3.145   2.771  1.5076 -0.2194 -0.9792
    4PET     H4  101   2.630   3.230   2.705 -3.8468 -0.6098 -0.5667
    4PET     H3  102   2.846   3.203   2.841 -0.1986  0.5809  0.1090
    4PET     C3  103   2.652   2.946   2.963  0.1886  0.2580  0.3105
    4PET     H2  104   2.650   2.854   3.021  0.9891 -0.5586 -0.9309
    4PET     C2  105   2.535   2.961   2.887 -0.4676 -0.2935 -0.7837
    4PET     H1  106   2.455   2.890   2.903  1.8207 -2.8278 -0.0791
    4PET     C1  107   2.530   3.059   2.784  0.6130  0.2294 -0.5382
    4PET     C7  108   2.403   3.090   2.703 -0.2560 -0.1852 -0.5819
    4PET     O3  109   2.397   3.191   2.632 -0.0760  0.1628  0.5702
    4PET     O4  110   2.305   3.000   2.725 -0.1925 -0.1526 -0.1765
    4PET    C10  111   2.175   3.027   2.664 -0.1607  0.4549  0.1587
    4PET     H8  112   2.146   3.125   2.705 -1.3083 -0.5986  1.9240
    4PET     H9  113   2.112   2.948   2.707  1.4306 -1.4673 -0.9965
    4PET    C11  114   2.172   3.019   2.510  0.0179  0.3082  0.4485
    4PET    H10  115   2.204   3.116   2.471  0.3486  0.6791  1.6346
    4PET    H11  116   2.072   2.997   2.471  0.7389 -2.2171 -0.0560
    4PET    C12  117   2.250   2.895   2.458 -0.0111 -0.3824  0.4606
    4PET    H13  118   2.212   2.803   2.504 -0.0769 -1.3632 -1.4875
    4PET    H14  119   2.357   2.893   2.481  0.6995 -1.1178 -2.6294
    5PET     C9  120   2.250   2.891   2.302  0.1784  0.2426  0.8661
    5PET     H6  121   2.280   2.983   2.250 -1.1127 -1.2720 -2.7837
    5PET     H7  122   2.145   2.868   2.277  0.4700 -1.1069  0.8453
    5PET     O2  123   2.337   2.778   2.262 -0.5971 -0.0410  0.3321
    5PET     C8  124   2.316   2.719   2.142  0.4772  0.9844 -0.2844
    5PET     O1  125   2.222   2.749   2.071  0.0070 -0.0629 -0.3875
    5PET     C4  126   2.420   2.603   2.111 -0.2528 -0.1400  0.2267
    5PET     C5  127   2.404   2.523   1.997  0.1927 -1.3479 -0.0870
    5PET     C6  128   2.502   2.435   1.949 -0.3351 -0.1333  0.0026
    5PET     H4  129   2.479   2.378   1.860 -0.9119  0.5067 -0.2644
    5PET     H3  130   2.314   2.525   1.936 -0.4798 -0.6002  0.9296
    5PET     C3  131   2.531   2.585   2.194  0.1133 -0.1389  0.0523
    5PET     H2  132   2.540   2.644   2.285  0.4283  0.0004 -0.0654
    5PET     C2  133   2.635   2.501   2.148 -0.7079 -0.0857 -0.1153
    5PET     H1  134   2.728   2.490   2.204 -0.0210 -0.7162 -1.3622
    5PET     C1  135   2.619   2.421   2.028 -0.0571  0.6971 -0.3897
    5PET     C7  136   2.713   2.324   1.977  0.0155 -0.8168  0.8051
    5PET     O3  137   2.675   2.254   1.881 -0.2086  0.3894 -0.2848
    5PET     O4  138   2.835   2.316   2.040  0.9835  0.0835 -0.3905
    5PET    C10  139   2.941   2.251   1.969  0.1503 -0.2910  0.1105
    5PET     H8  140   2.961   2.285   1.867  0.3145 -0.3269  0.1313
    5PET     H9  141   2.926   2.143   1.964  1.4703 -0.3823 -2.5135
    5PET    C11  142   3.085   2.269   2.027  0.1560 -0.3773  0.3706
    5PET    H10  143   3.089   2.218   2.125 -0.9084  0.1463  0.7000
    5PET    H11  144   3.097   2.374   2.056  1.8446 -0.1682 -1.0166
    5PET    C12  145   3.195   2.211   1.932 -0.4786  0.2783 -0.9541
    5PET    H13  146   3.171   2.228   1.826  3.2178  0.7309 -1.7806
    5PET    H14  147   3.195   2.102   1.942 -1.7931  0.5383  2.4671
    6PEO     C1  148   3.327   2.269   1.951 -0.1548 -0.5130  0.1819
    6PEO     H3  149   3.404   2.208   1.904 -0.8688 -0.2643 -1.3450
    6PEO     H4  150   3.357   2.260   2.056 -0.3000 -3.2518  0.0184
    6PEO      O  151   3.358   2.407   1.908  1.1428  0.9533 -0.2994
    6PEO     C2  152   3.366   2.502   2.018  0.1775 -0.1593 -0.3750
    6PEO     H5  153   3.276   2.484   2.077 -0.5834  0.0554 -1.4423
    6PEO     H6  154   3.360   2.603   1.976  1.3514 -0.5340 -1.4636
    6PEO     C3  155   3.503   2.494   2.091  0.0607 -0.5805 -0.0062
    6PEO     H7  156   3.578   2.528   2.019  2.1620 -3.7354  0.6153
    6PEO     H8  157   3.511   2.394   2.136 -0.9148 -0.3785  0.6560
    6PEO     O1  158   3.510   2.595   2.197 -0.4295 -0.4219 -0.0946
    6PEO     C4  159   3.493   2.554   2.342  1.1521 -0.3320  0.0515
    6PEO     H9  160   3.530   2.626   2.416  0.1442 -1.2807  1.5189
    6PEO    H10  161   3.539   2.457   2.367  0.5036 -1.5922 -3.3173
    6PEO     C5  162   3.341   2.554   2.374  0.0437  0.2592 -1.0828
    6PEO    H11  163   3.281   2.637   2.335 -2.1569 -0.7746  0.0142
    6PEO    H12  164   3.330   2.561   2.483 -1.4428  0.3712 -1.2437
    6PEO     O2  165   3.278   2.428   2.330  0.2673  0.0481  0.0427
    6PEO     C6  166   3.158   2.399   2.411 -0.0318 -0.0228 -0.5752
    6PEO    H13  167   3.191   2.407   2.516 -2.8245  0.5213  0.3015
    6PEO    H14  168   3.120   2.298   2.392 -0.9506  0.2295 -0.1114
    6PEO     C7  169   3.047   2.506   2.381 -0.1324 -0.0598  0.3892
    6PEO    H15  170   3.050   2.540   2.277  3.7737 -0.1295  0.3898
    6PEO    H16  171   3.071   2.599   2.436 -0.7371  1.1527 -1.3698
    6PEO     O3  172   2.928   2.440   2.420 -0.4604 -0.2279  0.2124
    6PEO     C8  173   2.890   2.426   2.557 -0.0737 -0.0717  0.4197
    6PEO    H17  174   2.975   2.387   2.614  0.4933  1.5118  0.6967
    6PEO    H18  175   2.818   2.344   2.564  0.5224 -0.3881  3.1968
    6PEO     C9  176   2.815   2.559   2.597  0.2849 -0.6627  0.8172
    6PEO    H19  177   2.754   2.546   2.687 -1.5642 -0.0835 -0.3339
    6PEO    H20  178   2.745   2.605   2.527  0.2682  1.8455  2.4332
    6PEO     O4  179   2.928   2.655   2.620 -0.9858  0.2792 -0.7186
    6PEO    C10  180   2.902   2.788   2.675 -0.1058  0.2683 -0.0196
    6PEO    H21  181   3.002   2.835   2.675  0.1867 -0.3460  0.5177
    6PEO    H22  182   2.859   2.771   2.775 -0.1556 -0.5739 -0.1812
    7PET     C9  183   2.795   2.863   2.571  0.4389 -0.1872  1.2143
    7PET     H6  184   2.790   2.970   2.592  1.6345  0.1202  0.0313
    7PET     H7  185   2.694   2.826   2.589  0.5666 -2.3261 -2.0995
    7PET     O2  186   2.843   2.846   2.440 -0.8941  0.1736 -0.0451
    7PET     C8  187   2.935   2.941   2.404  0.3103 -0.3294  0.1276
    7PET     O1  188   2.963   3.035   2.475 -0.1734  0.1376 -0.4787
    7PET     C4  189   2.992   2.919   2.266  0.1586  0.3097 -0.1651
    7PET     C5  190   2.955   2.806   2.196  0.6254 -0.3674 -0.3912
    7PET     C6  191   2.997   2.791   2.062 -0.5657  0.1981 -0.6806
    7PET     H4  192   2.970   2.697   2.014 -0.4239 -0.3911  0.3602
    7PET     H3  193   2.891   2.731   2.243 -0.6174  0.6777 -0.4090
    7PET     C3  194   3.067   3.023   2.197  0.1607 -0.4714 -0.5431
    7PET     H2  195   3.097   3.118   2.239 -0.7638 -1.2384  1.9450
    7PET     C2  196   3.113   2.995   2.062 -0.1236 -0.2704 -0.4832
    7PET     H1  197   3.174   3.064   2.004  0.4639 -0.7132 -0.4030
    7PET     C1  198   3.076   2.877   2.001  0.1975  0.5122  0.2392
    7PET     C7  199   3.145   2.827   1.876  0.4191  0.4073  0.0374
    7PET     O3  200   3.200   2.909   1.800  0.2808 -0.1652  0.7804
    7PET     O4  201   3.144   2.691   1.858 -0.6865 -0.3127 -0.1080
    7PET    C10  202   3.168   2.645   1.719 -0.3255  0.0867 -0.6897
    7PET     H8  203   3.192   2.539   1.713  3.4793  0.5996  3.0224
    7PET     H9  204   3.249   2.702   1.671 -0.7857  1.5150  0.1823
    7PET    C11  205   3.028   2.657   1.641 -0.1646  0.4853 -1.1257
    7PET    H10  206   3.055   2.666   1.535  1.7142  2.6963 -0.5273
    7PET    H11  207   2.978   2.748   1.675  0.7929  0.3991  0.6155
    7PET    C12  208   2.927   2.533   1.672  0.0424 -0.4342 -0.6132
    7PET    H13  209   2.957   2.493   1.769 -1.3192  0.6800  0.2923
    7PET    H14  210   2.949   2.453   1.600 -1.0070 -1.5698  0.3127
    8PET     C9  211   2.777   2.553   1.670  0.6354 -0.2433 -0.2252
    8PET     H6  212   2.736   2.452   1.682  1.6715 -0.2605  3.9918
    8PET     H7  213   2.748   2.577   1.567 -2.2457 -2.3775 -0.0047
    8PET     O2  214   2.732   2.645   1.773  0.0305  0.6034  0.4722
    8PET     C8  215   2.594   2.673   1.764  0.0430 -0.1669 -0.5823
    8PET     O1  216   2.504   2.621   1.699  0.3811 -0.0638 -0.3949
    8PET     C4  217   2.573   2.795   1.857  0.1056  0.4458  0.1699
    8PET     C5  218   2.442   2.854   1.852  0.1918 -0.4582 -0.0397
    8PET     C6  219   2.408   2.957   1.938  0.2759  0.0850  0.2191
    8PET     H4  220   2.306   2.992   1.932  0.8659  1.9630  0.7112
    8PET     H3  221   2.375   2.823   1.772  0.8860 -0.6078 -0.5660
    8PET     C3  222   2.673   2.853   1.940  0.0365 -0.7526  0.2689
    8PET     H2  223   2.775   2.816   1.938 -0.1751 -1.3094 -0.3449
    8PET     C2  224   2.642   2.957   2.026  0.4513 -0.7507  0.5332
    8PET     H1  225   2.719   3.005   2.086  0.2869  0.1489  0.0379
    8PET     C1  226   2.502   2.997   2.034 -0.6659 -0.7607 -0.1647
    8PET     C7  227   2.468   3.110   2.131  0.0502  0.4353  0.0703
    8PET     O3  228   2.394   3.202   2.104 -0.1168  0.3939 -0.0100
    8PET     O4  229   2.549   3.106   2.245  0.0925  0.5330 -0.4012
    8PET    C10  230   2.548   3.220   2.340  0.7133 -0.3510 -0.3099
    8PET     H8  231   2.464   3.216   2.411 -1.8013 -0.5792 -3.1822
    8PET     H9  232   2.539   3.316   2.287 -0.4576  0.0927  0.6849
    8PET    C11  233   2.689   3.238   2.408 -0.3373 -0.9407  0.1047
    8PET    H10  234   2.709   3.141   2.455 -2.2019 -1.3913  0.0262
    8PET    H11  235   2.689   3.320   2.481  0.2581  1.3527 -2.3949
    8PET    C12  236   2.800   3.267   2.308  0.9106  0.1503 -1.5817
    8PET    H13  237   2.819   3.171   2.259  1.9849 -1.6706  2.1851
    8PET    H14  238   2.890   3.282   2.368 -0.0264 -2.7341  0.6870
    9PET     C9  239   2.786   3.387   2.214  0.1260 -0.4276  0.1586
    9PET     H6  240   2.886   3.431   2.204  1.2702 -2.9796 -0.1461
    9PET     H7  241   2.715   3.459   2.257 -0.7344 -0.3213 -1.3760
    9PET     O2  242   2.739   3.360   2.089  0.5269  0.2105 -0.8438
    9PET     C8  243   2.813   3.277   2.007 -0.0551  0.1462 -0.1045
    9PET     O1  244   2.930   3.247   2.030  0.2757 -0.0654 -0.2820
    9PET     C4  245   2.735   3.219   1.889 -0.7660 -0.1303 -1.1629
    9PET     C5  246   2.593   3.235   1.873  0.5562  0.1091  0.2765
    9PET     C6  247   2.528   3.175   1.762  0.0298  0.8901 -0.0101
    9PET     H4  248   2.421   3.191   1.751  0.2289  1.0965 -1.8130
    9PET     H3  249   2.542   3.283   1.956  1.2570  0.1640  0.6758
    9PET     C3  250   2.811   3.140   1.795 -0.4649  0.3908 -0.4279
    9PET     H2  251   2.919   3.134   1.788 -0.4392  1.3467 -0.9306
    9PET     C2  252   2.743   3.075   1.689 -0.8690 -0.7062  0.9620
    9PET     H1  253   2.801   3.016   1.618 -1.5374 -1.2065  0.8309
    9PET     C1  254   2.602   3.090   1.671 -1.0535 -0.2878 -0.0529
    9PET     C7  255   2.551   3.046   1.538  0.6204  0.3733 -0.1562
    9PET     O3  256   2.578   2.939   1.487  0.0026 -0.2673  1.1890
    9PET     O4  257   2.470   3.143   1.470 -0.1614 -0.0210 -0.0411
    9PET    C10  258   2.392   3.086   1.357 -0.7354  0.4838 -1.1101
    9PET     H8  259   2.452   3.021   1.292 -1.5811  0.7446 -2.1640
    9PET     H9  260   2.364   3.172   1.295  2.1878  1.4969 -1.1446
    9PET    C11  261   2.270   3.003   1.420 -0.1005  0.2261 -0.9667
    9PET    H10  262   2.302   2.899   1.432  2.1124  0.9946  0.2193
    9PET    H11  263   2.192   3.014   1.344 -2.8529 -0.4672  1.6631
    9PET    C12  264   2.215   3.052   1.550  0.7468  0.0128  0.4829
    9PET    H13  265   2.197   3.160   1.551  0.5948  0.0081 -0.6904
    9PET    H14  266   2.286   3.033   1.632  0.7697 -0.3084  0.3878
   10PET     C9  267   2.085   2.973   1.590 -0.4006  0.7299  0.6921
   10PET     H6  268   2.097   2.865   1.577  1.6848  0.9890  0.1234
   10PET     H7  269   2.006   3.002   1.521  1.5894  1.1005 -1.5033
   10PET     O2  270   2.044   2.984   1.732 -0.7129 -0.9811 -0.2294
   10PET     C8  271   2.010   3.110   1.772  0.2133 -0.1529  0.2320
   10PET     O1  272   2.001   3.202   1.695  0.0413 -0.5625 -0.2161
   10PET     C4  273   1.972   3.124   1.924  0.4881 -0.2037  0.1823
   10PET     C5  274   1.989   3.008   2.006 -0.0709 -0.9167 -0.6175
   10PET     C6  275   1.939   3.010   2.141 -0.5980 -0.6352  0.0445
   10PET     H4  276   1.937   2.919   2.200  1.4569  0.4104  1.7650
   10PET     H3  277   2.045   2.928   1.959 -1.9641 -1.1194 -2.6467
   10PET     C3  278   1.914   3.242   1.989 -0.1651  0.3429 -1.0579
   10PET     H2  279   1.901   3.335   1.934  1.7698  2.8888  2.6282
   10PET     C2  280   1.870   3.243   2.122 -0.2495 -0.1497  0.5211
   10PET     H1  281   1.825   3.335   2.157  1.4555  1.2290 -0.8316
   10PET     C1  282   1.872   3.122   2.198 -0.0314  0.8338  1.0655
   10PET     C7  283   1.811   3.121   2.340  0.7791 -0.4985  0.7227
   10PET     O3  284   1.748   3.217   2.393 -0.4427 -0.4319 -0.2695
   10PET     O4  285   1.826   2.993   2.402 -0.2618 -0.5783 -0.7525
   10PET    C10  286   1.777   2.964   2.530  0.6623  0.1136  0.4529
   10PET     H8  287   1.671   2.990   2.536  1.1003  2.1329 -0.1769
   10PET     H9  288   1.836   3.033   2.592  0.3850 -0.9031  1.8909
   10PET    C11  289   1.799   2.813   2.556 -0.2776 -0.2730  0.5891
   10PET    H10  290   1.843   2.806   2.656  2.6971  1.6081 -0.5206
   10PET    H11  291   1.873   2.775   2.485 -1.5248 -4.7646  1.5141
   10PET    C12  292   1.670   2.731   2.539  0.3422 -0.2216  0.3414
   10PET    H13  293   1.626   2.750   2.440  2.5682  2.6734 -0.1527
   10PET    H14  294   1.592   2.767   2.606  0.4331  0.4943  0.0604
   11PET     C9  295   1.671   2.584   2.568 -0.4489  0.3919  0.1588
   11PET     H6  296   1.572   2.541   2.546  0.6386 -1.3018 -1.5841
   11PET     H7  297   1.692   2.584   2.676  0.7034 -1.8372 -0.0309
   11PET     O2  298   1.776   2.529   2.487  0.9233 -0.4029  0.4842
   11PET     C8  299   1.811   2.406   2.496 -0.4986  0.9837 -0.1956
   11PET     O1  300   1.786   2.330   2.585 -0.9399 -0.6490  0.4042
   11PET     C4  301   1.924   2.378   2.401  0.8947 -0.3842 -0.9825
   11PET     C5  302   1.965   2.456   2.289 -0.1009  0.1053  1.1346
   11PET     C6  303   2.054   2.405   2.186  0.0020  0.6037  0.2206
   11PET     H4  304   2.099   2.468   2.110  2.0053  1.0663  1.7565
   11PET     H3  305   1.939   2.561   2.285 -0.0899  0.0333 -0.9462
   11PET     C3  306   1.969   2.245   2.406  0.3069 -0.6225 -0.0308
   11PET     H2  307   1.933   2.185   2.489 -1.8995  0.1938 -0.3736
   11PET     C2  308   2.055   2.191   2.314 -0.1075  0.3707  0.5357
   11PET     H1  309   2.090   2.088   2.316 -0.3327  0.2323 -1.3266
   11PET     C1  310   2.094   2.273   2.206 -0.5059 -0.4099 -0.0956
   11PET     C7  311   2.192   2.219   2.102 -0.6311  0.4935 -0.6363
   11PET     O3  312   2.195   2.256   1.985  0.2537  0.5348  0.3338
   11PET     O4  313   2.281   2.134   2.161  0.0243  0.4970 -0.4511
   11PET    C10  314   2.399   2.104   2.093  0.1319  0.8517 -0.4120
   11PET     H8  315   2.478   2.167   2.134  1.3336 -1.4612  0.9107
   11PET     H9  316   2.383   2.121   1.986  2.2667  0.3835 -0.8204
   11PET    C11  317   2.429   1.960   2.131 -0.6695 -0.4308 -0.1020
   11PET    H10  318   2.344   1.893   2.121 -2.9923  2.7231 -2.5202
   11PET    H11  319   2.444   1.957   2.240  2.7381  1.3961 -0.4231
   11PET    C12  320   2.553   1.904   2.049  0.1605  0.1611 -0.3781
   11PET    H13  321   2.528   1.946   1.951 -1.8450 -2.4586 -1.0409
   11PET    H14  322   2.546   1.796   2.033  4.0387 -0.0907 -0.7683
   12PET     C9  323   2.691   1.948   2.090  0.4657 -0.2834  0.2784
   12PET     H6  324   2.709   2.053   2.063  0.3659 -0.1365  0.7808
   12PET     H7  325   2.776   1.911   2.030  2.1796  1.5566  1.4864
   12PET     O2  326   2.716   1.916   2.231  0.8799  0.0784 -0.6219
   12PET     C8  327   2.825   1.968   2.297 -0.0496 -1.0272 -0.0111
   12PET     O1  328   2.910   2.033   2.244  0.1407 -0.0456 -0.7434
   12PET     C4  329   2.830   1.949   2.450  1.3262  0.0598  0.4849
   12PET     C5  330   2.757   1.844   2.516  0.5777  0.4917 -0.7581
   12PET     C6  331   2.753   1.838   2.657  0.4443  0.3265  0.0418
   12PET     H4  332   2.702   1.752   2.700  1.5860 -1.4259 -1.9407
   12PET     H3  333   2.698   1.772   2.459  0.4584  1.4938 -1.9214
   12PET     C3  334   2.906   2.043   2.531  0.3104  0.3970 -0.0752
   12PET     H2  335   2.979   2.116   2.496  0.3617  1.1501  1.5668
   12PET     C2  336   2.900   2.032   2.672 -0.5856  0.4766  0.7046
   12PET     H1  337   2.962   2.095   2.736 -3.3506 -0.4873  4.5055
   12PET     C1  338   2.819   1.942   2.736 -0.1023  0.2633 -0.5598
   12PET     C7  339   2.823   1.939   2.883  0.1929 -0.3827 -0.1510
   12PET     O3  340   2.870   2.025   2.955 -0.6153 -0.0727  0.3523
   12PET     O4  341   2.756   1.831   2.941  0.0568 -0.3288 -0.1582
   12PET    C10  342   2.766   1.810   3.082 -0.0300  0.3721  0.0735
   12PET     H8  343   2.689   1.751   3.133  0.3239 -2.5225 -2.6132
   12PET     H9  344   2.782   1.904   3.136  0.0806  1.5471 -1.9818
   12PET    C11  345   2.896   1.721   3.109 -0.1776  1.0411 -0.1251
   12PET    H10  346   2.899   1.711   3.218 -1.5873 -0.0303 -0.1659
   12PET    H11  347   2.975   1.787   3.071 -1.9727  1.1617 -3.9558
   12PET    C12  348   2.901   1.576   3.055 -0.4072 -0.0225  0.7634
   12PET    H13  349   2.813   1.516   3.079 -3.2141  3.8625  0.7841
   12PET    H14  350   2.985   1.529   3.107 -0.9652 -2.0649 -0.1482
   13PET     C9  351   2.931   1.560   2.911  0.3287 -0.5955 -1.9200
   13PET     H6  352   2.850   1.611   2.856 -1.5679 -3.9565 -2.4077
   13PET     H7  353   2.922   1.454   2.885  0.5031 -0.2613 -3.4034
   13PET     O2  354   3.047   1.636   2.877  0.3464  0.8888 -0.3802
   13PET     C8  355   3.164   1.579   2.894 -0.1909  0.1288 -0.3725
   13PET     O1  356   3.181   1.470   2.948 -0.2029 -0.2217 -0.1655
   13PET     C4  357   3.280   1.674   2.850 -0.5703  0.4577 -0.9765
   13PET     C5  358   3.406   1.646   2.902 -0.0436  0.8312 -0.3854
   13PET     C6  359   3.519   1.724   2.864 -0.0080 -0.0375  0.1606
   13PET     H4  360   3.617   1.696   2.901  0.0451 -1.5064 -1.0246
   13PET     H3  361   3.413   1.561   2.969  2.2983 -0.9033 -2.7318
   13PET     C3  362   3.273   1.778   2.757  0.6072  0.6898  0.8344
   13PET     H2  363   3.170   1.784   2.724  0.0331 -2.1262  1.9269
   13PET     C2  364   3.385   1.846   2.708  0.7813 -0.1745  0.0813
   13PET     H1  365   3.364   1.915   2.627 -1.8122 -1.0654 -0.0497
   13PET     C1  366   3.516   1.821   2.758  0.1132  0.0958 -0.1226
   13PET     C7  367   3.647   1.889   2.703  0.4508 -0.1063  0.2890
   13PET     O3  368   3.763   1.841   2.727 -0.1628 -0.4914 -0.2921
   13PET     O4  369   3.626   2.000   2.626  0.2498 -0.7104  0.2319
   13PET    C10  370   3.747   2.058   2.569 -0.2424 -0.2591  0.0244
   13PET     H8  371   3.797   2.005   2.487  1.7241 -0.0108  1.0456
   13PET     H9  372   3.825   2.070   2.645 -0.0514 -2.5624  0.2247
   13PET    C11  373   3.704   2.196   2.521 -0.4378  0.6143  0.0428
   13PET    H10  374   3.642   2.185   2.431  0.7288  3.1590 -1.1223
   13PET    H11  375   3.797   2.249   2.497  0.5696 -0.8149  0.7663
   13PET    C12  376   3.641   2.287   2.631 -0.6999  0.9483  0.9513
   13PET    H13  377   3.669   2.391   2.612 -1.2743  1.4104  2.5905
   13PET    H14  378   3.679   2.257   2.729 -0.3585  2.8237  1.4093
   14PET     C9  379   3.489   2.280   2.646 -0.4468  0.5374  0.0843
   14PET     H6  380   3.463   2.237   2.548 -0.7065 -0.3126  0.5250
   14PET     H7  381   3.440   2.378   2.653 -0.1647  0.6532  0.4502
   14PET     O2  382   3.461   2.210   2.769  0.1308  0.5416  0.0646
   14PET     C8  383   3.330   2.165   2.794 -0.7268 -0.1796 -0.2917
   14PET     O1  384   3.239   2.179   2.712 -0.1951 -0.3007  0.1812
   14PET     C4  385   3.316   2.104   2.928 -0.3033  0.1395  1.3324
   14PET     C5  386   3.427   2.062   2.999  0.6770 -0.2830  0.8406
   14PET     C6  387   3.415   1.993   3.120 -0.7216 -0.0421 -0.0819
   14PET     H4  388   3.503   1.947   3.165 -0.3521 -1.9509 -2.6518
   14PET     H3  389   3.530   2.074   2.965 -0.1146  2.3981 -0.7170
   14PET     C3  390   3.182   2.083   2.978  0.5853  0.0622 -0.7179
   14PET     H2  391   3.098   2.126   2.925  1.1253  2.2528  0.1445
   14PET     C2  392   3.175   2.004   3.094 -0.8062  0.5327 -0.0736
   14PET     H1  393   3.075   1.988   3.134 -0.9822  2.2022  0.1813
   14PET     C1  394   3.286   1.948   3.153  0.3336  0.1898 -0.0427
   14PET     C7  395   3.261   1.870   3.282  0.5367 -0.0753  0.0882
   14PET     O3  396   3.150   1.838   3.327 -0.2191 -0.0136  0.1074
   14PET     O4  397   3.380   1.829   3.334 -0.1748  0.3341 -0.1576
   14PET    C10  398   3.382   1.768   3.466 -0.5593 -0.2432  0.6897
   14PET     H8  399   3.338   1.667   3.466 -1.3250  0.0784 -0.9279
   14PET     H9  400   3.336   1.835   3.540 -0.6680 -0.6549  0.9944
   14PET    C11  401   3.539   1.764   3.522  0.3678 -0.0769  0.6990
   14PET    H10  402   3.568   1.870   3.517  1.0507 -0.3482 -1.6335
   14PET    H11  403   3.605   1.714   3.450 -2.0641 -0.3343 -1.4329
   14PET    C12  404   3.558   1.709   3.658  0.0180 -0.0020 -0.4000
   14PET    H13  405   3.508   1.773   3.732 -0.9686 -0.6002 -0.5429
   14PET    H14  406   3.664   1.730   3.675 -0.0730  1.5154 -1.5342
   15PET     C9  407   3.497   1.565   3.695  0.5221 -0.2624 -0.0410
   15PET     H6  408   3.532   1.525   3.791  2.8134  0.2834 -0.6386
   15PET     H7  409   3.506   1.505   3.604  0.3129 -1.1870  0.5427
   15PET     O2  410   3.348   1.586   3.701  0.0135 -0.0492  0.1432
   15PET     C8  411   3.259   1.483   3.716 -0.1494  0.7179 -0.2486
   15PET     O1  412   3.293   1.372   3.769 -0.2237  0.4608  0.1371
   15PET     C4  413   3.115   1.506   3.666 -0.5281 -0.4397 -0.5826
   15PET     C5  414   3.071   1.621   3.587 -0.1914  0.3132 -0.3690
   15PET     C6  415   2.932   1.631   3.558  1.0544 -0.3219  0.4069
   15PET     H4  416   2.897   1.710   3.493 -0.8624 -2.6952 -1.5456
   15PET     H3  417   3.134   1.706   3.564 -1.0024  1.5031  1.6668
   15PET     C3  418   3.015   1.412   3.710  0.2642  0.3098 -0.0409
   15PET     H2  419   3.062   1.322   3.748  3.5065  0.2194 -3.9893
   15PET     C2  420   2.886   1.422   3.665  0.0992  0.0568 -0.1133
   15PET     H1  421   2.816   1.339   3.675 -2.0663  1.7599 -0.6380
   15PET     C1  422   2.840   1.527   3.594 -0.4349 -0.3578  0.1076
   15PET     C7  423   2.693   1.543   3.547  0.1576 -0.3159 -0.5948
   15PET     O3  424   2.653   1.639   3.473  0.0116 -0.5601 -0.0447
   15PET     O4  425   2.612   1.439   3.596  0.8883  0.1604  0.6411
   15PET    C10  426   2.476   1.415   3.551  0.3130 -0.3577 -0.1178
   15PET     H8  427   2.433   1.516   3.550  2.0365  0.4409  1.8538
   15PET     H9  428   2.430   1.361   3.635 -2.1038  0.5143 -0.8493
   15PET    C11  429   2.479   1.342   3.419 -0.6531  0.3331  0.0138
   15PET    H10  430   2.489   1.236   3.444  0.3403  0.2535 -0.6951
   15PET    H11  431   2.563   1.382   3.362 -0.9824  0.6860 -0.2304
   15PET    C12  432   2.347   1.348   3.333 -0.3625 -0.2735 -0.7115
   15PET    H13  433   2.331   1.456   3.333  1.7040  0.0570  1.1057
   15PET    H14  434   2.264   1.303   3.388 -1.1172  0.9423 -0.8309
   16PET     C9  435   2.355   1.296   3.186  0.0691  0.0801 -0.3901
   16PET     H6  436   2.265   1.246   3.149  1.3670 -1.8139 -1.0313
   16PET     H7  437   2.434   1.224   3.208 -0.2659 -0.5721 -1.2894
   16PET     O2  438   2.390   1.408   3.108 -0.8176  0.0679  0.1287
   16PET     C8  439   2.373   1.394   2.969  0.3977  0.4777 -0.6376
   16PET     O1  440   2.347   1.284   2.924  0.0756 -0.5461 -0.2246
   16PET     C4  441   2.390   1.521   2.878  0.4298  0.0188  0.1562
   16PET     C5  442   2.462   1.625   2.922  0.2196  0.1380  0.0420
   16PET     C6  443   2.461   1.751   2.852  0.4374  0.2362  0.0528
   16PET     H4  444   2.510   1.840   2.891  0.3922  0.6939 -0.9242
   16PET     H3  445   2.524   1.614   3.011  1.9495 -1.6282 -1.3577
   16PET     C3  446   2.324   1.523   2.757 -0.2180 -0.1273 -0.1005
   16PET     H2  447   2.270   1.437   2.717  0.4043 -0.4815 -0.1886
   16PET     C2  448   2.332   1.635   2.676  0.3939  0.3290 -0.1890
   16PET     H1  449   2.278   1.651   2.583  0.4417  1.9968  0.0442
   16PET     C1  450   2.386   1.756   2.730 -0.2302  0.9945  0.4332
   16PET     C7  451   2.363   1.884   2.652 -0.8101 -0.2137  0.3880
   16PET     O3  452   2.317   1.878   2.538  0.3100 -1.0327 -0.4256
   16PET     O4  453   2.398   2.002   2.707 -0.0010  0.4513 -0.9794
   16PET    C10  454   2.360   2.116   2.630 -0.5352 -0.7137 -0.1012
   16PET     H8  455   2.373   2.201   2.698  3.1087 -2.7510  1.8946
   16PET     H9  456   2.269   2.097   2.571 -1.2765  1.7807  0.1637
   16PET    C11  457   2.475   2.148   2.537  0.1544 -0.7046 -0.3234
   16PET    H10  458   2.487   2.066   2.465 -2.8723 -2.0040  0.5936
   16PET    H11  459   2.562   2.180   2.596  0.1079 -0.5273 -0.3516
   16PET    C12  460   2.454   2.268   2.455  0.0835 -0.3995  0.2466
   16PET    H13  461   2.353   2.266   2.413 -0.3100  2.8513  0.9064
   16PET    H14  462   2.520   2.265   2.367  1.4310 -0.2602  1.2293
   17PET     C9  463   2.483   2.398   2.523 -0.3519  0.4005 -0.2002
   17PET     H6  464   2.471   2.476   2.447  0.0284 -0.6505 -1.3584
   17PET     H7  465   2.586   2.401   2.560 -0.5298 -0.1097  0.3405
   17PET     O2  466   2.389   2.421   2.632 -0.0910 -0.7354 -0.8356
   17PET     C8  467   2.387   2.544   2.680 -0.0268  0.1111  0.2492
   17PET     O1  468   2.464   2.635   2.659 -0.6749  0.1333 -0.5580
   17PET     C4  469   2.272   2.557   2.783 -0.0002 -0.4855  0.8862
   17PET     C5  470   2.208   2.436   2.837 -0.7002  0.2501  0.3508
   17PET     C6  471   2.094   2.448   2.923  0.9237 -0.3733  0.4055
   17PET     H4  472   2.054   2.359   2.971  0.9430 -0.6278 -0.0467
   17PET     H3  473   2.228   2.337   2.795 -2.8852  1.4288 -3.7809
   17PET     C3  474   2.233   2.686   2.835  0.1642  0.0945  0.3899
   17PET     H2  475   2.285   2.775   2.802 -0.3909  0.2837  0.0234
   17PET     C2  476   2.111   2.703   2.906 -0.2314  0.4850 -1.5461
   17PET     H1  477   2.082   2.805   2.930  1.9638  0.5322  1.2764
   17PET     C1  478   2.042   2.583   2.954  0.0753  0.6149 -1.1957
   17PET     C7  479   1.911   2.593   3.020  0.4375 -0.9158 -0.3200
   17PET     O3  480   1.849   2.701   3.010 -0.5107  0.6089 -0.7673
   17PET     O4  481   1.866   2.486   3.097 -0.4859 -0.1991 -0.3905
   17PET    C10  482   1.731   2.483   3.153  0.3447  0.0528  0.4375
   17PET     H8  483   1.659   2.438   3.084  1.7199 -1.9806  0.3054
   17PET     H9  484   1.689   2.584   3.166  1.8903  0.6733  0.7499
   17PET    C11  485   1.743   2.409   3.286  0.3562  1.1012  0.1672
   17PET    H10  486   1.830   2.445   3.342  1.3104 -0.9399  0.0372
   17PET    H11  487   1.768   2.304   3.264 -3.1094  0.1945  0.3230
   17PET    C12  488   1.606   2.413   3.363  0.1805 -0.7510  0.0365
   17PET    H13  489   1.531   2.359   3.305  0.0808 -1.5601  0.9052
   17PET    H14  490   1.563   2.513   3.375  0.9027 -0.4274 -0.0186
   18PET     C9  491   1.613   2.368   3.512 -0.3274 -0.2794 -0.0016
   18PET     H6  492   1.696   2.297   3.515  1.4894  1.6976 -1.9108
   18PET     H7  493   1.515   2.323   3.533 -1.6109  1.3012 -2.4912
   18PET     O2  494   1.634   2.487   3.582 -0.5293 -0.4005  0.4197
   18PET     C8  495   1.645   2.491   3.719 -0.6250  0.3198 -0.0191
   18PET     O1  496   1.615   2.399   3.793 -0.6572  0.1894 -0.6854
   18PET     C4  497   1.702   2.622   3.764 -0.1325  0.3398 -0.5760
   18PET     C5  498   1.698   2.736   3.684 -0.0006  0.6573  0.0513
   18PET     C6  499   1.726   2.861   3.731  0.7393  0.7182  0.3048
   18PET     H4  500   1.724   2.950   3.669  0.2468 -1.0277 -2.2431
   18PET     H3  501   1.663   2.726   3.581 -0.7809 -0.1396  0.3916
   18PET     C3  502   1.747   2.631   3.899 -0.3367 -0.4094 -1.2061
   18PET     H2  503   1.769   2.541   3.957 -2.7494  0.9355  1.9356
   18PET     C2  504   1.765   2.760   3.946  0.2935 -0.7374 -0.4746
   18PET     H1  505   1.786   2.777   4.051 -1.9778 -0.9014  0.0272
   18PET     C1  506   1.748   2.876   3.868  0.4677 -0.5367 -0.0595
   18PET     C7  507   1.751   3.008   3.932 -0.0041  0.8133 -0.2055
   18PET     O3  508   1.791   3.022   4.048 -0.4329  0.1411 -0.5443
   18PET     O4  509   1.714   3.113   3.845 -0.0736  0.5048  0.3098
   18PET    C10  510   1.742   3.248   3.898 -0.4916 -0.8318 -0.3961
   18PET     H8  511   1.733   3.251   4.008  0.6506  1.3983 -0.3202
   18PET     H9  512   1.674   3.323   3.855  1.7577  1.4751 -0.1103
   18PET    C11  513   1.883   3.285   3.849 -0.2112 -0.5017  0.7560
   18PET    H10  514   1.874   3.298   3.741  1.0294  1.8299  0.9010
   18PET    H11  515   1.942   3.192   3.849  0.1507 -0.2777 -0.3787
   18PET    C12  516   1.963   3.405   3.930  0.1920  0.6525 -0.8682
   18PET    H13  517   1.938   3.408   4.036  2.1129 -1.7976 -0.3021
   18PET    H14  518   1.946   3.501   3.881  1.1107  2.5500  2.3738
   19PET     C9  519   2.113   3.368   3.930  0.1110  0.3244 -0.0898
   19PET     H6  520   2.173   3.432   3.995  0.8771  0.0442 -0.5121
   19PET     H7  521   2.159   3.372   3.830  2.8674  3.1994  1.1951
   19PET     O2  522   2.124   3.234   3.975  0.4871 -0.7090  0.0903
   19PET     C8  523   2.254   3.175   3.977 -0.1005  0.1128 -0.3463
   19PET     O1  524   2.358   3.234   3.962  0.1366 -0.5927  0.2436
   19PET     C4  525   2.254   3.031   3.977  0.3995  0.8249 -0.5435
   19PET     C5  526   2.136   2.956   3.959 -0.9149 -0.1038  0.4339
   19PET     C6  527   2.119   2.824   3.978 -1.2719  0.4245  0.4854
   19PET     H4  528   2.020   2.782   3.962 -0.9693 -0.4990  1.0321
   19PET     H3  529   2.048   3.013   3.929 -0.8370 -1.2928 -2.1853
   19PET     C3  530   2.365   2.969   4.044  0.5940 -0.0190 -1.0866
   19PET     H2  531   2.454   3.025   4.073  1.9813 -2.7608  0.1553
   19PET     C2  532   2.352   2.828   4.061 -0.1722  0.3064  0.0389
   19PET     H1  533   2.438   2.773   4.098 -1.2465 -1.8020 -0.5065
   19PET     C1  534   2.226   2.758   4.035  0.7191  0.1043 -0.8384
   19PET     C7  535   2.216   2.613   4.076  0.7504 -0.3073 -0.4514
   19PET     O3  536   2.309   2.549   4.121  0.0305 -0.4447  0.1958
   19PET     O4  537   2.093   2.556   4.051 -0.2144  0.0264  0.2773
   19PET    C10  538   2.068   2.425   4.100  1.0376 -0.8552 -0.2933
   19PET     H8  539   1.961   2.403   4.107  0.7246  0.6330 -0.2835
   19PET     H9  540   2.109   2.400   4.199 -2.3863  0.0740  1.4214
   19PET    C11  541   2.136   2.325   4.008  0.3891 -0.0914 -0.1973
   19PET    H10  542   2.123   2.231   4.064  1.7026 -0.3293 -0.2788
   19PET    H11  543   2.242   2.343   3.987  0.2091 -0.2879 -1.2849
   19PET    C12  544   2.038   2.304   3.875 -0.1928 -0.1173 -0.5432
   19PET    H13  545   1.931   2.319   3.897 -0.2957  0.6946 -1.5472
   19PET    H14  546   2.057   2.199   3.849 -0.3199 -0.7072  1.5969
   20PET     C9  547   2.064   2.395   3.748 -0.2625 -0.3368  0.2307
   20PET     H6  548   2.162   2.443   3.759 -0.7825  0.8796 -0.3441
   20PET     H7  549   1.992   2.475   3.732  2.2480  2.1854  1.2357
   20PET     O2  550   2.070   2.304   3.648  0.4921  0.5998  0.2581
   20PET     C8  551   2.081   2.344   3.517 -0.4518  0.2056  0.6554
   20PET     O1  552   2.129   2.447   3.483 -0.1494  0.1270  0.1030
   20PET     C4  553   2.033   2.235   3.419 -0.4100  0.3435  0.3259
   20PET     C5  554   1.938   2.140   3.449  0.3946 -0.6919 -0.0396
   20PET     C6  555   1.895   2.046   3.366  0.2916  0.2560 -0.8518
   20PET     H4  556   1.834   1.965   3.403 -1.6460  1.7905 -0.6202
   20PET     H3  557   1.888   2.151   3.545 -1.4985 -1.0549 -0.9483
   20PET     C3  558   2.061   2.243   3.290 -0.1511 -0.4760 -0.1898
   20PET     H2  559   2.119   2.330   3.258  0.3541  0.0477  2.0513
   20PET     C2  560   2.037   2.141   3.195  0.0361 -0.1143  0.1193
   20PET     H1  561   2.052   2.162   3.089 -0.4476  0.8503  0.2416
   20PET     C1  562   1.950   2.037   3.234  0.2125 -0.8343  0.0067
   20PET     C7  563   1.890   1.947   3.133  0.5049 -0.2654  0.5080
   20PET     O3  564   1.874   1.977   3.013 -0.5550  0.0197 -0.5206
   20PET     O4  565   1.857   1.824   3.180  0.9753 -0.6829  0.4734
   20PET    C10  566   1.790   1.715   3.104  1.2261 -0.3407  0.2437
   20PET     H8  567   1.714   1.774   3.052  2.1160  2.1708  1.7132
   20PET     H9  568   1.746   1.640   3.170 -5.1799  1.1330 -2.0260
   20PET    C11  569   1.894   1.660   2.996  0.9626 -1.4525  1.5147
   20PET    H10  570   1.936   1.737   2.931 -0.1544 -1.8460  0.2992
   20PET    H11  571   1.824   1.612   2.925  0.3891  0.5895  0.6599
   20PET    C12  572   2.004   1.565   3.036  0.4533  0.0806 -0.5640
   20PET    H13  573   2.077   1.545   2.958  0.2528  1.8581 -1.2276
   20PET    H14  574   1.964   1.466   3.062  1.7700 -0.2688  0.1972
   21PET     C9  575   2.080   1.614   3.169 -0.1220  0.0190  0.5125
   21PET     H6  576   2.150   1.539   3.206 -1.2030 -0.2538  2.0518
   21PET     H7  577   2.018   1.650   3.252  1.0419 -0.4894  1.6104
   21PET     O2  578   2.168   1.719   3.120  0.2844  0.2763  0.3279
   21PET     C8  579   2.229   1.793   3.213  0.6472 -0.6782 -0.1891
   21PET     O1  580   2.223   1.769   3.336 -0.1238 -0.2458 -0.1244
   21PET     C4  581   2.316   1.903   3.157  0.5118 -0.2329 -1.1099
   21PET     C5  582   2.423   1.962   3.229 -0.1085  0.5971 -0.3986
   21PET     C6  583   2.495   2.063   3.178  0.5917 -0.2911 -1.0114
   21PET     H4  584   2.559   2.117   3.246 -4.1056  1.0393  2.5987
   21PET     H3  585   2.448   1.920   3.326  1.2708 -0.9133 -1.3821
   21PET     C3  586   2.271   1.961   3.035 -0.1503  1.0834 -0.1786
   21PET     H2  587   2.182   1.928   2.982 -0.4686  0.0300  0.9965
   21PET     C2  588   2.357   2.057   2.979  0.2219  0.0929 -0.2348
   21PET     H1  589   2.334   2.113   2.889  1.8289  1.8849  0.4351
   21PET     C1  590   2.467   2.106   3.050  0.0406 -0.9785 -0.4270
   21PET     C7  591   2.545   2.222   2.989  0.2119 -0.2254 -0.3524
   21PET     O3  592   2.536   2.260   2.870  0.0682 -0.2960  0.3601
   21PET     O4  593   2.609   2.300   3.080 -0.1693 -0.0774  0.1904
   21PET    C10  594   2.703   2.409   3.032  0.2751  0.0842 -0.4791
   21PET     H8  595   2.761   2.360   2.952  0.6377 -0.1590 -0.0721
   21PET     H9  596   2.764   2.438   3.119  0.3622  0.0724 -0.5352
   21PET    C11  597   2.636   2.533   2.969 -0.5430 -0.4366 -0.8099
   21PET    H10  598   2.606   2.517   2.865 -0.2721 -0.5757 -0.8672
   21PET    H11  599   2.715   2.609   2.970 -3.0920  2.3427  3.7890
   21PET    C12  600   2.511   2.584   3.041 -0.0909 -0.8025 -0.0313
   21PET    H13  601   2.425   2.519   3.022 -0.1223 -1.0611  0.9694
   21PET    H14  602   2.468   2.676   2.998 -0.3077 -0.7050  0.3922
   22PET     C9  603   2.532   2.605   3.189 -0.2916 -0.3961 -0.0178
   22PET     H6  604   2.629   2.653   3.211 -1.5131  1.2708  1.9812
   22PET     H7  605   2.519   2.510   3.241 -0.2711 -0.5176 -0.2366
   22PET     O2  606   2.425   2.703   3.223  0.3222 -0.1345 -0.3903
   22PET     C8  607   2.301   2.644   3.241 -1.1212  0.6346  0.1185
   22PET     O1  608   2.279   2.527   3.263 -0.2565 -0.4862 -0.0255
   22PET     C4  609   2.193   2.741   3.261 -0.1812  0.1242 -0.8909
   22PET     C5  610   2.217   2.878   3.246  0.2157  0.2923 -0.2432
   22PET     C6  611   2.107   2.972   3.249  0.1534  0.4289 -0.1715
   22PET     H4  612   2.125   3.079   3.239  1.4284  0.1226 -1.2622
   22PET     H3  613   2.316   2.916   3.222 -0.4389  3.2783  1.5560
   22PET     C3  614   2.061   2.707   3.290  0.9735  0.1189 -0.3514
   22PET     H2  615   2.034   2.603   3.301  1.1734  0.1722  0.7257
   22PET     C2  616   1.950   2.795   3.301 -0.5935 -0.3553  0.2217
   22PET     H1  617   1.860   2.759   3.349 -2.8240 -1.1904 -4.3783
   22PET     C1  618   1.977   2.931   3.289 -0.6654 -1.2448 -0.7543
   22PET     C7  619   1.854   3.017   3.317 -0.4424  0.5147 -0.0110
   22PET     O3  620   1.752   2.978   3.379 -0.3476 -0.2457  0.0745
   22PET     O4  621   1.864   3.146   3.266 -0.3212  0.0978 -0.6367
   22PET    C10  622   1.779   3.248   3.309 -0.7974  0.0202 -0.1318
   22PET     H8  623   1.775   3.265   3.417 -1.5912  2.8335 -0.5568
   22PET     H9  624   1.674   3.225   3.291 -0.5969 -0.1345 -1.1640
   22PET    C11  625   1.815   3.385   3.241 -0.1904 -0.2281  0.5347
   22PET    H10  626   1.717   3.434   3.227  1.3809  3.2186  1.1399
   22PET    H11  627   1.831   3.372   3.134  2.4648  0.5428  0.7965
   22PET    C12  628   1.925   3.481   3.309 -0.2358  0.1033  0.2161
   22PET    H13  629   1.933   3.577   3.257  1.0660  0.9084  1.8660
   22PET    H14  630   2.023   3.444   3.276  0.4090  0.4417  1.7242
   23PET     C9  631   1.935   3.514   3.464  0.2023  0.3129 -0.3447
   23PET     H6  632   1.835   3.547   3.495  1.6727  1.4803  3.4912
   23PET     H7  633   2.006   3.596   3.476 -0.1669  1.0804 -3.1446
   23PET     O2  634   1.984   3.393   3.537 -0.6203 -0.1685  0.5642
   23PET     C8  635   2.124   3.367   3.541  0.3953  0.1023  0.1107
   23PET     O1  636   2.208   3.435   3.493  0.0155 -0.0278  0.0556
   23PET     C4  637   2.150   3.225   3.589 -1.1104 -0.7375  0.5663
   23PET     C5  638   2.276   3.196   3.655  0.1570  0.3619 -0.1723
   23PET     C6  639   2.300   3.062   3.686  0.2833 -0.3574  0.1171
   23PET     H4  640   2.394   3.042   3.737  1.5306 -1.0644 -2.3609
   23PET     H3  641   2.348   3.275   3.674  2.1265 -1.4007  0.0114
   23PET     C3  642   2.061   3.126   3.558 -0.0115 -0.3006 -0.1396
   23PET     H2  643   1.981   3.159   3.493 -1.8080 -0.7947  1.7523
   23PET     C2  644   2.093   2.987   3.586  0.1316  0.7986 -0.3699
   23PET     H1  645   2.031   2.899   3.571  1.1095 -0.0149  0.2968
   23PET     C1  646   2.214   2.960   3.643 -0.4059 -1.3214  0.1384
   23PET     C7  647   2.243   2.818   3.676  0.4399  0.6886  1.1425
   23PET     O3  648   2.162   2.730   3.684  0.1210 -0.4529  0.0010
   23PET     O4  649   2.380   2.796   3.704  0.5689 -0.3804 -0.1594
   23PET    C10  650   2.425   2.670   3.752 -0.5538  0.9070  0.7300
   23PET     H8  651   2.346   2.618   3.808 -1.0319  1.5945  0.7011
   23PET     H9  652   2.503   2.678   3.828  1.9117  0.9408 -1.7101
   23PET    C11  653   2.474   2.574   3.640 -1.0522  0.6557 -0.0633
   23PET    H10  654   2.415   2.565   3.548 -1.4255  1.2272  0.1183
   23PET    H11  655   2.472   2.480   3.697  1.6549  0.3353 -0.4416
   23PET    C12  656   2.623   2.586   3.604  0.9416  0.3827  0.1081
   23PET    H13  657   2.643   2.499   3.540  0.5299  0.1126  0.3442
   23PET    H14  658   2.690   2.581   3.691 -1.1076 -1.0229  1.6972
   24PET     C9  659   2.652   2.714   3.524 -0.0693 -0.2135 -1.0207
   24PET     H6  660   2.645   2.801   3.591  2.1867 -0.0862 -0.9199
   24PET     H7  661   2.575   2.731   3.448  0.7910  0.7095 -1.7047
   24PET     O2  662   2.787   2.709   3.463  0.6884 -0.3208  0.2661
   24PET     C8  663   2.896   2.727   3.548 -0.7441  0.0834  0.4934
   24PET     O1  664   2.886   2.732   3.663 -0.3406  0.0469 -0.1319
   24PET     C4  665   3.029   2.735   3.489  0.6432  0.1696  0.2184
   24PET     C5  666   3.045   2.753   3.351  1.1874  0.0033  0.0921
   24PET     C6  667   3.173   2.745   3.290  0.5566  0.4926  0.0533
   24PET     H4  668   3.188   2.760   3.184 -1.5149 -5.3258 -1.2536
   24PET     H3  669   2.957   2.783   3.294 -0.7591 -2.2218  1.8067
   24PET     C3  670   3.152   2.741   3.572 -0.1139 -0.2397  0.4218
   24PET     H2  671   3.153   2.755   3.680  5.0294  0.4931  0.4236
   24PET     C2  672   3.282   2.739   3.510  0.1596 -0.7394  0.3906
   24PET     H1  673   3.374   2.743   3.567  2.3180 -3.4482 -2.7340
   24PET     C1  674   3.291   2.737   3.372 -0.0539  0.6877  0.7038
   24PET     C7  675   3.430   2.736   3.306  0.1148  0.4657  0.4776
   24PET     O3  676   3.536   2.698   3.353 -1.0801 -0.5692 -0.3832
   24PET     O4  677   3.425   2.778   3.171 -0.0304 -0.4756  0.1387
   24PET    C10  678   3.544   2.771   3.088  0.4909 -0.6882 -0.5870
   24PET     H8  679   3.586   2.670   3.099  0.1861 -0.5272  2.2344
   24PET     H9  680   3.611   2.856   3.107  0.6176 -0.6614 -1.1326
   24PET    C11  681   3.495   2.780   2.945 -0.4467  0.3954  0.6719
   24PET    H10  682   3.580   2.771   2.876 -2.3685 -0.8412 -1.6074
   24PET    H11  683   3.440   2.871   2.920 -1.1329 -0.5985 -1.6353
   24PET    C12  684   3.393   2.672   2.889 -0.4112  0.1285  0.0017
   24PET    H13  685   3.310   2.672   2.961 -0.7948 -2.4550 -0.3847
   24PET    H14  686   3.424   2.567   2.883 -0.2836  0.2712 -2.0554
   25PEO     C1  687   3.352   2.703   2.740 -0.5115  0.0839  0.5543
   25PEO     H3  688   3.297   2.615   2.703 -2.4710  2.2947 -1.9393
   25PEO     H4  689   3.438   2.707   2.672 -2.2576  1.1433 -1.6506
   25PEO      O  690   3.272   2.817   2.739 -0.1735  1.2702  0.0208
   25PEO     C2  691   3.253   2.878   2.609 -0.8056 -1.1684 -0.4905
   25PEO     H5  692   3.160   2.937   2.608 -0.1185 -0.0718 -0.4060
   25PEO     H6  693   3.243   2.802   2.530  1.6581 -1.3481 -0.6597
   25PEO     C3  694   3.368   2.978   2.576  0.0080  0.0422 -0.2141
   25PEO     H7  695   3.399   3.017   2.674 -2.0293 -1.0496  0.8884
   25PEO     H8  696   3.332   3.058   2.511  2.9509  1.8574  0.2871
   25PEO     O1  697   3.479   2.906   2.518  0.0987  0.2631  0.0320
   25PEO     C4  698   3.606   2.938   2.581  0.3382  0.8235  0.6549
   25PEO     H9  699   3.603   2.935   2.690 -1.1682  1.8617  0.6451
   25PEO    H10  700   3.634   3.040   2.553  1.5936  0.5764  0.9618
   25PEO     C5  701   3.711   2.829   2.545 -0.4309 -0.2387 -0.2847
   25PEO    H11  702   3.809   2.878   2.538  0.5047 -1.9819  0.3839
   25PEO    H12  703   3.667   2.789   2.452 -0.0593 -0.9447 -0.1623
   25PEO     O2  704   3.709   2.722   2.653  0.4670  0.1698 -0.0375
   25PEO     C6  705   3.817   2.640   2.659  0.3677  0.3431 -0.4745
   25PEO    H13  706   3.910   2.691   2.631  0.5664  0.8209  1.0283
   25PEO    H14  707   3.796   2.565   2.582  0.6413  1.2288 -1.4136
   25PEO     C7  708   3.817   2.582   2.802 -0.2159  0.0064 -0.4549
   25PEO    H15  709   3.858   2.480   2.809 -1.1295 -0.3631 -0.3909
   25PEO    H16  710   3.713   2.574   2.833  0.2560  3.0641  2.1701
   25PEO     O3  711   3.866   2.674   2.903  0.2474  0.0461 -0.3587
   25PEO     C8  712   4.006   2.651   2.952 -0.3946 -0.1287  0.2342
   25PEO    H17  713   4.045   2.745   2.993  1.0460 -0.8494  0.5492
   25PEO    H18  714   4.067   2.628   2.864 -0.5503  0.7109 -0.0990
   25PEO     C9  715   4.011   2.546   3.059 -0.6916 -0.5998 -0.1998
   25PEO    H19  716   3.983   2.600   3.150 -0.4570  0.3183 -0.6696
   25PEO    H20  717   4.118   2.520   3.065 -0.8984 -1.5865 -0.6520
   25PEO     O4  718   3.923   2.434   3.029 -1.0326 -0.3943 -0.6298
   25PEO    C10  719   3.925   2.331   3.133  0.2425 -0.5969  1.1479
   25PEO    H21  720   3.891   2.385   3.223 -1.4637  1.2511 -0.5568
   25PEO    H22  721   4.023   2.284   3.147  1.9246  1.8893 -1.5290
   26PET     C9  722   3.827   2.217   3.107  0.8139  0.6006 -0.7637
   26PET     H6  723   3.860   2.136   3.172 -0.2160 -0.0787 -1.0590
   26PET     H7  724   3.831   2.172   3.007 -0.9194  3.2415 -2.1031
   26PET     O2  725   3.688   2.260   3.126  0.0991  0.3613 -0.1495
   26PET     C8  726   3.648   2.277   3.255  0.5286 -0.1384 -0.2307
   26PET     O1  727   3.721   2.242   3.346 -0.1039 -0.2697  0.4784
   26PET     C4  728   3.507   2.326   3.268  0.3576  0.3323  0.1715
   26PET     C5  729   3.433   2.367   3.155 -0.2878  0.1685 -0.4761
   26PET     C6  730   3.300   2.401   3.153  0.6214  0.1915  0.2801
   26PET     H4  731   3.253   2.443   3.065 -0.0950 -0.4440  0.3516
   26PET     H3  732   3.482   2.386   3.060  1.9172 -0.9921  0.3840
   26PET     C3  733   3.432   2.299   3.388 -0.1394 -0.4332 -0.1566
   26PET     H2  734   3.473   2.246   3.474  0.8175 -0.7195 -0.7802
   26PET     C2  735   3.300   2.325   3.385 -0.5698  0.0962  0.8365
   26PET     H1  736   3.241   2.305   3.474 -0.3811 -0.9788  0.7345
   26PET     C1  737   3.230   2.382   3.269 -0.3692 -0.7297 -1.1083
   26PET     C7  738   3.084   2.422   3.281 -0.3178 -0.0681  0.3832
   26PET     O3  739   3.017   2.472   3.194  0.1655  0.0845 -0.3978
   26PET     O4  740   3.033   2.385   3.405 -0.0785  0.2232  0.7382
   26PET    C10  741   2.894   2.374   3.432  0.3655  0.2688  0.1450
   26PET     H8  742   2.833   2.452   3.384  0.9601  0.5003 -0.2306
   26PET     H9  743   2.877   2.374   3.540  0.6073 -3.1320  0.2196
   26PET    C11  744   2.831   2.243   3.378  0.1882 -0.0850  0.1751
   26PET    H10  745   2.814   2.253   3.271 -1.5192 -1.4822  0.2854
   26PET    H11  746   2.728   2.242   3.418  0.0158  0.5416 -0.2434
   26PET    C12  747   2.906   2.114   3.422 -0.4969 -0.0573 -0.3294
   26PET    H13  748   3.008   2.127   3.386 -0.7816 -0.9958 -1.5288
   26PET    H14  749   2.865   2.041   3.351  0.1971  1.2614 -2.1199
   27PET     C9  750   2.909   2.064   3.565 -0.1478  0.0348 -0.0877
   27PET     H6  751   2.952   1.965   3.584 -0.4193  0.4244  2.8069
   27PET     H7  752   2.805   2.047   3.595  1.0256  0.9746  5.0335
   27PET     O2  753   2.965   2.175   3.647 -0.5276 -0.1007  0.2885
   27PET     C8  754   3.099   2.184   3.677 -0.2428  0.0118  0.4129
   27PET     O1  755   3.182   2.106   3.631 -0.8586 -0.2669  0.0616
   27PET     C4  756   3.143   2.303   3.754 -0.4450 -0.6968 -0.2157
   27PET     C5  757   3.049   2.391   3.804  0.3699  0.1323 -0.8552
   27PET     C6  758   3.075   2.508   3.870  0.0331  0.0077 -0.6917
   27PET     H4  759   2.989   2.567   3.900  0.4262 -0.2741  1.0353
   27PET     H3  760   2.944   2.369   3.789  0.7966 -2.9365  0.3127
   27PET     C3  761   3.277   2.341   3.772 -0.1076  0.0847  0.2554
   27PET     H2  762   3.352   2.279   3.724  0.7275  0.8974  0.4921
   27PET     C2  763   3.315   2.466   3.827 -0.4569 -0.4781  0.1904
   27PET     H1  764   3.423   2.478   3.838 -0.1540 -1.7863 -1.2305
   27PET     C1  765   3.213   2.553   3.880 -0.5775  0.9246 -0.0973
   27PET     C7  766   3.251   2.690   3.923 -0.3302  0.7331 -0.3234
   27PET     O3  767   3.357   2.742   3.894  0.1444 -0.4277  0.2643
   27PET     O4  768   3.149   2.762   3.982 -0.0049 -0.5155  0.0666
   27PET    C10  769   3.162   2.903   4.030  0.1962 -0.4970 -0.6541
   27PET     H8  770   3.184   2.971   3.947  2.6558 -0.7454 -0.2309
   27PET     H9  771   3.238   2.924   4.106  1.5213 -0.5686 -1.9401
   27PET    C11  772   3.025   2.940   4.084  0.6391 -0.5558  0.4451
   27PET    H10  773   3.041   3.045   4.113  1.7871  0.3090 -2.9976
   27PET    H11  774   2.997   2.878   4.169 -0.4221 -0.9724 -0.2086
   27PET    C12  775   2.916   2.943   3.975  0.5379  0.2493  0.5784
   27PET    H13  776   2.932   2.853   3.914 -1.3822  2.8397 -3.9366
   27PET    H14  777   2.914   3.033   3.914 -1.3574  1.3527  2.2156
   28PEO     C1  778   2.774   2.931   4.023  0.4534 -0.1231  0.3070
   28PEO     H3  779   2.701   2.950   3.944 -0.3998  0.6977  1.2749
   28PEO     H4  780   2.759   3.006   4.101 -2.9511 -0.3175 -0.0988
   28PEO      O  781   2.733   2.806   4.086 -0.8255  0.2169  0.2991
   28PEO     C2  782   2.740   2.698   3.997 -0.0798  1.1740  0.4850
   28PEO     H5  783   2.837   2.648   3.987 -1.0731 -0.2301 -2.6111
   28PEO     H6  784   2.717   2.728   3.895 -2.6313 -1.5655  0.2152
   28PEO     C3  785   2.653   2.586   4.046 -0.5531  0.1286 -0.0163
   28PEO     H7  786   2.545   2.604   4.057 -0.6778 -1.0845  0.8101
   28PEO     H8  787   2.683   2.575   4.151  0.3831 -1.6460 -0.4603
   28PEO     O1  788   2.682   2.476   3.957 -0.3254  0.2688  0.6515
   28PEO     C4  789   2.600   2.360   3.990  0.7325  0.1023  0.0972
   28PEO     H9  790   2.494   2.373   3.963  0.5395  1.8019  1.5587
   28PEO    H10  791   2.613   2.331   4.095 -2.3982  0.3745  0.5965
   28PEO     C5  792   2.650   2.238   3.902 -0.0296 -0.4287 -0.5629
   28PEO    H11  793   2.638   2.149   3.967  0.5954 -2.9050 -3.7241
   28PEO    H12  794   2.756   2.263   3.893 -0.3251 -0.1356 -3.4721
   28PEO     O2  795   2.584   2.233   3.781  1.0214 -0.1336 -0.4242
   28PEO     C6  796   2.459   2.168   3.782 -0.8004 -0.3242 -0.9079
   28PEO    H13  797   2.384   2.222   3.841 -2.3059 -2.0700 -1.1857
   28PEO    H14  798   2.461   2.067   3.824 -4.3101  1.3043  3.5332
   28PEO     C7  799   2.408   2.168   3.632  0.4912  0.2869  0.1181
   28PEO    H15  800   2.401   2.268   3.588  0.3652  0.1754 -0.1149
   28PEO    H16  801   2.308   2.124   3.642  0.4022  0.1467 -1.2207
   28PEO     O3  802   2.494   2.079   3.556  0.6330 -0.3205 -0.3176
   28PEO     C8  803   2.505   1.943   3.605 -0.1552 -0.3759 -0.3466
   28PEO    H17  804   2.546   1.936   3.706 -2.4106  1.9473  0.7885
   28PEO    H18  805   2.577   1.891   3.541  0.5664 -1.0252  0.9736
   28PEO     C9  806   2.370   1.875   3.584 -0.7446  1.3517 -0.2835
   28PEO    H19  807   2.404   1.772   3.575 -1.0004  1.2937 -0.6276
   28PEO    H20  808   2.317   1.905   3.493  1.3298  3.3868 -0.8942
   28PEO     O4  809   2.297   1.894   3.702 -0.3017 -1.1371  0.5377
   28PEO    C10  810   2.174   1.812   3.721  0.2093  0.2972 -0.0964
   28PEO    H21  811   2.201   1.709   3.747  1.9261  0.9268  0.7126
   28PEO    H22  812   2.102   1.814   3.639  0.4195 -1.7542 -0.3529
   29PEO     C1  813   2.110   1.862   3.850  1.1487  0.2878 -1.0061
   29PEO     H3  814   2.006   1.830   3.840  0.6118  1.2278  1.1917
   29PEO     H4  815   2.107   1.972   3.850 -1.9110  0.2407 -1.8111
   29PEO      O  816   2.173   1.811   3.976 -0.0727  0.8155 -0.2514
   29PEO     C2  817   2.300   1.861   4.016  0.2919 -0.1850 -0.8643
   29PEO     H5  818   2.289   1.965   4.049  0.9069  0.0146 -1.2954
   29PEO     H6  819   2.372   1.859   3.934 -0.1097  0.8597 -1.2514
   29PEO     C3  820   2.348   1.786   4.155 -0.0970 -0.4033  0.8333
   29PEO     H7  821   2.336   1.677   4.148  2.4491 -0.5826 -1.6401
   29PEO     H8  822   2.296   1.814   4.248  0.5578  0.6543  0.8880
   29PEO     O1  823   2.484   1.823   4.176 -0.2666 -0.1852 -0.2697
   29PEO     C4  824   2.578   1.729   4.136 -0.2225 -0.2846  0.2086
   29PEO     H9  825   2.535   1.680   4.048 -0.7824  1.5996 -0.5718
   29PEO    H10  826   2.584   1.657   4.219 -1.9330 -1.5222 -0.7074
   29PEO     C5  827   2.716   1.787   4.099  0.1621 -0.0980 -0.2832
   29PEO    H11  828   2.777   1.814   4.187  0.4783 -1.2313 -0.1415
   29PEO    H12  829   2.702   1.878   4.039  0.2751  0.1331  0.0376
   29PEO     O2  830   2.793   1.692   4.031 -0.2562  0.1330 -0.1497
   29PEO     C6  831   2.927   1.737   3.992 -0.8969 -0.2848 -0.3132
   29PEO    H13  832   2.996   1.659   3.958 -1.2805 -1.1302  0.8191
   29PEO    H14  833   2.985   1.787   4.071 -0.7271  1.9553 -1.7965
   29PEO     C7  834   2.923   1.840   3.887  0.0354 -0.1861  0.1781
   29PEO    H15  835   2.877   1.931   3.927  0.4270  0.1234 -0.0604
   29PEO    H16  836   2.861   1.794   3.809  1.9516 -1.0482 -0.8849
   29PEO     O3  837   3.053   1.871   3.831  0.4728 -0.0964  0.3907
   29PEO     C8  838   3.160   1.930   3.905 -0.4748  0.6905  0.1626
   29PEO    H17  839   3.231   1.972   3.832 -0.6531 -3.8576 -2.8728
   29PEO    H18  840   3.212   1.856   3.967  0.9635  2.5211  1.1891
   29PEO     C9  841   3.104   2.050   3.983 -0.2966 -0.2632  0.3053
   29PEO    H19  842   3.016   2.095   3.935 -0.2532 -1.1220 -0.5816
   29PEO    H20  843   3.174   2.135   3.985  2.2055 -2.2973  2.4776
   29PEO     O4  844   3.071   2.014   4.118  0.3305  0.4536  0.7177
   29PEO    C10  845   3.166   2.056   4.222 -0.0495  0.5291 -0.1078
   29PEO    H21  846   3.272   2.057   4.191 -0.0280 -0.6880 -0.0672
   29PEO    H22  847   3.155   1.999   4.314  1.4146  0.3455 -0.0249
   30PET     C9  848   3.116   2.202   4.255  0.5113  0.0081  0.5015
   30PET     H6  849   3.129   2.259   4.163 -0.6173 -0.2892  0.1462
   30PET     H7  850   3.182   2.239   4.335 -2.1730  1.1173  2.2794
   30PET     O2  851   2.981   2.187   4.298 -0.2603  0.0035  0.2158
   30PET     C8  852   2.913   2.305   4.322 -1.1365 -0.7094 -0.8543
   30PET     O1  853   2.970   2.417   4.339 -0.0250 -0.4648 -0.3272
   30PET     C4  854   2.770   2.293   4.342 -1.0760  0.0429 -0.0334
   30PET     C5  855   2.696   2.174   4.323 -0.3240  0.0572  0.6261
   30PET     C6  856   2.563   2.154   4.352  0.5202  0.1058 -0.2768
   30PET     H4  857   2.520   2.055   4.341  1.2456 -0.5957  2.7130
   30PET     H3  858   2.758   2.088   4.296 -0.0104  0.3179  0.5114
   30PET     C3  859   2.692   2.405   4.383 -0.7007  0.0648 -0.0810
   30PET     H2  860   2.735   2.501   4.407 -1.0029 -0.2983  2.0337
   30PET     C2  861   2.554   2.394   4.397 -0.3727  0.3763 -0.7304
   30PET     H1  862   2.508   2.490   4.418 -1.6730  0.0958 -2.2138
   30PET     C1  863   2.486   2.271   4.376 -0.0418 -0.4718  0.3917
   30PET     C7  864   2.331   2.271   4.394 -0.4962 -0.1472 -0.9590
   30PET     O3  865   2.261   2.370   4.429 -0.3322 -0.1900  0.0529
   30PET     O4  866   2.275   2.144   4.382 -0.5722 -0.1972  0.6129
   30PET    C10  867   2.129   2.138   4.405  0.2350  0.7652  0.6662
   30PET     H8  868   2.085   2.231   4.365  0.5552  0.9618  0.7718
   30PET     H9  869   2.116   2.130   4.514 -1.0618 -0.8808  0.4123
   30PET    C11  870   2.066   2.013   4.343 -0.0429  0.7615  0.4320
   30PET    H10  871   2.122   1.998   4.250 -0.6601  1.9563 -0.1408
   30PET    H11  872   1.962   2.036   4.315 -0.8581 -0.5826  2.2017
   30PET    C12  873   2.078   1.889   4.437  0.5813  0.4577 -0.4119
   30PET    H13  874   2.177   1.857   4.473  0.3028 -0.4570 -0.4678
   30PET    H14  875   2.027   1.807   4.386  0.0741  1.4045 -1.4371
   31SOL     OW  876   1.869   3.879   1.228  0.1394  0.0420 -0.4307
   31SOL    HW1  877   1.815   3.804   1.202 -0.0898 -0.9306  2.6554
   31SOL    HW2  878   1.805   3.945   1.255  0.4212 -0.4003  1.3644
   32SOL     OW  879   0.807   3.072   5.127 -0.2938 -0.3656 -0.6722
   32SOL    HW1  880   0.724   3.040   5.092  0.2332 -1.2674 -1.1095
   32SOL    HW2  881   0.856   3.101   5.050  0.2499 -0.9121 -0.5389
   33SOL     OW  882   1.227   2.772   1.579  0.0998 -0.0532  0.0821
   33SOL    HW1  883   1.177   2.853   1.588 -0.5533 -0.5413  1.0370
   33SOL    HW2  884   1.245   2.764   1.486  1.3608  1.8951  0.1426
   34SOL     OW  885   2.959   3.485   0.243 -0.4305  0.8367  0.0345
   34SOL    HW1  886   3.030   3.476   0.307  0.5313  3.4408 -0.6053
   34SOL    HW2  887   2.880   3.462   0.292  0.7365 -1.0908  1.0395
   35SOL     OW  888   2.997   1.630   0.594 -0.0076  0.1487  0.2674
   35SOL    HW1  889   3.034   1.576   0.523 -0.1882  0.6254 -0.1907
   35SOL    HW2  890   3.010   1.720   0.565 -0.7077  0.3342  0.5226
   36SOL     OW  891   1.633   3.720   1.115  0.1778  0.0258 -0.3757
   36SOL    HW1  892   1.618   3.667   1.193 -0.7159 -2.7136 -2.3535
   36SOL    HW2  893   1.569   3.791   1.122 -0.0057 -0.2761  1.2522
   37SOL     OW  894   3.684   2.783   4.178 -0.0761  0.1678  0.0514
   37SOL    HW1  895   3.725   2.805   4.262  0.5359  1.1867 -0.4996
   37SOL    HW2  896   3.590   2.789   4.196  0.0584  1.0976  0.4812
   38SOL     OW  897   1.484   1.364   0.642  0.8956  0.0756  0.2863
   38SOL    HW1  898   1.441   1.281   0.620 -1.2939 -0.7521  6.5680
   38SOL    HW2  899   1.564   1.339   0.688  0.7788  1.4720  1.2808
   39SOL     OW  900   1.289   3.801   5.194  0.0703 -0.0696 -0.1135
   39SOL    HW1  901   1.239   3.750   5.130 -0.0893  1.0188 -0.8707
   39SOL    HW2  902   1.320   3.877   5.145 -0.6099  1.1071  1.2711
   40SOL     OW  903   3.229   2.962   1.520 -0.1955 -0.4919  0.5812
   40SOL    HW1  904   3.240   2.964   1.615  2.8823  0.8705  0.2380
   40SOL    HW2  905   3.193   3.048   1.498  1.0292 -0.0444  0.3091
   41SOL     OW  906   2.418   5.225   5.000 -0.5244  0.3689  0.5771
   41SOL    HW1  907   2.495   5.254   4.951  0.0801 -1.8282  0.1582
   41SOL    HW2  908   2.363   5.182   4.935 -0.4956 -1.0871  1.4938
   42SOL     OW  909   2.368   1.847   1.015 -0.3842  0.1999  0.3098
   42SOL    HW1  910   2.341   1.834   1.106 -0.2389  0.7548  0.4318
   42SOL    HW2  911   2.299   1.901   0.977 -1.2051 -1.2582 -0.3161
   43SOL     OW  912   3.137   3.186   4.421 -0.1093  0.1865  0.3673
   43SOL    HW1  913   3.087   3.227   4.491  1.8965  2.8485  0.3137
   43SOL    HW2  914   3.224   3.174   4.458  0.4615 -0.1183 -1.0535
   44SOL     OW  915   0.878   4.251   0.281  0.7062 -0.3713  0.7843
   44SOL    HW1  916   0.938   4.194   0.233 -1.6783 -1.4172 -1.0755
   44SOL    HW2  917   0.864   4.207   0.365  0.9120 -1.2058  0.3869
   45SOL     OW  918   3.037   3.069   0.106  0.0691 -0.9950 -0.2366
   45SOL    HW1  919   2.991   3.059   0.023  0.5568 -1.6414 -0.4401
   45SOL    HW2  920   2.973   3.044   0.172 -1.1554  2.0338 -0.2139
   46SOL     OW  921   3.438   1.126   0.168  0.0762 -0.2517  0.2107
   46SOL    HW1  922   3.359   1.074   0.184  0.9251 -1.7238 -0.2633
   46SOL    HW2  923   3.462   1.105   0.078  1.5269 -0.5590  0.6529
   47SOL     OW  924   1.468   4.888   0.876 -0.6424 -0.6625  0.4169
   47SOL    HW1  925   1.441   4.937   0.954 -0.4997 -2.9646  1.9483
   47SOL    HW2  926   1.407   4.815   0.872  0.5911 -1.6576 -0.4817
   48SOL     OW  927   3.370   1.778   0.651  0.1646  0.0806 -0.8143
   48SOL    HW1  928   3.340   1.834   0.579  0.7451  1.7848  0.2475
   48SOL    HW2  929   3.413   1.838   0.712 -1.3157 -1.1689  1.5174
   49SOL     OW  930   2.759   2.599   1.279 -0.8686  0.3965  0.1288
   49SOL    HW1  931   2.743   2.507   1.298 -2.6862  0.6775  0.0215
   49SOL    HW2  932   2.730   2.610   1.188 -0.2155  0.9806 -0.0149
   50SOL     OW  933   2.579   2.170   1.656  0.0031  0.3556 -0.1165
   50SOL    HW1  934   2.607   2.185   1.746 -0.5862  1.6227 -0.1322
   50SOL    HW2  935   2.487   2.196   1.655  0.1818  0.9793 -1.2294
   51SOL     OW  936   2.706   1.551   0.583 -0.3568  0.2388  0.0277
   51SOL    HW1  937   2.745   1.570   0.498 -0.1872  0.3638  0.1345
   51SOL    HW2  938   2.643   1.622   0.597 -0.4719  0.1526 -0.0473
   52SOL     OW  939   2.513   0.287   0.531 -0.2615  0.0372  0.0977
   52SOL    HW1  940   2.501   0.198   0.565  1.8238  0.1507  1.1587
   52SOL    HW2  941   2.554   0.335   0.602  0.6740  1.2787 -1.2605
   53SOL     OW  942   1.355   4.135   1.097 -0.0090  0.3785  0.4993
   53SOL    HW1  943   1.352   4.149   1.002 -1.4345 -1.8730  0.1781
   53SOL    HW2  944   1.384   4.220   1.133 -1.8411  2.0148 -1.7468
   54SOL     OW  945   1.629   0.019   0.584  0.6121  0.3194 -0.1129
   54SOL    HW1  946   1.568   0.089   0.604  1.5124  1.2143 -0.4429
   54SOL    HW2  947   1.716   0.057   0.600  1.1159 -0.6767 -0.4051
   55SOL     OW  948   0.781   2.257   0.299  0.7756  0.2026 -0.1601
   55SOL    HW1  949   0.869   2.224   0.279  0.4708 -0.9995  0.3920
   55SOL    HW2  950   0.780   2.264   0.395 -0.9923 -3.6067  0.1910
   56SOL     OW  951   1.734   2.990   4.338 -0.1130  0.1407  0.3271
   56SOL    HW1  952   1.780   2.989   4.253  1.2158 -0.7482  1.0428
   56SOL    HW2  953   1.678   3.068   4.333 -0.1062  0.0708 -1.3922
   57SOL     OW  954   1.896   3.292   1.407  0.3304  0.0273  0.0644
   57SOL    HW1  955   1.914   3.272   1.499 -2.4495  3.4325  1.4420
   57SOL    HW2  956   1.947   3.372   1.389  1.7524 -1.2386 -1.7295
   58SOL     OW  957   3.197   2.170   1.021 -0.0962  0.1359 -0.2481
   58SOL    HW1  958   3.137   2.231   1.063  1.7464  1.5288  0.4221
   58SOL    HW2  959   3.153   2.146   0.939 -1.8221  0.6527  0.5114
   59SOL     OW  960   1.072   4.393   0.052  0.6220  0.3289  1.0735
   59SOL    HW1  961   0.996   4.335   0.060 -0.8704  2.4092  2.4966
   59SOL    HW2  962   1.082   4.408  -0.042 -0.0875 -0.7932  0.8201
   60SOL     OW  963   2.329   4.255   1.040 -0.0745 -0.6292  0.3518
   60SOL    HW1  964   2.377   4.176   1.016  0.1094 -0.9165  1.6444
   60SOL    HW2  965   2.330   4.256   1.135 -0.4992  0.6775  0.3537
   61SOL     OW  966   1.216   1.435   0.805  0.4819  0.3100 -0.0882
   61SOL    HW1  967   1.246   1.364   0.862 -2.8051  0.4855  2.0557
   61SOL    HW2  968   1.130   1.459   0.840  0.3533  3.6073 -2.3528
   62SOL     OW  969   3.885   3.020   4.603 -0.6276  0.4811 -0.2113
   62SOL    HW1  970   3.793   3.029   4.626 -0.9631  2.4232 -2.1666
   62SOL    HW2  971   3.925   3.103   4.629  0.2046  0.3055 -0.8908
   63SOL     OW  972   1.886   2.465   0.661  0.7572 -0.4964  0.5802
   63SOL    HW1  973   1.856   2.375   0.657  0.7362 -0.4647 -0.0256
   63SOL    HW2  974   1.865   2.502   0.575  1.3435 -0.1041  0.5994
   64SOL     OW  975   3.147   4.323   5.108  0.4993 -0.2462 -1.0817
   64SOL    HW1  976   3.167   4.417   5.117 -1.8445  0.3500 -1.8975
   64SOL    HW2  977   3.064   4.312   5.154  1.7106 -2.3374  0.6853
   65SOL     OW  978   2.067   1.763   0.152 -0.3239  0.2565  0.1192
   65SOL    HW1  979   2.115   1.682   0.134 -0.3845  0.6528 -2.0142
   65SOL    HW2  980   2.127   1.833   0.125 -1.1749  0.8331 -0.3118
   66SOL     OW  981   1.688   2.381   0.972  0.2073 -0.0684 -0.0011
   66SOL    HW1  982   1.628   2.389   0.899 -1.3588 -0.4104  1.2146
   66SOL    HW2  983   1.679   2.464   1.020 -0.4906 -0.7312  1.0495
   67SOL     OW  984   2.332   1.971   5.036  0.8888  0.1027  0.1404
   67SOL    HW1  985   2.391   2.007   5.102  0.3543  1.2089  0.0315
   67SOL    HW2  986   2.250   1.955   5.083 -0.2584  3.1426 -0.7385
   68SOL     OW  987   2.367   1.771   1.505 -0.2907  0.2604 -0.3226
   68SOL    HW1  988   2.348   1.739   1.417  0.7883 -0.9742 -0.1193
   68SOL    HW2  989   2.448   1.822   1.496  0.3291 -0.6356  0.1048
   69SOL     OW  990   2.203   1.501   1.837  0.0955  0.4484 -0.2910
   69SOL    HW1  991   2.175   1.571   1.897  1.6376  1.1176 -0.3304
   69SOL    HW2  992   2.265   1.544   1.778  1.2954 -1.0075 -0.1247
   70SOL     OW  993   1.297   2.403   5.136 -0.3622 -0.0004 -0.0032
   70SOL    HW1  994   1.205   2.406   5.162  0.2436 -3.7089  2.8734
   70SOL    HW2  995   1.340   2.469   5.192 -0.8232 -0.2146  0.6009
   71SOL     OW  996   1.554   3.275   5.095  0.5984  0.1565 -0.2016
   71SOL    HW1  997   1.640   3.234   5.097 -0.3430 -1.8058  1.0534
   71SOL    HW2  998   1.572   3.368   5.110  2.5639 -0.0937 -0.8679
   72SOL     OW  999   1.857   2.566   1.642 -0.6363 -0.4660  0.5218
   72SOL    HW1 1000   1.831   2.658   1.638 -0.0412 -0.3620 -1.9691
   72SOL    HW2 1001   1.776   2.517   1.625 -0.2404 -0.2551 -2.3115
   73SOL     OW 1002   0.667   2.859   4.501 -0.1478 -0.8292  0.0840
   73SOL    HW1 1003   0.742   2.919   4.505 -0.5584 -0.1894 -1.6576
   73SOL    HW2 1004   0.590   2.916   4.504 -0.5563 -1.3687 -0.0692
   74SOL     OW 1005   1.523   2.743   1.937 -0.1990  0.3381 -0.7071
   74SOL    HW1 1006   1.547   2.792   1.859 -0.1389  0.9918 -0.2870
   74SOL    HW2 1007   1.440   2.700   1.914  0.4955 -0.5348 -1.5671
   75SOL     OW 1008   1.832   1.483   5.060 -0.1393 -0.0053  0.3443
   75SOL    HW1 1009   1.902   1.422   5.038 -0.7252  0.1032 -1.9540
   75SOL    HW2 1010   1.770   1.431   5.111 -0.1522 -1.1060 -0.7535
   76SOL     OW 1011   3.291   1.866   4.721  0.2660  0.0859  0.3323
   76SOL    HW1 1012   3.266   1.773   4.719  0.2111  0.1133 -0.7614
   76SOL    HW2 1013   3.386   1.865   4.727  0.4325 -0.0670 -2.0183
   77SOL     OW 1014   1.275   1.993   4.627 -0.3714 -0.1532 -0.3174
   77SOL    HW1 1015   1.307   1.927   4.566  2.4171  0.3617  0.4919
   77SOL    HW2 1016   1.210   2.043   4.578 -1.6327 -2.6909 -1.3150
   78SOL     OW 1017   1.761   4.288   4.318  0.5782  0.1551  0.1034
   78SOL    HW1 1018   1.811   4.250   4.246 -1.8000  0.9629 -2.0371
   78SOL    HW2 1019   1.746   4.215   4.378 -0.1916 -1.2947 -1.8101
   79SOL     OW 1020   2.545   4.941   0.225 -0.4804  0.2193 -0.7694
   79SOL    HW1 1021   2.487   4.982   0.160  0.0776 -1.2468 -2.2429
   79SOL    HW2 1022   2.485   4.900   0.288 -1.0827 -1.1684 -2.2027
   80SOL     OW 1023   2.869   3.517   4.410  0.8129  0.0718  0.6275
   80SOL    HW1 1024   2.939   3.531   4.474  1.6943  0.7393 -0.4749
   80SOL    HW2 1025   2.893   3.437   4.364  0.9301  0.3920  0.1343
   81SOL     OW 1026   1.827   4.601   4.784 -0.4354  0.5446  0.5695
   81SOL    HW1 1027   1.869   4.663   4.724  2.3542 -2.6790 -1.0276
   81SOL    HW2 1028   1.764   4.555   4.729 -0.1532 -0.2498  0.9069
   82SOL     OW 1029   3.063   3.161   1.056 -0.2255  0.2007 -0.2015
   82SOL    HW1 1030   3.022   3.245   1.077 -1.7653 -0.1800 -1.6365
   82SOL    HW2 1031   3.072   3.162   0.961  0.4685 -0.9365 -0.1537
   83SOL     OW 1032   0.582   3.148   0.327  0.3578 -0.1995  0.1785
   83SOL    HW1 1033   0.625   3.184   0.250 -0.3488 -1.1710 -0.6940
   83SOL    HW2 1034   0.497   3.117   0.295 -0.4826  0.5511  1.6114
   84SOL     OW 1035   1.720   4.212   1.122 -0.2295  1.0122  0.1525
   84SOL    HW1 1036   1.680   4.129   1.096 -0.3323  1.1279 -0.0525
   84SOL    HW2 1037   1.751   4.250   1.041 -0.0077  1.0836  0.2721
   85SOL     OW 1038   2.164   1.350   1.218  0.6980  0.3463  0.1234
   85SOL    HW1 1039   2.103   1.386   1.282  0.6950 -0.7448  0.7545
   85SOL    HW2 1040   2.199   1.271   1.261  3.0178  1.2977  0.0341
   86SOL     OW 1041   1.047   1.735   1.150  0.0866 -0.2319  0.0045
   86SOL    HW1 1042   1.000   1.815   1.125  0.0464  0.1771  1.3162
   86SOL    HW2 1043   1.138   1.762   1.156  0.3305 -0.7444 -1.3965
   87SOL     OW 1044   2.161   4.148   1.279 -0.7861 -0.0849 -0.0299
   87SOL    HW1 1045   2.238   4.092   1.280  0.3032  1.3877  0.0934
   87SOL    HW2 1046   2.091   4.094   1.317  0.4210 -1.0937  0.7735
   88SOL     OW 1047   2.198   1.881   0.471 -0.2316 -0.3908  0.3003
   88SOL    HW1 1048   2.209   1.796   0.514  0.4914 -0.7722 -0.6192
   88SOL    HW2 1049   2.139   1.930   0.528 -0.5357 -1.4637  0.9095
   89SOL     OW 1050   0.840   3.950   0.766 -0.0741  0.7088  0.0596
   89SOL    HW1 1051   0.822   4.034   0.808  1.0855  0.1242  1.8199
   89SOL    HW2 1052   0.802   3.885   0.826  1.8051 -0.1627  0.3406
   90SOL     OW 1053   1.539   5.120   0.002  0.5732  0.5759 -0.0012
   90SOL    HW1 1054   1.620   5.169  -0.007 -0.7483  2.7029 -0.6159
   90SOL    HW2 1055   1.491   5.136  -0.079 -0.8734  0.1223  0.7364
   91SOL     OW 1056   1.276   4.346   0.284 -0.8913  0.3739 -0.0097
   91SOL    HW1 1057   1.280   4.401   0.206  1.2093 -0.5824 -0.6187
   91SOL    HW2 1058   1.219   4.273   0.261  1.5704 -1.1442 -1.5146
   92SOL     OW 1059   2.581   0.094   4.650 -0.2029  0.0907  0.3461
   92SOL    HW1 1060   2.527   0.017   4.671 -1.0381  0.2839 -1.0432
   92SOL    HW2 1061   2.561   0.157   4.719 -3.4783  0.9994 -1.3561
   93SOL     OW 1062   1.921   1.924   4.742  0.3115 -0.0339  0.1138
   93SOL    HW1 1063   1.874   1.954   4.664 -0.6931 -1.6910  0.0407
   93SOL    HW2 1064   1.888   1.835   4.756  1.5036 -0.2517  1.6266
   94SOL     OW 1065   4.317   2.828   2.572  0.2089  0.3863 -0.5462
   94SOL    HW1 1066   4.349   2.782   2.495  0.4128  4.0814 -2.8166
   94SOL    HW2 1067   4.390   2.883   2.599 -1.6094  3.2261 -1.1491
   95SOL     OW 1068   3.021   2.840   5.159 -0.0358 -0.1228  0.0298
   95SOL    HW1 1069   2.965   2.907   5.121 -1.6306 -1.4197  0.0769
   95SOL    HW2 1070   2.962   2.781   5.205  1.4489 -0.9755  0.9080
   96SOL     OW 1071   1.621   2.425   0.162  0.1861 -0.4832 -0.2959
   96SOL    HW1 1072   1.556   2.493   0.143 -0.1826 -1.1329 -1.3646
   96SOL    HW2 1073   1.576   2.366   0.223  0.5601  0.3051  0.7565
   97SOL     OW 1074   2.375   2.505   1.494 -0.4771 -0.0246  0.4069
   97SOL    HW1 1075   2.439   2.542   1.554  0.2855  2.1211 -1.6446
   97SOL    HW2 1076   2.291   2.515   1.539 -0.0727  2.6176  0.6613
   98SOL     OW 1077   1.899   2.840   1.324 -0.8110  0.6198 -0.2198
   98SOL    HW1 1078   1.839   2.804   1.389 -0.9530  0.9593 -0.1592
   98SOL    HW2 1079   1.855   2.920   1.294 -1.3736 -0.2476 -1.7149
   99SOL     OW 1080   1.666   1.324   4.682 -0.1058  0.5688 -0.1536
   99SOL    HW1 1081   1.656   1.231   4.660 -1.8552  1.1265 -1.8271
   99SOL    HW2 1082   1.582   1.349   4.721  1.1731  0.8976  2.5701
  100SOL     OW 1083   0.786   3.252   0.178 -0.1333 -0.3953  0.3169
  100SOL    HW1 1084   0.824   3.274   0.263  0.6799 -1.8052  0.3403
  100SOL    HW2 1085   0.824   3.316   0.118  0.2422 -0.1555  0.8052
  101SOL     OW 1086   0.915   2.627   1.088 -0.0723  0.4341 -0.2932
  101SOL    HW1 1087   0.821   2.643   1.089 -0.0829  0.3655 -0.2002
  101SOL    HW2 1088   0.953   2.703   1.131 -0.2334 -0.5353  1.6051
  102SOL     OW 1089   1.241   3.991   0.478  0.0265 -0.7328 -0.3232
  102SOL    HW1 1090   1.218   4.027   0.392  0.8742  0.0297 -0.2452
  102SOL    HW2 1091   1.158   3.983   0.525 -0.2886  0.0596 -0.7496
  103SOL     OW 1092   2.035   2.291   1.475 -0.0758 -0.2385 -0.4671
  103SOL    HW1 1093   2.021   2.262   1.565 -0.7563  2.8747  0.4690
  103SOL    HW2 1094   2.117   2.247   1.449 -0.7638 -2.4961  1.0392
  104SOL     OW 1095   1.847   0.499   0.891  0.0821 -0.5219  0.2279
  104SOL    HW1 1096   1.869   0.408   0.913 -0.1323 -0.8161 -0.7550
  104SOL    HW2 1097   1.910   0.523   0.823  2.0421  1.0540  2.5504
  105SOL     OW 1098   1.360   1.860   5.251  0.7224 -0.0803 -0.4586
  105SOL    HW1 1099   1.302   1.848   5.327 -0.0055  2.5486 -0.5565
  105SOL    HW2 1100   1.448   1.865   5.288  0.5511 -0.6416  0.0278
  106SOL     OW 1101   2.340   3.282   4.800 -0.0486  0.1844  0.3588
  106SOL    HW1 1102   2.268   3.225   4.828  0.5821 -0.8046 -0.0248
  106SOL    HW2 1103   2.306   3.327   4.722 -0.2212 -0.3646  0.1124
  107SOL     OW 1104   1.985   4.863   4.965  0.4174 -0.4722  0.4443
  107SOL    HW1 1105   1.958   4.816   5.044 -1.9130 -0.2890 -0.2104
  107SOL    HW2 1106   1.975   4.800   4.894 -4.2105  1.3416 -0.6662
  108SOL     OW 1107   1.091   2.082   5.163 -0.5200 -0.0432 -0.2356
  108SOL    HW1 1108   1.157   2.151   5.157  0.7701 -0.9614  2.2574
  108SOL    HW2 1109   1.087   2.062   5.257 -0.5456 -3.5994 -0.9127
  109SOL     OW 1110   1.874   1.121   5.168 -0.1997  1.0433  0.6143
  109SOL    HW1 1111   1.928   1.190   5.130 -1.5110  0.4909 -2.4200
  109SOL    HW2 1112   1.920   1.040   5.146 -0.8421  0.7264  0.4197
  110SOL     OW 1113   0.742   4.147   4.566  0.3510  0.6066 -0.0550
  110SOL    HW1 1114   0.728   4.225   4.511  3.0577  1.3317  0.2299
  110SOL    HW2 1115   0.710   4.172   4.652 -2.9144 -0.1663 -0.9514
  111SOL     OW 1116   1.252   4.500   0.673  0.4605 -0.8765  0.1601
  111SOL    HW1 1117   1.246   4.500   0.578 -0.5845  1.3516  0.2151
  111SOL    HW2 1118   1.320   4.563   0.694 -0.1241 -0.4744  0.9179
  112SOL     OW 1119   3.848   2.504   4.574  0.3827 -0.8192 -0.5230
  112SOL    HW1 1120   3.870   2.426   4.524 -0.7908 -1.7968  0.4241
  112SOL    HW2 1121   3.918   2.511   4.639 -0.0019 -1.6482 -0.0058
  113SOL     OW 1122   2.837   3.994   5.152 -0.0889  0.0866 -0.2667
  113SOL    HW1 1123   2.876   4.066   5.102  1.3748 -0.5341 -0.0582
  113SOL    HW2 1124   2.768   3.960   5.095  0.8762  0.0548 -1.4446
  114SOL     OW 1125   1.262   3.608   0.683  0.2021  0.1199 -0.5048
  114SOL    HW1 1126   1.261   3.639   0.774  2.7818 -0.3588 -0.2666
  114SOL    HW2 1127   1.180   3.560   0.673 -0.6420  1.1665  1.2211
  115SOL     OW 1128   3.247   0.199   0.235  0.0387 -0.4973 -0.1509
  115SOL    HW1 1129   3.237   0.107   0.262 -0.7617 -0.2562  0.4006
  115SOL    HW2 1130   3.257   0.195   0.140 -0.5028 -1.1261 -0.1874
  116SOL     OW 1131   3.521   1.592   5.096 -0.7492 -0.1350 -0.5584
  116SOL    HW1 1132   3.449   1.647   5.066 -0.1743  1.8476  1.5868
  116SOL    HW2 1133   3.582   1.652   5.138 -0.3620 -2.4462  2.3799
  117SOL     OW 1134   0.890   4.187   5.252 -0.0234 -0.1493 -0.3446
  117SOL    HW1 1135   0.821   4.123   5.234 -1.0245  1.4554 -2.3603
  117SOL    HW2 1136   0.967   4.134   5.276 -1.7199 -1.9666  1.2286
  118SOL     OW 1137   1.615   4.062   5.093  0.3233 -0.1601  0.5949
  118SOL    HW1 1138   1.702   4.058   5.052 -0.4894 -3.0170 -1.0471
  118SOL    HW2 1139   1.613   3.986   5.151 -1.3571 -0.5820  0.0071
  119SOL     OW 1140   1.617   4.028   0.926  0.1625 -0.1258  0.5500
  119SOL    HW1 1141   1.620   4.046   0.832 -0.3837 -1.9996  0.1622
  119SOL    HW2 1142   1.642   3.936   0.934 -0.5232 -0.1895  2.1655
  120SOL     OW 1143   0.935   2.516   4.499 -0.5856  0.5759  0.5532
  120SOL    HW1 1144   0.967   2.564   4.576  1.8506 -0.7343  0.4343
  120SOL    HW2 1145   1.009   2.461   4.474 -2.6871 -1.9012 -0.3999
  121SOL     OW 1146   2.548   0.240   4.896  0.4779 -0.1465  0.3408
  121SOL    HW1 1147   2.636   0.253   4.931 -0.4561  2.3963  1.9006
  121SOL    HW2 1148   2.490   0.280   4.960 -2.2035 -4.9790  1.1964
  122SOL     OW 1149   0.944   3.760   0.060  0.1331  0.0488 -0.4362
  122SOL    HW1 1150   0.916   3.842   0.100  0.5626  0.1723 -0.3961
  122SOL    HW2 1151   1.023   3.736   0.107  0.5880  0.1425 -1.1559
  123SOL     OW 1152   1.850   3.815   0.954 -0.1706  0.0873  0.1410
  123SOL    HW1 1153   1.780   3.762   0.992  1.5465 -1.6121  1.0673
  123SOL    HW2 1154   1.909   3.833   1.028  0.7742  0.7840 -0.7641
  124SOL     OW 1155   1.359   0.029   0.904  0.0404 -0.7656  0.1914
  124SOL    HW1 1156   1.338   0.065   0.818  0.1762  0.4347  0.6403
  124SOL    HW2 1157   1.454   0.032   0.909  0.0839 -1.6960  0.0313
  125SOL     OW 1158   0.315   3.020   0.201  0.4603  0.2315 -0.4137
  125SOL    HW1 1159   0.268   3.019   0.284  1.8881  0.9689  0.4292
  125SOL    HW2 1160   0.297   3.108   0.166  1.7488  0.7726  0.2471
  126SOL     OW 1161   3.566   2.766   0.999 -0.5395 -0.3622  0.2324
  126SOL    HW1 1162   3.512   2.693   1.029 -1.4604  0.4110  0.4760
  126SOL    HW2 1163   3.598   2.807   1.079 -1.0023  0.2217  0.1230
  127SOL     OW 1164   0.898   3.891   4.723  0.4792 -0.7322 -0.2850
  127SOL    HW1 1165   0.877   3.929   4.638 -0.2397 -0.4230  0.0210
  127SOL    HW2 1166   0.912   3.798   4.706  1.6064 -0.4429 -0.9431
  128SOL     OW 1167   2.534   2.617   0.325 -1.0431  0.1835 -0.1302
  128SOL    HW1 1168   2.461   2.599   0.385 -0.9470 -0.8158 -0.3056
  128SOL    HW2 1169   2.609   2.633   0.381 -1.7096  2.7559  0.1039
  129SOL     OW 1170   1.459   3.500   0.980  0.0577  0.3951 -0.1855
  129SOL    HW1 1171   1.392   3.567   0.969 -1.3806 -0.9364  0.2552
  129SOL    HW2 1172   1.519   3.536   1.046  0.9067  2.4305 -2.0412
  130SOL     OW 1173   1.454   3.792   0.692 -0.7306  0.7459 -1.1802
  130SOL    HW1 1174   1.388   3.724   0.696  1.2690 -1.5661 -4.6241
  130SOL    HW2 1175   1.499   3.787   0.776 -1.8353 -0.8799 -0.6572
  131SOL     OW 1176   1.061   2.168   0.849  0.1991  0.6488 -0.1650
  131SOL    HW1 1177   1.141   2.119   0.868 -0.2125 -0.2373 -0.7012
  131SOL    HW2 1178   0.992   2.120   0.895 -0.1526  0.9234 -0.4076
  132SOL     OW 1179   3.549   2.342   0.162  0.2647 -0.0423  0.9297
  132SOL    HW1 1180   3.538   2.306   0.250  0.5650 -0.2491  0.8840
  132SOL    HW2 1181   3.592   2.427   0.176  1.4619 -0.6295  0.9084
  133SOL     OW 1182   1.545   3.873   1.409 -0.3790  0.0463 -0.4281
  133SOL    HW1 1183   1.482   3.886   1.339  2.7324 -1.4712 -3.6673
  133SOL    HW2 1184   1.614   3.938   1.393  1.0190 -1.1835  0.4166
  134SOL     OW 1185   1.018   1.674   0.378 -0.4844 -0.9546  0.7004
  134SOL    HW1 1186   1.000   1.586   0.411  2.3701  0.0021  5.2096
  134SOL    HW2 1187   0.959   1.731   0.427 -0.0803  0.0045  0.0953
  135SOL     OW 1188   2.927   5.148   0.377  0.0713 -0.0079  0.5950
  135SOL    HW1 1189   2.930   5.098   0.459 -0.4859  1.2188  1.3757
  135SOL    HW2 1190   2.899   5.084   0.311 -0.6976 -0.7156  1.5895
  136SOL     OW 1191   1.655   0.965   1.034 -0.5814 -0.0872  0.5771
  136SOL    HW1 1192   1.602   0.928   0.963 -0.0027  0.7147 -0.2882
  136SOL    HW2 1193   1.698   1.041   0.994  1.3761 -0.8293  1.2041
  137SOL     OW 1194   1.962   1.109   1.223 -0.5186  0.4019 -0.1529
  137SOL    HW1 1195   1.902   1.045   1.261  1.2908 -0.4559  1.3664
  137SOL    HW2 1196   1.953   1.186   1.279 -0.6276  0.4730 -0.2690
  138SOL     OW 1197   1.235   4.048   5.061 -0.5375  0.3537 -0.2659
  138SOL    HW1 1198   1.155   4.046   5.009 -1.2488  1.7912  0.7476
  138SOL    HW2 1199   1.305   4.034   4.997 -1.5453 -0.2864 -1.2518
  139SOL     OW 1200   1.794   0.078   0.888  1.0480 -0.0775  0.1874
  139SOL    HW1 1201   1.729   0.148   0.880  0.8973 -0.0239  1.7809
  139SOL    HW2 1202   1.876   0.118   0.858  1.0605  0.9377  1.5405
  140SOL     OW 1203   1.455   3.577   1.621 -0.9428 -0.2320 -0.2407
  140SOL    HW1 1204   1.415   3.586   1.535  0.8656 -0.3256 -1.1195
  140SOL    HW2 1205   1.427   3.654   1.669 -0.2289  0.9324 -1.6548
  141SOL     OW 1206   1.705   2.690   4.280 -0.3139  0.0747  0.0050
  141SOL    HW1 1207   1.747   2.625   4.336 -4.8313 -1.1621  2.1875
  141SOL    HW2 1208   1.728   2.774   4.320  1.9295 -0.3658 -0.2693
  142SOL     OW 1209   1.523   1.516   0.888  0.3512 -0.3150  0.1078
  142SOL    HW1 1210   1.517   1.442   0.949 -1.9742 -0.7260 -0.5351
  142SOL    HW2 1211   1.575   1.483   0.815 -0.7769 -1.3768 -0.2288
  143SOL     OW 1212   1.920   1.735   1.840  0.4978 -0.0377  0.3975
  143SOL    HW1 1213   1.841   1.690   1.809  0.5236 -2.1702  3.2338
  143SOL    HW2 1214   1.947   1.685   1.917  4.7729  0.5002 -0.6330
  144SOL     OW 1215   1.337   2.164   0.023  0.2968  0.1435  0.3010
  144SOL    HW1 1216   1.413   2.122   0.062 -1.4709 -1.3523  2.2486
  144SOL    HW2 1217   1.263   2.110   0.050 -1.7330  2.8792  0.4539
  145SOL     OW 1218   1.472   3.185   4.075  0.1432 -0.4415  0.2050
  145SOL    HW1 1219   1.395   3.236   4.049  1.3455  1.2085 -0.1721
  145SOL    HW2 1220   1.462   3.102   4.028 -0.3212  0.5850 -1.5559
  146SOL     OW 1221   1.843   3.731   0.370  0.0417  0.8206 -0.2960
  146SOL    HW1 1222   1.783   3.706   0.299 -0.1320 -0.0760  0.1542
  146SOL    HW2 1223   1.794   3.714   0.450  0.8061  0.2983  0.0730
  147SOL     OW 1224   2.577   4.145   4.523  0.4587 -0.8249  0.3234
  147SOL    HW1 1225   2.591   4.055   4.551  2.6249 -0.3312  0.9080
  147SOL    HW2 1226   2.595   4.144   4.429  0.3726 -1.0222  0.3099
  148SOL     OW 1227   0.819   4.663   0.601 -0.6503 -0.0881  0.8196
  148SOL    HW1 1228   0.894   4.626   0.554 -0.5640  1.5059 -0.3575
  148SOL    HW2 1229   0.759   4.690   0.531 -3.1432 -2.9468  1.7675
  149SOL     OW 1230   3.290   4.089   5.093  0.7242  0.2827 -0.6476
  149SOL    HW1 1231   3.225   4.155   5.119  0.0470 -0.2979 -0.8438
  149SOL    HW2 1232   3.327   4.057   5.175  0.7869  0.6444 -0.5352
  150SOL     OW 1233   1.932   3.344   0.367  0.5637 -0.4881 -0.3496
  150SOL    HW1 1234   1.976   3.394   0.298 -0.0692  0.5818 -0.0010
  150SOL    HW2 1235   1.961   3.387   0.448 -1.3838  0.4413 -0.1353
  151SOL     OW 1236   1.078   3.422   0.678 -0.2035 -0.0458 -0.1524
  151SOL    HW1 1237   0.997   3.402   0.631 -0.4223 -0.9002  0.5741
  151SOL    HW2 1238   1.065   3.384   0.765  0.5899  0.6650  0.2794
  152SOL     OW 1239   2.675   4.453   4.955  0.3415  0.2935  0.3892
  152SOL    HW1 1240   2.754   4.495   4.988  0.4836 -1.3630  2.2279
  152SOL    HW2 1241   2.631   4.420   5.033  0.5894 -3.6010 -1.0124
  153SOL     OW 1242   1.856   3.517   0.689 -0.1315 -0.2483  0.9125
  153SOL    HW1 1243   1.777   3.553   0.649  0.9871  1.1945 -0.0592
  153SOL    HW2 1244   1.919   3.589   0.688  0.8417 -1.0155  2.7468
  154SOL     OW 1245   1.660   1.622   1.805 -0.9277 -0.4160 -0.2676
  154SOL    HW1 1246   1.587   1.587   1.856 -2.0484  3.2328  0.7625
  154SOL    HW2 1247   1.626   1.631   1.716 -0.7883 -1.4069 -0.4287
  155SOL     OW 1248   3.568   4.121   4.676 -0.3278  0.2942 -0.0455
  155SOL    HW1 1249   3.640   4.078   4.722 -1.3699  0.5016  1.8338
  155SOL    HW2 1250   3.579   4.214   4.695 -0.2989  0.4762 -0.9127
  156SOL     OW 1251   4.277   3.192   2.131 -0.9704  0.0678 -0.3405
  156SOL    HW1 1252   4.238   3.179   2.045 -0.3318 -0.5807 -0.5335
  156SOL    HW2 1253   4.208   3.235   2.182 -2.1291 -1.5564 -0.5227
  157SOL     OW 1254   1.923   2.299   5.149  0.1599 -0.7244 -0.2507
  157SOL    HW1 1255   2.008   2.307   5.190  0.6284 -0.9624 -1.1524
  157SOL    HW2 1256   1.940   2.256   5.065 -0.8793 -1.0375 -0.3184
  158SOL     OW 1257   0.485   2.907   5.157 -0.6807  0.4771  0.3958
  158SOL    HW1 1258   0.515   2.875   5.242  0.1463 -3.6815 -1.3817
  158SOL    HW2 1259   0.391   2.892   5.158 -0.3142 -2.1245 -0.3911
  159SOL     OW 1260   1.499   4.583   0.751 -0.3350  0.7070 -0.3009
  159SOL    HW1 1261   1.561   4.641   0.708 -0.9796  0.1829 -1.9690
  159SOL    HW2 1262   1.554   4.518   0.796  0.3369 -0.1923 -2.3782
  160SOL     OW 1263   2.765   0.620   0.063 -0.4243  0.5804 -0.7317
  160SOL    HW1 1264   2.840   0.561   0.072 -3.1469 -2.7057  1.4603
  160SOL    HW2 1265   2.739   0.611  -0.029 -1.1676 -2.1581 -0.2866
  161SOL     OW 1266   2.601   3.160   0.911  0.4521 -0.0397 -0.4625
  161SOL    HW1 1267   2.528   3.212   0.944  0.3156  0.5398 -1.6223
  161SOL    HW2 1268   2.569   3.125   0.828  0.7610 -1.4990  0.0327
  162SOL     OW 1269   1.509   2.891   2.200  0.0530 -0.4457 -0.3443
  162SOL    HW1 1270   1.494   2.844   2.118  1.9798 -3.9215  1.2165
  162SOL    HW2 1271   1.602   2.913   2.200 -0.1081  0.3085  0.5212
  163SOL     OW 1272   2.074   4.514   4.646 -0.1788 -0.0015 -0.0661
  163SOL    HW1 1273   2.012   4.523   4.718  1.6279  2.6124  1.2170
  163SOL    HW2 1274   2.158   4.542   4.682  0.8574  0.9181 -3.0411
  164SOL     OW 1275   2.046   4.429   1.174  0.5390 -0.1842  0.2812
  164SOL    HW1 1276   2.069   4.345   1.216  1.9920  0.2680  0.4126
  164SOL    HW2 1277   2.083   4.422   1.086 -1.3673 -0.5952 -0.5242
  165SOL     OW 1278   1.855   3.946   1.993 -0.7126 -0.0003  0.6347
  165SOL    HW1 1279   1.894   3.906   2.071  0.9613  1.8121  0.7712
  165SOL    HW2 1280   1.890   3.896   1.920  0.4885  0.5193  0.8554
  166SOL     OW 1281   1.520   4.378   4.381  0.1752  0.1700 -0.0817
  166SOL    HW1 1282   1.575   4.352   4.307 -1.6293 -0.5618 -1.1951
  166SOL    HW2 1283   1.499   4.470   4.364  0.7211  0.3380  0.1409
  167SOL     OW 1284   3.420   1.365   0.345  0.0343 -0.2043  0.4523
  167SOL    HW1 1285   3.416   1.286   0.292  0.7995  0.6989 -0.9710
  167SOL    HW2 1286   3.506   1.362   0.386  1.0384  1.0595 -1.4867
  168SOL     OW 1287   1.021   5.009   0.143  0.1334  0.3787 -0.2023
  168SOL    HW1 1288   1.116   4.999   0.134  0.4472  2.7925 -0.0836
  168SOL    HW2 1289   1.008   5.024   0.237 -0.2125  1.3125 -0.3950
  169SOL     OW 1290   1.623   3.576   1.361  0.5337  0.2239  0.0652
  169SOL    HW1 1291   1.582   3.653   1.400  0.8648 -0.3403  1.5618
  169SOL    HW2 1292   1.707   3.568   1.407  1.0216 -0.3388 -0.9112
  170SOL     OW 1293   1.437   0.830   0.853  0.4319  0.1846  0.2647
  170SOL    HW1 1294   1.472   0.767   0.916  0.4758  0.4994  0.5573
  170SOL    HW2 1295   1.426   0.780   0.772  1.1128 -0.0252  0.3056
  171SOL     OW 1296   2.312   1.554   2.244 -0.9149  0.5942  0.1817
  171SOL    HW1 1297   2.249   1.505   2.191 -1.2006  0.8173  0.3109
  171SOL    HW2 1298   2.257   1.602   2.307 -0.7153  2.0613 -0.7485
  172SOL     OW 1299   1.886   2.034   4.993  0.1801  0.3801 -0.0429
  172SOL    HW1 1300   1.901   2.005   4.903 -0.9433 -0.6588  0.0838
  172SOL    HW2 1301   1.791   2.045   4.999  0.4021  2.0794  0.5353
  173SOL     OW 1302   1.775   5.098   0.484  0.5525  0.0420 -0.3928
  173SOL    HW1 1303   1.747   5.109   0.394  1.0370  1.0665 -0.4197
  173SOL    HW2 1304   1.732   5.169   0.532  1.2032  0.1932 -0.0253
  174SOL     OW 1305   2.366   5.258   1.045  0.1265 -0.1726  0.3190
  174SOL    HW1 1306   2.284   5.209   1.042 -0.5291  0.8039  1.6101
  174SOL    HW2 1307   2.433   5.194   1.020 -0.5401 -2.1919  3.3564
  175SOL     OW 1308   2.297   3.435   5.178 -1.0140  1.0732 -0.4105
  175SOL    HW1 1309   2.238   3.360   5.175 -1.1619  1.2323 -1.9366
  175SOL    HW2 1310   2.290   3.468   5.267  0.6689 -2.0108  0.9142
  176SOL     OW 1311   1.846   3.679   1.914  0.2523  0.2278  0.9113
  176SOL    HW1 1312   1.846   3.717   1.826  1.2603  2.8051  1.9670
  176SOL    HW2 1313   1.809   3.591   1.902 -0.9020  1.0168 -1.8574
  177SOL     OW 1314   1.406   4.902   0.080  0.2633 -0.6252 -0.3777
  177SOL    HW1 1315   1.432   4.982   0.034 -0.5280 -0.6496 -0.8648
  177SOL    HW2 1316   1.402   4.928   0.172  0.8068 -0.3146 -0.4359
  178SOL     OW 1317   0.794   4.203   1.156  0.2675  0.2390 -0.1152
  178SOL    HW1 1318   0.810   4.286   1.200 -1.9995  1.2695 -1.1645
  178SOL    HW2 1319   0.700   4.202   1.137  0.0159 -3.0665  0.8515
  179SOL     OW 1320   2.925   4.266   5.270 -0.4175 -0.5230  0.4013
  179SOL    HW1 1321   2.970   4.208   5.331 -2.7570 -1.9667  0.8219
  179SOL    HW2 1322   2.835   4.272   5.303 -1.2262  0.2552 -1.7830
  180SOL     OW 1323   2.598   1.978   1.418 -0.2695  0.0226  0.2097
  180SOL    HW1 1324   2.517   2.023   1.395 -0.9695 -0.8383  0.9721
  180SOL    HW2 1325   2.616   2.006   1.507 -0.6913 -1.1777  0.6767
  181SOL     OW 1326   3.266   2.670   0.081 -0.2149 -0.8446 -0.2062
  181SOL    HW1 1327   3.275   2.701   0.171 -2.2159  0.1557 -0.3313
  181SOL    HW2 1328   3.298   2.742   0.027 -2.5512  0.1056 -0.4009
  182SOL     OW 1329   1.692   4.378   0.812  0.6274  0.2137 -0.7524
  182SOL    HW1 1330   1.726   4.397   0.724  0.2514  1.2197 -0.6896
  182SOL    HW2 1331   1.619   4.318   0.796 -0.1272  1.2395 -1.2334
  183SOL     OW 1332   0.357   2.965   0.477  0.5028 -0.5845 -0.2519
  183SOL    HW1 1333   0.298   2.950   0.551  1.2873 -3.3033 -0.1275
  183SOL    HW2 1334   0.442   2.983   0.518  0.0390  2.3447 -0.4539
  184SOL     OW 1335   3.102   3.184   1.446  0.0281  0.1622 -0.3102
  184SOL    HW1 1336   3.115   3.232   1.365 -1.7967  1.9071  0.3924
  184SOL    HW2 1337   3.008   3.168   1.450  0.3047 -1.2838  0.6984
  185SOL     OW 1338   1.537   1.934   0.825 -0.3964  0.0508  0.1850
  185SOL    HW1 1339   1.480   1.921   0.901 -0.1379  0.8835  0.5303
  185SOL    HW2 1340   1.531   1.852   0.776 -0.6951 -0.4318  1.0180
  186SOL     OW 1341   1.076   4.076   1.196  0.0275  0.3868 -0.7909
  186SOL    HW1 1342   1.141   4.019   1.157  0.1422  1.0421 -1.5664
  186SOL    HW2 1343   1.000   4.070   1.138 -0.1327  0.6629 -0.6145
  187SOL     OW 1344   1.010   4.388   4.751 -0.2795  0.4678 -0.0470
  187SOL    HW1 1345   0.940   4.348   4.803 -0.9571 -0.1790 -1.4216
  187SOL    HW2 1346   1.072   4.317   4.737 -0.9046  0.1947 -1.4922
  188SOL     OW 1347   0.697   4.301   4.844 -0.3753  0.3766  0.0455
  188SOL    HW1 1348   0.639   4.363   4.888 -0.8549  0.9340 -1.3762
  188SOL    HW2 1349   0.773   4.295   4.902 -1.8722 -0.4776  2.0182
  189SOL     OW 1350   1.608   3.148   4.584  0.8397 -0.2570 -0.1772
  189SOL    HW1 1351   1.531   3.165   4.638 -0.2477 -3.2258 -0.6608
  189SOL    HW2 1352   1.585   3.182   4.498 -0.4041 -2.1115 -0.5979
  190SOL     OW 1353   2.363   0.616   4.916  0.3754  0.2127  0.7208
  190SOL    HW1 1354   2.284   0.562   4.922  0.6704 -0.7025 -2.4733
  190SOL    HW2 1355   2.429   0.566   4.963 -0.5374  0.2243  2.0631
  191SOL     OW 1356   3.157   2.068   0.184 -0.6402 -0.3917 -0.1479
  191SOL    HW1 1357   3.138   2.145   0.239 -1.8738 -0.8911  0.1317
  191SOL    HW2 1358   3.249   2.080   0.158 -0.1457  0.0608  1.7051
  192SOL     OW 1359   2.032   2.329   0.379 -0.7296  0.0193 -0.0288
  192SOL    HW1 1360   2.044   2.421   0.355  0.4511 -0.6658 -2.2865
  192SOL    HW2 1361   2.118   2.301   0.411 -1.8015  0.3983  3.3541
  193SOL     OW 1362   1.189   2.409   2.119  0.3898 -0.5218 -0.7117
  193SOL    HW1 1363   1.270   2.422   2.168 -0.3197 -1.3430  0.7207
  193SOL    HW2 1364   1.184   2.484   2.060 -0.3875  2.3026  2.8147
  194SOL     OW 1365   3.050   1.074   0.863  0.3471  0.2831 -0.6695
  194SOL    HW1 1366   3.055   1.169   0.873 -0.8772  0.4070 -1.1870
  194SOL    HW2 1367   3.123   1.041   0.915 -0.6980  1.3792  1.5936
  195SOL     OW 1368   1.135   1.152   0.706 -0.1148  0.6990 -0.3832
  195SOL    HW1 1369   1.225   1.165   0.735 -0.6131  1.0208  1.0602
  195SOL    HW2 1370   1.141   1.083   0.640  0.9698 -0.6453  1.0744
  196SOL     OW 1371   0.882   1.925   0.895  0.2398 -0.5207  0.0451
  196SOL    HW1 1372   0.845   1.903   0.980 -3.4564 -1.4990 -1.6937
  196SOL    HW2 1373   0.930   1.846   0.869 -2.0155 -1.7777 -0.4738
  197SOL     OW 1374   2.929   4.129   4.367 -0.3800  0.3517  0.2401
  197SOL    HW1 1375   2.912   4.106   4.276  2.2739 -3.6055  0.6074
  197SOL    HW2 1376   3.013   4.175   4.365 -1.6237  2.6715  0.4305
  198SOL     OW 1377   3.432   4.072   0.320 -0.3807  0.2387 -0.3970
  198SOL    HW1 1378   3.412   4.042   0.409  2.5289  0.1391  0.2515
  198SOL    HW2 1379   3.519   4.037   0.302 -0.0768  2.0149 -2.5005
  199SOL     OW 1380   1.647   0.239   0.121  0.0446 -0.5054  0.2821
  199SOL    HW1 1381   1.597   0.287   0.056  0.3749  1.3005  1.3219
  199SOL    HW2 1382   1.721   0.204   0.073 -1.5958 -2.2478 -1.0342
  200SOL     OW 1383   1.441   3.427   0.552 -0.1294  0.5266  0.0559
  200SOL    HW1 1384   1.415   3.464   0.636 -0.3980 -1.1383  0.7306
  200SOL    HW2 1385   1.483   3.343   0.574 -2.5955 -1.2117 -1.5967
  201SOL     OW 1386   3.140   2.661   1.186  0.6311  0.2305 -0.0347
  201SOL    HW1 1387   3.106   2.746   1.215 -0.1063 -0.1480  0.2139
  201SOL    HW2 1388   3.062   2.608   1.170  1.1039 -0.5380  0.2036
  202SOL     OW 1389   1.732   2.798   0.845 -0.1228  0.7367  0.4182
  202SOL    HW1 1390   1.705   2.884   0.879 -0.2786  0.7601  0.2392
  202SOL    HW2 1391   1.799   2.768   0.907 -1.4113  0.1404  1.5567
  203SOL     OW 1392   2.072   4.045   1.620 -0.1643 -0.2519  0.2851
  203SOL    HW1 1393   2.041   3.974   1.676 -0.8661 -0.7348 -0.7193
  203SOL    HW2 1394   2.164   4.022   1.602  0.6285  0.8397  2.7022
  204SOL     OW 1395   1.504   2.163   1.122  0.3376 -1.2584  0.0424
  204SOL    HW1 1396   1.476   2.253   1.134  1.1068 -0.8139 -1.3600
  204SOL    HW2 1397   1.559   2.144   1.198  1.5961  0.0432 -0.5190
  205SOL     OW 1398   1.288   2.934   4.719  1.0108  0.3865  1.1744
  205SOL    HW1 1399   1.199   2.903   4.740  1.6264 -2.7219 -0.4211
  205SOL    HW2 1400   1.337   2.923   4.801  0.8714 -1.7153  1.0061
  206SOL     OW 1401   0.743   4.413   1.385 -0.4517 -0.3104  0.7614
  206SOL    HW1 1402   0.825   4.451   1.417  0.4078  1.5897 -3.3260
  206SOL    HW2 1403   0.675   4.459   1.435  0.8165  2.1608  0.3082
  207SOL     OW 1404   2.044   2.141   2.786 -0.8217 -0.1902  0.4309
  207SOL    HW1 1405   1.990   2.063   2.798 -1.0463  0.0593  1.0581
  207SOL    HW2 1406   1.993   2.196   2.727  0.1146 -1.2575 -1.4291
  208SOL     OW 1407   2.782   2.245   0.354 -0.7640 -0.3441  0.1277
  208SOL    HW1 1408   2.824   2.319   0.398 -1.0652 -0.0693 -0.0470
  208SOL    HW2 1409   2.744   2.194   0.426 -0.6470 -0.2720  0.2411
  209SOL     OW 1410   3.257   3.320   0.191  0.4108  0.3924  0.1067
  209SOL    HW1 1411   3.225   3.347   0.277  1.5189  0.3445  0.5461
  209SOL    HW2 1412   3.349   3.345   0.190  0.3557  0.6158 -1.1692
  210SOL     OW 1413   2.342   2.238   1.567 -0.1997 -0.2098  0.4481
  210SOL    HW1 1414   2.356   2.333   1.556 -2.8511  0.2515  0.7796
  210SOL    HW2 1415   2.341   2.204   1.478 -1.2154  0.4070  0.2052
  211SOL     OW 1416   1.374   0.866   5.193 -0.6031  0.5361  0.7962
  211SOL    HW1 1417   1.286   0.890   5.164  0.0587 -0.0499 -1.8089
  211SOL    HW2 1418   1.428   0.941   5.169  0.1214 -0.3558 -0.4279
  212SOL     OW 1419   1.388   1.897   0.418 -0.2500 -0.0104 -0.1147
  212SOL    HW1 1420   1.344   1.844   0.352 -2.1506 -0.8547  1.7813
  212SOL    HW2 1421   1.442   1.835   0.466 -2.2206 -0.2471  1.8946
  213SOL     OW 1422   2.143   1.534   0.838 -0.2149  0.6679 -0.1652
  213SOL    HW1 1423   2.194   1.549   0.758 -0.9366 -0.4639 -0.8463
  213SOL    HW2 1424   2.053   1.525   0.808 -0.6318  1.2444  0.8908
  214SOL     OW 1425   1.216   4.189   4.779  0.0089 -0.2369 -0.5528
  214SOL    HW1 1426   1.279   4.193   4.708  1.2148 -1.7074  0.4013
  214SOL    HW2 1427   1.269   4.191   4.859 -1.2730  0.5727  0.3106
  215SOL     OW 1428   0.585   2.088   4.962 -0.4823  0.5692  0.3182
  215SOL    HW1 1429   0.536   2.169   4.972 -1.5271  0.1053 -0.9848
  215SOL    HW2 1430   0.677   2.116   4.957 -0.6291  1.4676  2.2713
  216SOL     OW 1431   3.932   5.160   4.952 -0.2863  0.2514  0.0289
  216SOL    HW1 1432   3.871   5.168   4.879  0.9815 -1.5551 -1.2731
  216SOL    HW2 1433   4.004   5.219   4.929 -0.2614  0.2913  0.2114
  217SOL     OW 1434   1.969   0.784   0.759  0.0298  0.6253  0.0875
  217SOL    HW1 1435   1.944   0.699   0.722  0.2981  1.2280 -1.5567
  217SOL    HW2 1436   2.065   0.783   0.757  0.0340  0.9136  0.1574
  218SOL     OW 1437   3.231   4.277   4.485 -0.1662 -0.1248 -0.4703
  218SOL    HW1 1438   3.180   4.235   4.555 -0.2489  0.1727 -0.3490
  218SOL    HW2 1439   3.321   4.251   4.502 -0.4227 -1.6671 -1.4138
  219SOL     OW 1440   1.867   1.543   0.871  0.6450  0.7394  0.0356
  219SOL    HW1 1441   1.837   1.624   0.913 -1.3907 -0.0015  0.0649
  219SOL    HW2 1442   1.880   1.482   0.943  2.4415  1.0997  0.0370
  220SOL     OW 1443   2.242   4.967   4.825  0.5103  0.8851 -0.4400
  220SOL    HW1 1444   2.182   4.993   4.895  0.8600  2.0018 -0.5442
  220SOL    HW2 1445   2.187   4.959   4.747 -0.2637 -2.4985  0.3836
  221SOL     OW 1446   1.897   3.698   4.257 -0.4506 -0.0390  0.1281
  221SOL    HW1 1447   1.814   3.660   4.231 -0.0716 -1.3533  0.8079
  221SOL    HW2 1448   1.886   3.721   4.349  0.8780 -3.0061  1.1089
  222SOL     OW 1449   1.653   3.798   4.871  0.6028  0.0283 -0.1939
  222SOL    HW1 1450   1.657   3.732   4.940  0.4142 -0.8482 -1.0107
  222SOL    HW2 1451   1.611   3.873   4.912 -0.9297 -1.0412  0.2100
  223SOL     OW 1452   3.063   1.292   4.906 -0.1133  0.0014 -0.3658
  223SOL    HW1 1453   2.995   1.360   4.913  0.2482  0.4869 -1.3956
  223SOL    HW2 1454   3.018   1.218   4.866 -0.3190 -0.0940  0.0363
  224SOL     OW 1455   3.501   0.939   5.230  0.0585 -0.4546  0.6928
  224SOL    HW1 1456   3.431   0.937   5.165  1.7522  0.4957 -1.2223
  224SOL    HW2 1457   3.546   0.855   5.219 -1.1413 -1.3340  2.3587
  225SOL     OW 1458   2.719   4.341   0.628 -0.5050  0.3187 -0.4428
  225SOL    HW1 1459   2.800   4.324   0.581 -1.2632  0.8427 -1.9730
  225SOL    HW2 1460   2.744   4.342   0.720  0.7304 -2.2725 -0.7261
  226SOL     OW 1461   1.885   3.791   1.683 -0.5991 -0.5352  0.0067
  226SOL    HW1 1462   1.829   3.759   1.612 -0.2943  1.9816 -1.4574
  226SOL    HW2 1463   1.857   3.882   1.695  2.3922  0.4111  0.0451
  227SOL     OW 1464   1.147   5.251   0.562 -0.3045  0.0847 -0.0338
  227SOL    HW1 1465   1.227   5.210   0.594  0.4118  1.3652 -0.1267
  227SOL    HW2 1466   1.095   5.179   0.528  1.9870 -0.5294 -2.5168
  228SOL     OW 1467   1.654   4.831   0.697  0.5155  0.5858 -0.1808
  228SOL    HW1 1468   1.593   4.864   0.763  0.5022  0.2893 -0.0433
  228SOL    HW2 1469   1.740   4.840   0.737  0.4719  0.0103  0.0443
  229SOL     OW 1470   1.869   4.637   5.138 -0.0239  0.0160 -0.0603
  229SOL    HW1 1471   1.828   4.556   5.169  1.7269 -0.0878  2.0473
  229SOL    HW2 1472   1.920   4.611   5.061 -0.7215 -0.5751 -0.3258
  230SOL     OW 1473   3.321   2.754   0.611  0.7819 -0.0897 -0.0558
  230SOL    HW1 1474   3.291   2.819   0.547  1.7327  1.9037  1.4305
  230SOL    HW2 1475   3.337   2.675   0.561  0.4367  1.1078 -2.0928
  231SOL     OW 1476   2.733   1.481   0.986 -0.4206 -0.1862 -0.7989
  231SOL    HW1 1477   2.686   1.427   1.050  1.9014  1.1428  2.1646
  231SOL    HW2 1478   2.666   1.536   0.946 -1.6473  0.7268  2.3575
  232SOL     OW 1479   1.790   1.702   0.010 -0.0259 -0.4328 -0.5790
  232SOL    HW1 1480   1.884   1.703   0.028 -0.1744 -0.5910  0.2374
  232SOL    HW2 1481   1.780   1.645  -0.066  0.3788 -1.7528  0.3296
  233SOL     OW 1482   1.299   0.197   0.577  0.2804  0.1178 -0.9717
  233SOL    HW1 1483   1.340   0.191   0.491  0.8712 -2.0149 -0.5809
  233SOL    HW2 1484   1.209   0.167   0.564 -0.1316  1.3880 -1.1442
  234SOL     OW 1485   2.838   4.936   0.237  0.0612 -0.4982  0.1036
  234SOL    HW1 1486   2.771   4.876   0.270 -1.6363  0.8957 -0.7655
  234SOL    HW2 1487   2.875   4.890   0.161 -0.0750 -1.1510  0.4233
  235SOL     OW 1488   2.070   1.678   4.915 -0.1556  0.3559  0.8263
  235SOL    HW1 1489   2.019   1.636   4.845  1.7112  0.6553 -0.7521
  235SOL    HW2 1490   2.027   1.650   4.996 -1.5449 -1.0957 -0.3846
  236SOL     OW 1491   0.499   3.089   4.647  0.5319  0.2263 -0.1438
  236SOL    HW1 1492   0.456   3.164   4.605  3.6090  3.1611  1.6369
  236SOL    HW2 1493   0.503   3.113   4.739 -0.5265 -3.2978  0.8966
  237SOL     OW 1494   1.904   4.813   4.635  0.3904 -0.3067 -0.2215
  237SOL    HW1 1495   1.995   4.833   4.659 -0.1405  0.4860  1.2022
  237SOL    HW2 1496   1.890   4.861   4.554  1.5613 -1.2699 -1.0087
  238SOL     OW 1497   3.343   3.995   0.075  0.2929 -0.3854 -0.6066
  238SOL    HW1 1498   3.396   4.002   0.154 -3.8366  1.7268  2.1554
  238SOL    HW2 1499   3.283   3.922   0.092 -1.5743  0.9862 -1.1298
  239SOL     OW 1500   1.972   3.365   5.089 -0.0576  0.5885 -0.3263
  239SOL    HW1 1501   2.048   3.316   5.060  0.5275  0.8770  0.6967
  239SOL    HW2 1502   1.925   3.386   5.008  2.1157  2.3403 -1.1861
  240SOL     OW 1503   0.373   3.278   0.134  0.4695 -0.5866 -0.5381
  240SOL    HW1 1504   0.391   3.276   0.040  1.3411  1.8353 -0.4629
  240SOL    HW2 1505   0.439   3.337   0.169 -0.2384 -0.9896  1.5240
  241SOL     OW 1506   2.974   2.851   1.014 -0.0736 -0.6333 -0.3412
  241SOL    HW1 1507   3.024   2.926   0.982  1.2546 -1.3997 -0.1008
  241SOL    HW2 1508   2.913   2.888   1.077 -2.0796  0.7793 -3.0326
  242SOL     OW 1509   3.068   4.538   0.217 -1.4123 -0.6387  0.1564
  242SOL    HW1 1510   3.065   4.449   0.253 -2.8339 -0.4740  0.4981
  242SOL    HW2 1511   2.979   4.570   0.228 -1.2946  0.2664 -1.4094
  243SOL     OW 1512   1.376   4.071   0.753 -0.7507 -0.4566 -0.4046
  243SOL    HW1 1513   1.344   4.156   0.784  1.3834  0.1024  0.3498
  243SOL    HW2 1514   1.320   4.007   0.798 -1.0387  0.4822  0.6096
  244SOL     OW 1515   2.572   3.666   1.493 -0.0137  0.4232  0.2722
  244SOL    HW1 1516   2.500   3.717   1.458  0.2395  1.0079  0.5966
  244SOL    HW2 1517   2.645   3.728   1.500  0.2011  0.1014  0.9770
  245SOL     OW 1518   0.591   3.164   4.890 -0.2879 -0.7862  0.1333
  245SOL    HW1 1519   0.562   3.255   4.882 -1.5803 -1.3011 -1.4750
  245SOL    HW2 1520   0.686   3.168   4.881 -0.1731  0.5520  1.6080
  246SOL     OW 1521   1.723   1.804   1.338  0.2820 -0.3244  0.0273
  246SOL    HW1 1522   1.698   1.884   1.292 -2.1060 -0.3629  1.2092
  246SOL    HW2 1523   1.774   1.834   1.414 -2.9028  0.3210  1.9929
  247SOL     OW 1524   1.725   4.047   1.633 -0.4757  0.2706  0.4948
  247SOL    HW1 1525   1.680   3.971   1.672 -0.2574  0.1124  0.4372
  247SOL    HW2 1526   1.722   4.114   1.702 -2.5769  0.9463 -0.2153
  248SOL     OW 1527   1.523   3.906   1.737  0.2297  0.1771 -0.5821
  248SOL    HW1 1528   1.508   3.946   1.823 -0.3329  0.5706 -0.8581
  248SOL    HW2 1529   1.467   3.956   1.678  0.7425  0.0104 -1.2075
  249SOL     OW 1530   0.917   4.302   4.983  0.4702  0.1719 -0.3765
  249SOL    HW1 1531   0.984   4.361   5.017  0.2082  0.0471  0.3611
  249SOL    HW2 1532   0.893   4.247   5.057  1.0162 -1.1573 -1.1567
  250SOL     OW 1533   3.082   0.535   0.140  0.5807  0.3059  0.3463
  250SOL    HW1 1534   3.059   0.472   0.208  4.8020 -4.3639 -2.2533
  250SOL    HW2 1535   3.147   0.592   0.181 -0.9648  1.0698  1.7850
  251SOL     OW 1536   1.660   5.200   0.256  0.0367  0.4391  0.0772
  251SOL    HW1 1537   1.727   5.239   0.201  0.9750 -0.5856  0.4830
  251SOL    HW2 1538   1.607   5.148   0.196  1.1338 -0.7785  0.1652
  252SOL     OW 1539   1.940   2.609   4.442  0.3383 -0.1028  0.0794
  252SOL    HW1 1540   1.937   2.691   4.491 -0.2735 -0.7321  1.1234
  252SOL    HW2 1541   1.974   2.545   4.504  2.5789 -0.2849 -1.2784
  253SOL     OW 1542   1.907   0.734   1.057 -0.2871  0.5863  0.3994
  253SOL    HW1 1543   1.899   0.797   0.985 -2.0496  0.8340  0.8091
  253SOL    HW2 1544   1.887   0.649   1.017  2.6508  0.1502 -0.2864
  254SOL     OW 1545   2.008   0.086   5.284  0.1943 -0.3416 -0.1192
  254SOL    HW1 1546   1.983   0.066   5.375  0.0695 -0.1220 -0.1042
  254SOL    HW2 1547   2.096   0.050   5.275 -0.5957 -2.2237 -0.5400
  255SOL     OW 1548   2.784   2.182   4.990  0.7268  0.7066  0.6649
  255SOL    HW1 1549   2.704   2.171   5.041  0.0987 -0.7141 -0.6008
  255SOL    HW2 1550   2.755   2.178   4.899  2.5636 -2.5534  0.1589
  256SOL     OW 1551   0.938   3.608   1.113 -0.5970 -0.2885 -0.4253
  256SOL    HW1 1552   0.946   3.532   1.056 -0.1274  0.1264 -0.9241
  256SOL    HW2 1553   0.998   3.673   1.075 -0.5122  0.1006  0.3567
  257SOL     OW 1554   2.229   4.547   0.678  0.7976 -0.0018 -0.2178
  257SOL    HW1 1555   2.252   4.463   0.719 -0.8241 -0.3400  0.0221
  257SOL    HW2 1556   2.201   4.523   0.589  0.9329  0.3575 -0.3594
  258SOL     OW 1557   3.794   4.898   5.025 -0.2167  0.4053 -0.7760
  258SOL    HW1 1558   3.847   4.978   5.023  2.2386 -1.1083  0.6314
  258SOL    HW2 1559   3.813   4.859   5.110 -2.5484 -0.9254 -0.8345
  259SOL     OW 1560   2.009   4.438   4.353 -0.0474  0.4836 -0.2623
  259SOL    HW1 1561   1.918   4.408   4.345  0.4165 -0.2829 -3.1886
  259SOL    HW2 1562   2.015   4.470   4.443 -3.0197 -0.0852  0.2140
  260SOL     OW 1563   1.517   2.188   1.599 -0.2779  0.1109  0.4969
  260SOL    HW1 1564   1.577   2.252   1.560 -0.5326  0.8373  1.2739
  260SOL    HW2 1565   1.571   2.112   1.616  0.5444  0.9364  1.6348
  261SOL     OW 1566   1.628   4.726   0.001 -0.1440 -0.1692 -0.6099
  261SOL    HW1 1567   1.664   4.740  -0.086  1.0473 -0.7068 -0.2096
  261SOL    HW2 1568   1.592   4.811   0.026 -0.2731  0.0485 -1.5111
  262SOL     OW 1569   0.810   1.645   0.627 -0.1009  0.0006 -0.0879
  262SOL    HW1 1570   0.759   1.692   0.561  1.6107  0.1836 -1.3266
  262SOL    HW2 1571   0.794   1.552   0.606 -1.0366  0.0305  0.4366
  263SOL     OW 1572   2.151   1.115   0.952 -0.3453 -0.2564 -0.2022
  263SOL    HW1 1573   2.166   1.054   0.880 -0.1173 -0.3305 -0.0946
  263SOL    HW2 1574   2.136   1.059   1.028  2.6170 -0.2249  0.4774
  264SOL     OW 1575   3.790   3.044   0.199 -0.1286  0.3129 -0.1801
  264SOL    HW1 1576   3.843   3.123   0.194 -1.4631  1.2023 -0.4007
  264SOL    HW2 1577   3.721   3.057   0.133 -0.7807 -0.7071  0.2900
  265SOL     OW 1578   3.018   4.084   0.212 -0.0347 -0.0861 -0.2561
  265SOL    HW1 1579   3.027   4.019   0.282 -0.8666 -0.0256 -0.0882
  265SOL    HW2 1580   3.099   4.076   0.162 -0.1944 -1.3773 -0.3331
  266SOL     OW 1581   1.957   3.573   1.421  0.0913  0.3439 -0.4908
  266SOL    HW1 1582   2.023   3.552   1.488 -1.7363 -0.6302  1.0865
  266SOL    HW2 1583   1.999   3.637   1.365  2.5350 -0.5596  0.2146
  267SOL     OW 1584   2.832   3.658   1.095  0.7914 -0.5423  0.1771
  267SOL    HW1 1585   2.855   3.703   1.014  0.5738 -0.6660  0.0462
  267SOL    HW2 1586   2.758   3.707   1.130  1.6617  0.2548  0.9420
  268SOL     OW 1587   2.299   3.317   0.331  0.1751  0.0367  0.2637
  268SOL    HW1 1588   2.244   3.249   0.291  0.3367  0.6693 -1.0401
  268SOL    HW2 1589   2.284   3.307   0.425 -0.9858 -0.8055  0.0007
  269SOL     OW 1590   1.104   2.852   4.338  0.1257  0.1093 -0.1785
  269SOL    HW1 1591   1.022   2.810   4.361  0.0748  1.0437  1.4583
  269SOL    HW2 1592   1.113   2.839   4.244 -0.1433 -3.0398  0.1945
  270SOL     OW 1593   3.428   1.970   5.247  0.4030 -0.4812  0.1508
  270SOL    HW1 1594   3.360   1.919   5.203 -1.5114  2.2760 -0.2044
  270SOL    HW2 1595   3.455   1.915   5.320 -0.3282 -2.7434 -1.1938
  271SOL     OW 1596   2.371   1.039   4.503  0.0070 -0.0287  0.4919
  271SOL    HW1 1597   2.418   1.115   4.469  0.0343 -0.9553 -1.6788
  271SOL    HW2 1598   2.392   0.969   4.441 -0.0447 -1.8064  2.4358
  272SOL     OW 1599   1.797   3.435   4.874 -0.2650  0.4877 -0.1424
  272SOL    HW1 1600   1.719   3.431   4.819 -1.2839  0.1401  1.3158
  272SOL    HW2 1601   1.766   3.469   4.958  0.1422 -4.4243  2.1761
  273SOL     OW 1602   1.911   0.305   5.161 -0.6364 -0.4634  1.0413
  273SOL    HW1 1603   1.974   0.343   5.101  1.4722  1.6982  4.4374
  273SOL    HW2 1604   1.953   0.227   5.196 -2.3553 -2.4204 -1.1180
  274SOL     OW 1605   0.897   2.724   5.274 -0.0443 -0.1352  0.4578
  274SOL    HW1 1606   0.844   2.733   5.353  0.7812  0.4524  0.9531
  274SOL    HW2 1607   0.835   2.697   5.206 -0.5895 -1.6486  1.5333
  275SOL     OW 1608   2.994   1.378   0.721 -0.0817  0.2008  0.0031
  275SOL    HW1 1609   3.084   1.411   0.714  0.4900 -1.8036 -3.4341
  275SOL    HW2 1610   2.974   1.345   0.633 -3.0086 -2.3981  1.5547
  276SOL     OW 1611   2.538   3.034   0.163  0.3078 -0.5359  0.2754
  276SOL    HW1 1612   2.510   2.944   0.147 -0.2497 -0.5775  1.4314
  276SOL    HW2 1613   2.579   3.062   0.081 -2.5095 -0.7025 -1.2393
  277SOL     OW 1614   3.334   3.603   0.373 -0.0517  0.4071 -0.1044
  277SOL    HW1 1615   3.296   3.527   0.418  0.4893  1.3196  1.9027
  277SOL    HW2 1616   3.258   3.646   0.333 -0.4556 -0.7616 -0.6470
  278SOL     OW 1617   0.607   2.913   0.146  1.4855 -0.1617  0.6315
  278SOL    HW1 1618   0.518   2.948   0.144  2.3353  2.0166 -1.4272
  278SOL    HW2 1619   0.614   2.868   0.230 -1.2289  0.5095  1.2434
  279SOL     OW 1620   2.887   3.353   1.150 -0.5393 -0.1534  0.4452
  279SOL    HW1 1621   2.812   3.302   1.181 -0.2838  0.0693  1.4357
  279SOL    HW2 1622   2.849   3.437   1.123 -1.0458 -1.0500 -1.7499
  280SOL     OW 1623   1.519   1.073   0.780 -0.8773  0.2819  0.1238
  280SOL    HW1 1624   1.600   1.065   0.730 -0.5071 -1.4176  0.9678
  280SOL    HW2 1625   1.474   0.989   0.766 -1.1837  0.1341  1.8841
  281SOL     OW 1626   0.874   2.179   5.016  0.1294 -0.3117  0.4452
  281SOL    HW1 1627   0.940   2.141   5.073  0.3364 -0.0228  0.4016
  281SOL    HW2 1628   0.922   2.201   4.936 -0.3731 -1.6920 -0.2536
  282SOL     OW 1629   2.983   0.236   0.371  0.0005 -0.0012 -0.0291
  282SOL    HW1 1630   2.914   0.231   0.305  0.6482 -4.1940 -0.5282
  282SOL    HW2 1631   3.057   0.188   0.334  1.5954  0.5151  2.3235
  283SOL     OW 1632   3.318   3.062   0.896  0.2455  0.3982  0.2925
  283SOL    HW1 1633   3.334   3.150   0.861  1.4181 -0.4447 -1.3898
  283SOL    HW2 1634   3.234   3.037   0.859  0.6811  0.1854 -0.5814
  284SOL     OW 1635   1.652   0.381   0.367  0.1645  0.2199  0.0130
  284SOL    HW1 1636   1.653   0.302   0.313  4.1466  1.5642 -2.1482
  284SOL    HW2 1637   1.586   0.437   0.327  0.8330 -0.0840 -1.5704
  285SOL     OW 1638   2.448   3.485   3.839  0.9737 -0.0698  0.3928
  285SOL    HW1 1639   2.528   3.448   3.802  1.5625  0.9351  0.6416
  285SOL    HW2 1640   2.445   3.450   3.928  0.9053 -0.4485  0.2422
  286SOL     OW 1641   1.402   1.206   0.984 -0.3368  0.2514  1.4552
  286SOL    HW1 1642   1.430   1.138   0.922 -3.5204 -0.0862  0.3336
  286SOL    HW2 1643   1.448   1.184   1.065  3.4440  0.3354 -0.5095
  287SOL     OW 1644   2.187   4.587   1.356  0.0121  0.0615 -0.2728
  287SOL    HW1 1645   2.153   4.675   1.372  1.5193  0.9054 -1.5039
  287SOL    HW2 1646   2.127   4.549   1.292  0.8253  1.1751 -1.7097
  288SOL     OW 1647   3.283   5.226   0.297 -0.0099  0.5996 -0.0062
  288SOL    HW1 1648   3.204   5.178   0.323  0.4678  1.0811  2.4827
  288SOL    HW2 1649   3.354   5.165   0.315  0.2049  0.1615 -2.2587
  289SOL     OW 1650   1.844   1.410   0.527 -0.4940 -0.8393 -0.0810
  289SOL    HW1 1651   1.825   1.403   0.433 -0.7379 -1.4744  0.0118
  289SOL    HW2 1652   1.891   1.329   0.547  0.6821 -0.1259  0.0767
  290SOL     OW 1653   0.186   4.139   1.514  0.2058 -0.4973  0.4366
  290SOL    HW1 1654   0.204   4.193   1.437  2.9581 -1.4824  0.3324
  290SOL    HW2 1655   0.115   4.185   1.560  0.1442  1.3479 -1.4360
  291SOL     OW 1656   1.718   1.000   0.092 -1.0232 -0.3330 -0.5994
  291SOL    HW1 1657   1.791   1.045   0.050 -1.0166 -1.4440 -1.7992
  291SOL    HW2 1658   1.757   0.923   0.132 -1.5989 -1.2098 -1.6856
  292SOL     OW 1659   2.099   1.877   5.162 -0.3977  0.4047  0.1132
  292SOL    HW1 1660   2.095   1.783   5.182  1.5124  0.3781  0.4589
  292SOL    HW2 1661   2.017   1.895   5.117 -2.1541 -0.7770  2.7337
  293SOL     OW 1662   1.373   2.717   4.912  0.5892 -0.1846  0.1588
  293SOL    HW1 1663   1.352   2.675   4.828  3.4505  0.3795 -0.8962
  293SOL    HW2 1664   1.444   2.664   4.948  0.4161  0.4816  1.4980
  294SOL     OW 1665   2.703   1.201   4.349  1.1049  0.0468  0.6138
  294SOL    HW1 1666   2.696   1.230   4.440  0.8186 -1.8421  1.2089
  294SOL    HW2 1667   2.735   1.111   4.355 -0.6866 -0.7353 -1.0862
  295SOL     OW 1668   3.217   0.909   5.173 -0.2018  0.4833  1.1543
  295SOL    HW1 1669   3.192   0.832   5.224 -3.1076  0.8017  0.2728
  295SOL    HW2 1670   3.163   0.980   5.209 -2.0553  0.7854 -2.0916
  296SOL     OW 1671   1.407   1.399   0.050  0.2653  0.2919 -0.2130
  296SOL    HW1 1672   1.405   1.351   0.133  0.4712  2.3311  1.0140
  296SOL    HW2 1673   1.499   1.413   0.032  0.1897  0.8556 -0.1753
  297SOL     OW 1674   2.517   3.534   4.503  0.2106 -0.1792 -0.6748
  297SOL    HW1 1675   2.531   3.535   4.597  1.5442 -0.3179 -0.8565
  297SOL    HW2 1676   2.423   3.521   4.492  0.2094 -1.3306  0.6247
  298SOL     OW 1677   1.827   3.070   5.000  0.1018 -0.1546 -0.5186
  298SOL    HW1 1678   1.748   3.019   5.016 -1.1076  2.0648  0.6883
  298SOL    HW2 1679   1.802   3.132   4.931 -0.2867  2.8194  2.1873
  299SOL     OW 1680   2.696   1.364   0.281  0.2327  0.0152  0.4398
  299SOL    HW1 1681   2.757   1.432   0.253  0.6657  0.5511  2.5994
  299SOL    HW2 1682   2.723   1.286   0.232  2.1095  0.4831  0.6859
  300SOL     OW 1683   2.708   2.562   0.051 -0.0856 -0.2338 -0.7103
  300SOL    HW1 1684   2.704   2.596  -0.039  0.3003 -0.8494 -0.9702
  300SOL    HW2 1685   2.784   2.605   0.090 -1.5233  1.6817  0.0368
  301SOL     OW 1686   2.280   3.182   0.814  0.3869  0.1012 -0.0160
  301SOL    HW1 1687   2.322   3.113   0.762  3.5201  1.2354  0.8835
  301SOL    HW2 1688   2.286   3.260   0.758 -1.1702  0.1324 -0.1495
  302SOL     OW 1689   2.888   0.897   0.666 -0.4471  0.0827 -0.1754
  302SOL    HW1 1690   2.970   0.938   0.639  0.5779 -2.6851 -1.4796
  302SOL    HW2 1691   2.882   0.914   0.760  1.9056 -0.1647  0.0535
  303SOL     OW 1692   3.504   3.442   0.209 -0.1698 -0.0744  0.1315
  303SOL    HW1 1693   3.583   3.388   0.208 -0.6558 -0.7897 -0.0843
  303SOL    HW2 1694   3.505   3.486   0.294 -0.2845 -1.2007  0.7196
  304SOL     OW 1695   2.898   3.979   0.722 -0.5009 -0.4394 -0.4367
  304SOL    HW1 1696   2.812   3.970   0.764 -0.0727 -0.1822  0.5045
  304SOL    HW2 1697   2.954   3.917   0.769  0.0425  0.0396 -0.4484
  305SOL     OW 1698   2.533   4.445   1.053  0.1082 -0.0389  0.0747
  305SOL    HW1 1699   2.494   4.484   1.132  2.1278 -1.4985  1.8602
  305SOL    HW2 1700   2.465   4.385   1.021  0.2836 -1.5103  2.3331
  306SOL     OW 1701   1.846   5.087   5.034 -0.1127 -0.3982  0.0423
  306SOL    HW1 1702   1.907   5.019   5.004  0.4220  1.5597 -3.6991
  306SOL    HW2 1703   1.762   5.042   5.041  0.7746 -2.0495  0.4323
  307SOL     OW 1704   1.581   2.051   2.464 -0.9860 -0.6699  0.1359
  307SOL    HW1 1705   1.599   2.077   2.373 -0.0028 -0.6414  0.3362
  307SOL    HW2 1706   1.616   2.122   2.517 -2.2546 -0.3179  0.5208
  308SOL     OW 1707   0.995   3.709   5.054  0.7657 -0.0564 -0.6929
  308SOL    HW1 1708   0.998   3.802   5.032  1.0197  0.3579  1.0276
  308SOL    HW2 1709   0.963   3.707   5.144 -1.1064 -1.7310 -1.3545
  309SOL     OW 1710   3.662   3.520   4.910  0.4445  0.6460  0.2931
  309SOL    HW1 1711   3.651   3.598   4.855 -0.9424  1.3275  1.4896
  309SOL    HW2 1712   3.638   3.447   4.854  1.5080  1.0981 -0.7726
  310SOL     OW 1713   1.294   4.688   0.928  0.3219  0.3309 -0.1861
  310SOL    HW1 1714   1.223   4.665   0.987  0.7575 -0.2192  0.1272
  310SOL    HW2 1715   1.284   4.627   0.854  0.0842  0.6785 -0.4412
  311SOL     OW 1716   0.635   3.589   1.140  0.9844  0.1836 -0.0999
  311SOL    HW1 1717   0.719   3.591   1.185  0.2904 -0.0643  1.2399
  311SOL    HW2 1718   0.590   3.514   1.177  0.7270 -0.5432 -1.8472
  312SOL     OW 1719   1.763   4.020   4.333  0.1661  0.6561  0.3382
  312SOL    HW1 1720   1.783   3.927   4.324  0.4330  0.8625 -1.2255
  312SOL    HW2 1721   1.668   4.023   4.348  0.0765  0.1673 -0.1323
  313SOL     OW 1722   2.670   2.214   0.609  0.1035 -0.4436 -0.5268
  313SOL    HW1 1723   2.692   2.218   0.703 -1.6611 -2.0736 -0.0143
  313SOL    HW2 1724   2.574   2.221   0.607  0.1047 -0.8893 -2.1909
  314SOL     OW 1725   1.792   3.367   0.924  0.1293  0.2861 -0.1307
  314SOL    HW1 1726   1.868   3.373   0.982  0.1798  0.4747 -0.2126
  314SOL    HW2 1727   1.822   3.407   0.842  0.2864 -0.6356 -0.5235
  315SOL     OW 1728   0.498   3.436   4.909 -0.6173 -0.4186  0.2923
  315SOL    HW1 1729   0.449   3.485   4.975 -0.9983 -0.1689 -0.1720
  315SOL    HW2 1730   0.572   3.493   4.887  0.6415 -1.3712  1.9697
  316SOL     OW 1731   2.070   2.867   0.579  0.1911 -0.1854 -0.2624
  316SOL    HW1 1732   1.986   2.825   0.560  0.8244 -1.1302 -1.0485
  316SOL    HW2 1733   2.050   2.934   0.643 -1.1668 -0.4164 -0.4400
  317SOL     OW 1734   1.192   1.424   1.143 -0.3717  0.1524 -0.9148
  317SOL    HW1 1735   1.245   1.346   1.124  2.9536  1.6560  1.4911
  317SOL    HW2 1736   1.256   1.496   1.144 -2.7004  2.2929  0.7065
  318SOL     OW 1737   1.222   1.724   5.057  0.2469 -0.3564  0.0621
  318SOL    HW1 1738   1.139   1.772   5.053 -0.3255 -1.3119  0.1048
  318SOL    HW2 1739   1.281   1.780   5.106 -1.6247 -1.4542  3.7718
  319SOL     OW 1740   0.767   2.669   5.007 -0.0857 -0.1814 -0.0417
  319SOL    HW1 1741   0.789   2.576   5.012  1.1932  0.1178  0.1029
  319SOL    HW2 1742   0.679   2.671   4.970 -0.3259 -1.4698  0.4388
  320SOL     OW 1743   2.146   5.169   5.033  0.1811 -0.3679  0.3548
  320SOL    HW1 1744   2.057   5.198   5.011  0.8195  2.6595  1.5428
  320SOL    HW2 1745   2.134   5.107   5.106 -1.0579 -1.3479 -0.6681
  321SOL     OW 1746   1.261   1.845   1.602  0.0360  0.4284  0.3241
  321SOL    HW1 1747   1.177   1.803   1.584  0.3302 -0.0626  0.1038
  321SOL    HW2 1748   1.323   1.773   1.611  0.2525  0.7423  1.4639
  322SOL     OW 1749   2.879   1.575   0.249  0.3230  0.0587  0.1675
  322SOL    HW1 1750   2.913   1.608   0.166  1.0057 -1.3935 -0.1549
  322SOL    HW2 1751   2.953   1.580   0.310  0.5569 -1.2370  0.0029
  323SOL     OW 1752   2.424   0.390   0.852  0.5828 -0.0915  0.1543
  323SOL    HW1 1753   2.489   0.395   0.782 -0.2094 -1.0194 -0.6561
  323SOL    HW2 1754   2.397   0.481   0.866  1.8166  0.2616  0.2817
  324SOL     OW 1755   1.241   2.144   4.902  0.0228 -0.6412 -0.4095
  324SOL    HW1 1756   1.169   2.084   4.923 -0.1213 -0.1112  0.6240
  324SOL    HW2 1757   1.203   2.205   4.840 -0.8061  0.4228  1.1210
  325SOL     OW 1758   1.084   2.086   0.580  0.4276 -0.1800  0.7070
  325SOL    HW1 1759   1.061   2.126   0.665  3.0477 -0.0962  1.4065
  325SOL    HW2 1760   1.008   2.032   0.559 -1.4673  1.9365  1.7507
  326SOL     OW 1761   2.992   4.976   4.946 -0.2855  0.0518 -0.6827
  326SOL    HW1 1762   2.992   5.067   4.917 -3.3106  0.2895 -0.0726
  326SOL    HW2 1763   3.077   4.941   4.916  1.4247  3.3422  0.1140
  327SOL     OW 1764   1.153   4.347   1.182 -0.7260 -0.2488  0.2967
  327SOL    HW1 1765   1.161   4.262   1.139 -0.9612 -0.8846  1.4753
  327SOL    HW2 1766   1.213   4.341   1.257  1.1704  1.5468 -1.0130
  328SOL     OW 1767   2.794   3.947   4.869  0.0801 -0.3848  0.0455
  328SOL    HW1 1768   2.864   3.883   4.854 -1.0709 -1.2288 -1.8928
  328SOL    HW2 1769   2.840   4.031   4.877  1.3960 -1.0903  0.0789
  329SOL     OW 1770   2.960   4.650   5.056 -0.4974  0.6287 -0.3907
  329SOL    HW1 1771   2.964   4.745   5.058 -2.1681  0.7265 -0.6682
  329SOL    HW2 1772   3.051   4.622   5.047 -0.0202  2.2006 -0.6265
  330SOL     OW 1773   2.871   3.857   1.422  0.5838 -0.1400  0.3642
  330SOL    HW1 1774   2.917   3.835   1.341  3.4557  1.3761  1.4687
  330SOL    HW2 1775   2.926   3.819   1.491 -1.3594 -0.6739  1.6460
  331SOL     OW 1776   3.329   4.044   0.577 -0.5508  0.2037 -0.6474
  331SOL    HW1 1777   3.242   4.007   0.565 -1.1022  1.3033 -0.1297
  331SOL    HW2 1778   3.341   4.044   0.672 -0.0067  0.1111 -0.7155
  332SOL     OW 1779   3.024   3.653   4.089 -0.3946  0.1130  0.6183
  332SOL    HW1 1780   3.082   3.589   4.130 -0.4101  0.3101  0.9489
  332SOL    HW2 1781   3.058   3.738   4.117  0.6012  0.3125 -1.1339
  333SOL     OW 1782   2.372   0.572   4.657  0.0059 -0.5111 -0.1396
  333SOL    HW1 1783   2.286   0.594   4.622 -0.6984 -1.1300  1.1703
  333SOL    HW2 1784   2.361   0.577   4.752  1.3164 -0.9603  0.0416
  334SOL     OW 1785   0.655   2.861   4.785 -0.4088  0.3846  0.7583
  334SOL    HW1 1786   0.649   2.818   4.699 -1.5390 -1.3490  1.6767
  334SOL    HW2 1787   0.587   2.928   4.784 -0.6712  0.1133  0.4449
  335SOL     OW 1788   1.443   3.281   4.762  0.2906  0.2291  0.0756
  335SOL    HW1 1789   1.504   3.338   4.810 -0.6324  1.1893  0.1199
  335SOL    HW2 1790   1.384   3.342   4.717 -0.1920 -0.6905 -0.5401
  336SOL     OW 1791   0.943   3.454   0.076 -0.6014 -0.6134  0.1358
  336SOL    HW1 1792   1.020   3.472   0.129 -0.0137 -1.7957 -0.3063
  336SOL    HW2 1793   0.934   3.530   0.019 -0.2883 -0.0741  0.7999
  337SOL     OW 1794   2.455   4.026   4.974 -0.7241 -0.5657 -0.3226
  337SOL    HW1 1795   2.444   4.092   5.042  1.1678  1.0461 -1.5460
  337SOL    HW2 1796   2.471   4.075   4.894  0.3730 -2.4805 -1.3228
  338SOL     OW 1797   4.337   2.757   4.676 -0.3436 -0.2449 -0.2469
  338SOL    HW1 1798   4.372   2.673   4.647 -0.4221 -0.4874  0.3521
  338SOL    HW2 1799   4.372   2.768   4.765 -1.6997 -0.4416  0.3203
  339SOL     OW 1800   0.583   3.367   1.298  0.2627  0.4011  0.5138
  339SOL    HW1 1801   0.630   3.288   1.272 -1.1933  0.4479 -2.4584
  339SOL    HW2 1802   0.610   3.382   1.389  0.2672 -3.7085  1.2910
  340SOL     OW 1803   1.413   5.094   1.047 -0.3507  0.3305  0.1741
  340SOL    HW1 1804   1.372   5.173   1.012  0.2951  1.2515  1.4622
  340SOL    HW2 1805   1.469   5.125   1.118  1.3052 -1.0663 -0.4539
  341SOL     OW 1806   1.892   1.674   0.341  0.1547  0.5630  0.3681
  341SOL    HW1 1807   1.936   1.755   0.316 -1.3343  1.9571  2.1462
  341SOL    HW2 1808   1.832   1.656   0.268  0.4007  1.1150  0.0222
  342SOL     OW 1809   1.633   2.016   0.311  0.5514  0.1147 -0.1504
  342SOL    HW1 1810   1.586   2.013   0.394  0.2110 -2.0960 -0.3875
  342SOL    HW2 1811   1.707   2.074   0.326  0.3343 -0.0610  1.6074
  343SOL     OW 1812   1.340   5.111   0.281 -0.1952  0.2345  0.3044
  343SOL    HW1 1813   1.396   5.097   0.357 -1.0090 -0.2469  0.8338
  343SOL    HW2 1814   1.267   5.163   0.314 -1.5070 -1.5591  0.3050
  344SOL     OW 1815   2.502   3.341   5.005  0.3795  0.1421 -0.2308
  344SOL    HW1 1816   2.438   3.337   4.934 -0.1356  5.3881 -0.3118
  344SOL    HW2 1817   2.449   3.342   5.085  0.7046 -1.2578  0.0083
  345SOL     OW 1818   3.223   2.745   0.922 -0.3383  0.0187 -0.0176
  345SOL    HW1 1819   3.185   2.667   0.881  0.9573 -1.5810  1.7095
  345SOL    HW2 1820   3.179   2.752   1.006  0.3118  0.5139  0.2907
  346SOL     OW 1821   0.459   2.694   1.199  0.2406  0.0221 -0.4508
  346SOL    HW1 1822   0.424   2.616   1.243  1.0684 -1.3169 -2.1292
  346SOL    HW2 1823   0.416   2.768   1.244  1.2409 -1.2579  2.7760
  347SOL     OW 1824   1.192   1.806   0.205  0.3922 -0.1755  0.5808
  347SOL    HW1 1825   1.120   1.754   0.243  0.8409 -1.3745 -0.1941
  347SOL    HW2 1826   1.149   1.884   0.171 -0.5376 -0.8394  0.2085
  348SOL     OW 1827   1.106   1.084   0.026 -0.1048  0.3382  0.3150
  348SOL    HW1 1828   1.051   1.112   0.099  0.6806 -1.8793  1.7812
  348SOL    HW2 1829   1.194   1.081   0.061  0.2986 -0.6631 -0.7459
  349SOL     OW 1830   2.171   4.441   0.923  0.5652  0.2080  0.4812
  349SOL    HW1 1831   2.250   4.396   0.953  0.9989  1.1484  0.7939
  349SOL    HW2 1832   2.203   4.524   0.887  0.0599 -1.0130 -2.8778
  350SOL     OW 1833   2.725   3.432   5.268  0.3387  0.4426 -0.0130
  350SOL    HW1 1834   2.743   3.434   5.362  2.0661  1.6590 -0.3449
  350SOL    HW2 1835   2.654   3.495   5.257  0.2026  0.3790  0.4518
  351SOL     OW 1836   1.800   3.109   0.341 -0.5049  0.2564  0.2969
  351SOL    HW1 1837   1.868   3.068   0.288 -2.6525 -1.1202 -1.5013
  351SOL    HW2 1838   1.833   3.197   0.359  0.8388  0.3198 -2.2835
  352SOL     OW 1839   2.396   2.654   4.615 -0.1356 -0.4460  0.1050
  352SOL    HW1 1840   2.439   2.724   4.665  1.1134 -1.3581  0.3334
  352SOL    HW2 1841   2.374   2.695   4.531  0.9471  0.1182  0.0883
  353SOL     OW 1842   2.734   3.304   4.844  0.9522 -0.6556 -0.0690
  353SOL    HW1 1843   2.739   3.397   4.821  4.2580 -0.0690  2.6266
  353SOL    HW2 1844   2.785   3.260   4.776 -1.1616 -0.6736 -1.7264
  354SOL     OW 1845   0.974   1.853   5.051 -0.5031  0.5767  0.0451
  354SOL    HW1 1846   0.992   1.938   5.090 -1.1487  1.8743 -2.3563
  354SOL    HW2 1847   0.887   1.829   5.084  0.3702  0.0570  2.0084
  355SOL     OW 1848   2.773   3.044   4.368  0.2041  0.0990 -0.2950
  355SOL    HW1 1849   2.811   3.039   4.456  1.8251 -0.4118 -1.0179
  355SOL    HW2 1850   2.678   3.042   4.384  0.4731 -0.9280  1.3876
  356SOL     OW 1851   2.297   4.495   4.300  0.4308 -0.5081  0.6349
  356SOL    HW1 1852   2.339   4.543   4.229 -0.5896  4.3001  3.0658
  356SOL    HW2 1853   2.206   4.485   4.272  0.3876 -0.0083  0.5949
  357SOL     OW 1854   1.581   1.841   0.126  0.0627  1.1124  0.5453
  357SOL    HW1 1855   1.660   1.809   0.082 -0.3810  1.6471 -0.6440
  357SOL    HW2 1856   1.613   1.906   0.188  0.4555  2.1695 -0.7461
  358SOL     OW 1857   1.355   2.616   3.792  0.0811  0.6777  0.0992
  358SOL    HW1 1858   1.377   2.658   3.709  0.1313  1.7524  0.6482
  358SOL    HW2 1859   1.400   2.531   3.788 -3.0350 -0.9850 -2.5957
  359SOL     OW 1860   1.494   4.334   1.248  0.1863  0.1119  1.1683
  359SOL    HW1 1861   1.586   4.319   1.228  0.3022  0.6276  1.3085
  359SOL    HW2 1862   1.485   4.429   1.249 -0.6894  0.0578 -0.3516
  360SOL     OW 1863   1.558   3.178   4.327  0.1972  0.2539 -1.1135
  360SOL    HW1 1864   1.469   3.143   4.334 -0.6706  2.3583 -1.3635
  360SOL    HW2 1865   1.565   3.207   4.236  0.1938  2.5517 -0.4077
  361SOL     OW 1866   2.933   2.487   0.386 -0.8982  0.9294  0.1045
  361SOL    HW1 1867   2.944   2.452   0.474  0.0838  0.5767 -0.1578
  361SOL    HW2 1868   2.903   2.577   0.399 -0.5427  0.9462  0.7890
  362SOL     OW 1869   2.633   3.481   1.261 -0.2599  0.2252  0.1702
  362SOL    HW1 1870   2.689   3.529   1.200 -1.4806  1.0777 -0.3145
  362SOL    HW2 1871   2.680   3.484   1.344  0.6861  0.4200 -0.3708
  363SOL     OW 1872   2.665   4.709   4.830 -0.4443  0.1085  0.1363
  363SOL    HW1 1873   2.588   4.668   4.869  1.2572 -1.2096  2.2459
  363SOL    HW2 1874   2.706   4.638   4.779 -1.6481  1.3249 -2.6099
  364SOL     OW 1875   2.538   4.342   5.173  0.2192  0.3082 -0.5493
  364SOL    HW1 1876   2.558   4.296   5.255  1.1113  0.2108 -0.8197
  364SOL    HW2 1877   2.450   4.312   5.150  0.5294 -0.7582 -0.3711
  365SOL     OW 1878   2.519   0.668   0.163 -0.1692  0.4460 -0.2777
  365SOL    HW1 1879   2.586   0.615   0.121  0.1411 -1.5609  2.5985
  365SOL    HW2 1880   2.442   0.611   0.168 -0.1154  0.5335  2.0490
  366SOL     OW 1881   0.948   3.034   1.256  0.1536 -0.6920 -0.2710
  366SOL    HW1 1882   1.007   3.093   1.304 -0.7475 -1.4482  1.8136
  366SOL    HW2 1883   1.004   2.964   1.223  0.3565 -1.7398  2.2345
  367SOL     OW 1884   1.982   1.861   0.675  0.8630  0.0638 -0.1676
  367SOL    HW1 1885   2.018   1.881   0.761  0.2239  1.6093 -0.2544
  367SOL    HW2 1886   1.979   1.945   0.629 -2.9177  0.0227 -0.1223
  368SOL     OW 1887   1.598   2.205   4.804  0.1000  0.0154  0.5166
  368SOL    HW1 1888   1.606   2.139   4.735 -0.8708 -0.3985  0.7969
  368SOL    HW2 1889   1.675   2.261   4.793  0.3388 -0.4977 -0.4283
  369SOL     OW 1890   2.070   3.692   5.050  0.0951  0.4060  0.4770
  369SOL    HW1 1891   2.166   3.693   5.051  0.1186 -0.1814 -0.5097
  369SOL    HW2 1892   2.047   3.646   4.969 -1.0343  1.9162 -0.0837
  370SOL     OW 1893   2.974   5.205   4.764 -0.1490 -0.5849 -0.3691
  370SOL    HW1 1894   2.965   5.149   4.687  3.1166  0.9994 -1.9541
  370SOL    HW2 1895   2.909   5.274   4.751 -0.9511 -1.3862 -0.6953
  371SOL     OW 1896   2.486   1.510   1.187  0.4110  0.1253 -0.5790
  371SOL    HW1 1897   2.530   1.558   1.117  0.9915  1.2931  0.5636
  371SOL    HW2 1898   2.539   1.527   1.265 -0.0745 -1.3672  0.1021
  372SOL     OW 1899   3.217   2.957   4.581 -0.4429  0.5021 -0.5475
  372SOL    HW1 1900   3.157   2.908   4.525  1.3522 -1.9134 -0.4513
  372SOL    HW2 1901   3.169   2.967   4.664 -1.3882  0.1353 -1.0400
  373SOL     OW 1902   1.353   4.233   5.278 -0.0503 -0.2757 -0.2219
  373SOL    HW1 1903   1.292   4.276   5.339 -0.8858 -2.0245  0.2323
  373SOL    HW2 1904   1.306   4.154   5.250  1.8887 -1.5029 -0.1102
  374SOL     OW 1905   3.512   3.802   5.125 -0.2096 -1.0684  0.7789
  374SOL    HW1 1906   3.488   3.716   5.160 -1.3412 -1.7295 -1.4846
  374SOL    HW2 1907   3.432   3.834   5.085 -0.3411  1.9892  3.3397
  375SOL     OW 1908   2.107   1.713   2.415 -0.5817 -0.8590 -0.8125
  375SOL    HW1 1909   2.044   1.763   2.466  1.1562 -0.6969  1.2306
  375SOL    HW2 1910   2.187   1.766   2.416  0.1055 -1.8473 -1.9181
  376SOL     OW 1911   1.936   0.423   0.299 -0.0318 -0.2714 -0.2269
  376SOL    HW1 1912   1.868   0.371   0.257  0.0848 -1.3708  0.9132
  376SOL    HW2 1913   2.003   0.359   0.326  0.5855  0.5736  0.2839
  377SOL     OW 1914   1.677   1.119   0.461  0.3443  0.8037 -0.4572
  377SOL    HW1 1915   1.685   1.047   0.524 -1.0302  1.5072  0.5486
  377SOL    HW2 1916   1.746   1.180   0.486 -0.9005  1.6142  1.1294
  378SOL     OW 1917   2.099   3.501   1.172  0.1169  0.3532  0.7150
  378SOL    HW1 1918   2.179   3.519   1.223 -0.5947  4.3439  0.5702
  378SOL    HW2 1919   2.064   3.588   1.151 -1.4035 -1.2430 -3.8221
  379SOL     OW 1920   2.613   3.837   0.813  0.4380 -0.2516 -0.5888
  379SOL    HW1 1921   2.598   3.789   0.732  1.2084 -1.1890 -0.1911
  379SOL    HW2 1922   2.637   3.770   0.876 -0.6007  0.4258  0.5389
  380SOL     OW 1923   1.935   1.034   4.756 -0.0920 -0.4311 -0.3268
  380SOL    HW1 1924   1.963   1.092   4.827 -1.9693 -1.3256  1.1677
  380SOL    HW2 1925   1.949   1.085   4.676  1.4081  0.8297  0.7211
  381SOL     OW 1926   1.415   1.894   4.840  0.1601 -0.0109  0.5041
  381SOL    HW1 1927   1.399   1.914   4.748 -1.4192 -0.0454  0.7566
  381SOL    HW2 1928   1.373   1.966   4.888 -1.6024 -1.5104  1.2682
  382SOL     OW 1929   3.278   2.903   5.223  0.4540 -0.0683 -0.0752
  382SOL    HW1 1930   3.323   2.888   5.140  0.3764 -1.6157  0.1491
  382SOL    HW2 1931   3.186   2.884   5.204  0.6825 -2.1877  0.7809
  383SOL     OW 1932   3.003   2.287   5.270  0.5370 -0.2712  0.5330
  383SOL    HW1 1933   3.044   2.304   5.355 -2.0433  1.7199  1.4244
  383SOL    HW2 1934   2.930   2.229   5.290  1.5009 -1.9844 -0.7473
  384SOL     OW 1935   3.718   2.049   5.227  0.2845 -0.8615 -1.0031
  384SOL    HW1 1936   3.755   2.133   5.255  3.4117 -2.0815 -1.3610
  384SOL    HW2 1937   3.624   2.068   5.216  0.5251  1.9641  1.1808
  385SOL     OW 1938   3.180   3.618   5.272  0.3364 -0.3712 -0.2265
  385SOL    HW1 1939   3.271   3.639   5.253  0.2193  1.0529  0.7025
  385SOL    HW2 1940   3.129   3.683   5.224 -0.1165 -0.0083  0.7137
  386SOL     OW 1941   2.020   4.251   0.756 -0.0888 -0.2953 -0.0802
  386SOL    HW1 1942   1.930   4.282   0.753 -0.2187 -0.7691 -1.3671
  386SOL    HW2 1943   2.052   4.277   0.843 -0.9490  1.2927 -0.2338
  387SOL     OW 1944   2.229   0.917   0.772 -0.2607 -0.3280 -0.0625
  387SOL    HW1 1945   2.293   0.846   0.768 -0.9888 -1.0475  0.9275
  387SOL    HW2 1946   2.225   0.949   0.682  0.5353 -1.1274 -0.4010
  388SOL     OW 1947   1.193   2.760   4.108 -0.6355 -0.1038 -0.0490
  388SOL    HW1 1948   1.215   2.685   4.163 -0.9877 -0.1754 -0.0067
  388SOL    HW2 1949   1.175   2.722   4.022 -0.9745 -0.0854  0.0138
  389SOL     OW 1950   2.477   1.817   0.047 -0.1030 -0.1383  0.4035
  389SOL    HW1 1951   2.444   1.780  -0.035  1.0327  1.3206 -0.7418
  389SOL    HW2 1952   2.414   1.885   0.070  0.5825  0.7449 -0.2914
  390SOL     OW 1953   1.440   1.135   5.164  1.0204 -0.4666 -0.2878
  390SOL    HW1 1954   1.436   1.230   5.169  2.2110 -0.4842  1.5994
  390SOL    HW2 1955   1.531   1.116   5.143  0.8389 -1.1890 -0.4336
  391SOL     OW 1956   1.636   0.436   5.168 -0.2938  0.1990 -0.9430
  391SOL    HW1 1957   1.696   0.407   5.099  0.9907  0.3170  0.1196
  391SOL    HW2 1958   1.657   0.529   5.180 -2.9102  1.1179 -2.8103
  392SOL     OW 1959   1.226   3.131   4.333 -0.0695  0.4392 -0.2003
  392SOL    HW1 1960   1.201   3.163   4.420  4.1061 -0.9892  1.6503
  392SOL    HW2 1961   1.200   3.039   4.333 -1.8702  0.9097 -1.3016
  393SOL     OW 1962   2.627   3.710   5.064 -0.3630 -0.3035 -0.6075
  393SOL    HW1 1963   2.615   3.748   5.151 -1.3181 -2.0348  0.0438
  393SOL    HW2 1964   2.703   3.652   5.073 -0.8511 -0.9769 -0.7395
  394SOL     OW 1965   1.420   2.397   1.210 -0.0653  0.3435  0.1862
  394SOL    HW1 1966   1.468   2.419   1.290  1.8895  0.4869 -0.9984
  394SOL    HW2 1967   1.397   2.482   1.172  1.3599  0.3422 -0.7532
  395SOL     OW 1968   0.988   3.981   4.961  0.2280  0.0189 -0.5178
  395SOL    HW1 1969   0.966   4.074   4.958 -2.7772 -0.6097  0.3348
  395SOL    HW2 1970   0.947   3.943   4.884  3.7207 -0.2210 -2.3558
  396SOL     OW 1971   2.346   2.404   5.228 -0.2424  0.8407 -0.2528
  396SOL    HW1 1972   2.348   2.424   5.135 -1.3451  2.2393  0.0125
  396SOL    HW2 1973   2.256   2.377   5.245  0.1324 -0.1022  0.2731
  397SOL     OW 1974   1.536   1.696   4.575 -0.5120 -0.1937  0.0530
  397SOL    HW1 1975   1.623   1.667   4.602 -0.4183 -0.6595 -0.7325
  397SOL    HW2 1976   1.476   1.652   4.634 -0.2485 -0.4075  0.1612
  398SOL     OW 1977   1.005   2.418   5.247 -0.6075 -0.1800  0.1770
  398SOL    HW1 1978   0.967   2.465   5.321  0.5831  0.6626  0.2798
  398SOL    HW2 1979   0.963   2.332   5.249 -1.1588  0.1013  1.3606
  399SOL     OW 1980   2.143   4.951   4.552 -0.4406  0.4384 -0.2718
  399SOL    HW1 1981   2.149   4.882   4.486 -1.7281  0.8160 -0.7937
  399SOL    HW2 1982   2.135   5.032   4.501  0.9796  0.9841  0.3295
  400SOL     OW 1983   2.209   1.079   1.356  0.3985  0.4714 -0.5417
  400SOL    HW1 1984   2.197   1.043   1.268 -5.0268 -0.1263  0.2533
  400SOL    HW2 1985   2.199   1.003   1.414 -2.9224  1.8507  0.7898
  401SOL     OW 1986   1.560   4.481   0.153 -0.0495 -0.2195 -0.1997
  401SOL    HW1 1987   1.473   4.491   0.191 -0.2029 -0.2103 -0.5509
  401SOL    HW2 1988   1.573   4.559   0.100  0.6543  0.3395  0.7800
  402SOL     OW 1989   1.090   2.460   0.983  0.0551 -0.1258 -0.0081
  402SOL    HW1 1990   1.082   2.377   1.029 -2.8300 -0.5257 -1.1179
  402SOL    HW2 1991   1.018   2.513   1.017  1.4101  1.6743  0.1405
  403SOL     OW 1992   1.820   1.808   0.998 -0.1715 -0.2153  0.5462
  403SOL    HW1 1993   1.884   1.836   1.064  0.9127  2.9776 -1.7661
  403SOL    HW2 1994   1.744   1.864   1.013 -0.9550 -1.3021  0.7326
  404SOL     OW 1995   2.531   1.766   0.306  0.3319  0.9989  0.1174
  404SOL    HW1 1996   2.504   1.851   0.270 -2.0573  0.4066  0.4620
  404SOL    HW2 1997   2.469   1.749   0.377  2.2004  0.0065  1.5410
  405SOL     OW 1998   2.335   1.318   0.343  0.1252 -0.4660  0.1855
  405SOL    HW1 1999   2.267   1.356   0.287  0.0080  1.0867  1.3251
  405SOL    HW2 2000   2.304   1.230   0.362 -0.3898 -0.6037 -1.2572
  406SOL     OW 2001   1.541   2.420   4.579 -0.0119 -0.3414 -0.1524
  406SOL    HW1 2002   1.509   2.346   4.631  2.2583 -1.1014  0.2159
  406SOL    HW2 2003   1.636   2.422   4.596  0.1823  1.7178 -1.3409
  407SOL     OW 2004   1.451   1.250   4.847  0.0191  0.5499 -0.0276
  407SOL    HW1 2005   1.378   1.275   4.903  0.7520  3.6236 -0.3027
  407SOL    HW2 2006   1.495   1.179   4.894 -2.7334 -0.9145  0.4136
  408SOL     OW 2007   1.274   4.575   0.119  0.8489  0.0361 -0.6787
  408SOL    HW1 2008   1.271   4.668   0.142 -0.8155 -0.7548  2.6113
  408SOL    HW2 2009   1.183   4.551   0.103  1.3964 -0.7886 -2.6651
  409SOL     OW 2010   3.105   1.084   0.049  0.4600  0.2587 -0.1301
  409SOL    HW1 2011   3.153   1.035   0.117 -1.6802 -0.2549  1.0659
  409SOL    HW2 2012   3.013   1.069   0.071 -0.2838 -0.3986 -3.5181
  410SOL     OW 2013   1.053   4.326   0.780  0.6550  0.8099 -0.0254
  410SOL    HW1 2014   1.074   4.247   0.729  0.8435  0.8886 -0.0712
  410SOL    HW2 2015   1.076   4.399   0.722 -2.0435  0.9223 -1.0315
  411SOL     OW 2016   2.103   3.763   1.245 -0.1800 -0.2159  0.0678
  411SOL    HW1 2017   2.162   3.818   1.193  1.4706 -2.5114 -0.5905
  411SOL    HW2 2018   2.020   3.810   1.245  0.4617  1.0494 -2.5990
  412SOL     OW 2019   3.242   4.629   5.120  0.6479  0.2835  0.3215
  412SOL    HW1 2020   3.269   4.611   5.211 -0.6732  0.9524  0.8557
  412SOL    HW2 2021   3.323   4.657   5.077  1.3006 -0.0658  1.2782
  413SOL     OW 2022   3.363   4.496   0.064 -0.5442  0.3375  0.1267
  413SOL    HW1 2023   3.430   4.450   0.014 -1.3640 -1.1122  0.3216
  413SOL    HW2 2024   3.306   4.426   0.098 -0.6211  1.3464  2.1641
  414SOL     OW 2025   1.595   3.348   2.082  0.6960  0.1241  0.5458
  414SOL    HW1 2026   1.656   3.357   2.008 -1.0754  1.7947 -0.7797
  414SOL    HW2 2027   1.542   3.271   2.060  0.8920 -0.0232  0.5955
  415SOL     OW 2028   3.840   2.744   4.420  0.1010 -0.0863  0.0356
  415SOL    HW1 2029   3.843   2.663   4.472 -2.2972  0.2788  0.7923
  415SOL    HW2 2030   3.865   2.813   4.483 -0.4218  0.0718  0.0689
  416SOL     OW 2031   3.394   2.245   5.241 -0.0596 -0.1091 -0.6388
  416SOL    HW1 2032   3.406   2.157   5.205 -0.1596 -0.3380 -0.1264
  416SOL    HW2 2033   3.479   2.267   5.279 -0.2782 -0.3460  0.0030
  417SOL     OW 2034   2.038   4.181   4.474 -0.3520  0.1362  0.5100
  417SOL    HW1 2035   2.013   4.249   4.411 -0.8669 -0.5585 -0.0506
  417SOL    HW2 2036   2.132   4.170   4.462 -0.1187  1.3793  1.2276
  418SOL     OW 2037   2.658   3.020   1.172 -0.1607  0.5456  0.6016
  418SOL    HW1 2038   2.607   3.064   1.104  0.2633 -1.6222 -1.1855
  418SOL    HW2 2039   2.624   2.930   1.174  1.7177 -0.1886  1.2920
  419SOL     OW 2040   3.403   3.126   4.420 -0.2443  0.4136  0.0351
  419SOL    HW1 2041   3.392   3.156   4.330 -2.8738 -0.0607  0.1580
  419SOL    HW2 2042   3.383   3.033   4.417  1.3063  0.0270  0.8465
  420SOL     OW 2043   1.667   2.247   0.578 -0.0916  0.7872 -0.3189
  420SOL    HW1 2044   1.727   2.188   0.533  0.3031  0.5773  0.4779
  420SOL    HW2 2045   1.628   2.299   0.508 -0.0962 -0.0973 -0.9742
  421SOL     OW 2046   3.991   2.606   5.028 -0.5554  0.6763  0.0228
  421SOL    HW1 2047   3.898   2.607   5.052 -0.5913  0.5142 -0.1101
  421SOL    HW2 2048   4.015   2.699   5.021 -0.5575  0.7241  0.6402
  422SOL     OW 2049   2.207   3.391   1.871  0.0461 -0.5644  0.6170
  422SOL    HW1 2050   2.212   3.477   1.912 -0.4686 -0.0670 -0.3323
  422SOL    HW2 2051   2.256   3.333   1.929  0.4624  0.3868  1.2209
  423SOL     OW 2052   2.456   0.676   0.883  0.1692 -0.4016  0.1913
  423SOL    HW1 2053   2.469   0.762   0.922 -0.6846 -0.8480  1.4804
  423SOL    HW2 2054   2.469   0.691   0.789 -0.5196  1.2409  0.3336
  424SOL     OW 2055   1.553   2.804   0.193  0.1542  0.2486  0.2506
  424SOL    HW1 2056   1.485   2.858   0.234 -0.2301  0.0891 -0.1706
  424SOL    HW2 2057   1.505   2.744   0.135  0.5927 -0.4265  0.5794
  425SOL     OW 2058   0.712   2.398   5.054 -0.0815  0.3709 -0.1252
  425SOL    HW1 2059   0.765   2.320   5.037  3.0923  1.8318  2.4953
  425SOL    HW2 2060   0.670   2.381   5.138 -2.5417 -0.0300 -1.3603
  426SOL     OW 2061   2.173   3.709   0.808  0.4654 -0.0259  0.4909
  426SOL    HW1 2062   2.179   3.805   0.813  5.0277 -0.2522  0.9522
  426SOL    HW2 2063   2.216   3.686   0.726 -0.8135 -1.7057  0.2599
  427SOL     OW 2064   4.202   2.431   5.009  0.0237 -0.1117  0.1428
  427SOL    HW1 2065   4.260   2.397   5.078 -0.6216 -1.9345 -0.1853
  427SOL    HW2 2066   4.130   2.472   5.056 -0.6079 -1.6885  0.5716
  428SOL     OW 2067   2.075   4.768   0.632  0.4344 -0.3255  0.2160
  428SOL    HW1 2068   2.155   4.800   0.590 -0.7386 -1.6421 -3.1724
  428SOL    HW2 2069   2.101   4.687   0.676  0.9370 -0.7860 -0.9359
  429SOL     OW 2070   3.127   3.508   0.985 -0.2030 -0.1942 -0.3148
  429SOL    HW1 2071   3.203   3.470   0.940 -0.5106  0.8858 -1.7722
  429SOL    HW2 2072   3.068   3.435   1.000  0.7991 -0.9144  0.1465
  430SOL     OW 2073   2.635   3.652   4.169  0.5893 -0.2348  0.2057
  430SOL    HW1 2074   2.569   3.720   4.159  1.9426  1.4206  2.1243
  430SOL    HW2 2075   2.647   3.617   4.081 -2.0198  0.1851 -0.3561
  431SOL     OW 2076   3.371   2.536   1.241 -0.0856  0.6451  0.1278
  431SOL    HW1 2077   3.378   2.576   1.327 -0.1916  2.1301 -0.5318
  431SOL    HW2 2078   3.293   2.575   1.202  1.3385  1.8749 -1.5777
  432SOL     OW 2079   3.453   3.603   0.006  0.3283 -0.9116 -0.6132
  432SOL    HW1 2080   3.548   3.592   0.002  0.9172  1.7098  3.4825
  432SOL    HW2 2081   3.429   3.567   0.091 -1.5804  3.0082  0.6009
  433SOL     OW 2082   1.648   3.424   1.776  0.0645  0.5118 -0.2433
  433SOL    HW1 2083   1.572   3.471   1.743 -0.1675 -0.2886 -0.8612
  433SOL    HW2 2084   1.695   3.395   1.698  1.3417  1.5349  0.1293
  434SOL     OW 2085   2.028   1.307   0.068 -0.2119 -0.1366  0.1068
  434SOL    HW1 2086   1.935   1.314   0.090  0.3521  0.6348  2.2928
  434SOL    HW2 2087   2.054   1.221   0.101 -0.2345 -0.5673 -0.9523
  435SOL     OW 2088   3.169   4.077   4.710 -0.2851 -0.6696 -0.3961
  435SOL    HW1 2089   3.240   4.023   4.744  0.8716  0.6425 -0.6951
  435SOL    HW2 2090   3.109   4.015   4.670 -0.0767 -1.9406  1.2054
  436SOL     OW 2091   2.910   3.690   0.825  0.4076 -0.1019  0.3879
  436SOL    HW1 2092   2.857   3.637   0.767 -1.2731  1.1174  0.7810
  436SOL    HW2 2093   2.952   3.628   0.884 -1.2554 -1.0112  0.6170
  437SOL     OW 2094   3.352   0.647   0.220 -0.1815  0.3610  0.0737
  437SOL    HW1 2095   3.388   0.648   0.131  0.1164  0.3752  0.1957
  437SOL    HW2 2096   3.331   0.555   0.235 -4.6610  0.9353 -1.8010
  438SOL     OW 2097   1.269   2.187   1.698 -0.5546 -0.0592  0.1679
  438SOL    HW1 2098   1.356   2.185   1.660 -1.1039 -2.5329 -1.0599
  438SOL    HW2 2099   1.283   2.211   1.790  1.7467 -3.3586  0.7492
  439SOL     OW 2100   0.667   1.985   5.269  0.6608 -0.5921 -0.1102
  439SOL    HW1 2101   0.628   1.905   5.232 -0.2792 -0.0580 -0.2880
  439SOL    HW2 2102   0.675   2.044   5.194 -0.7736  0.3116  0.4311
  440SOL     OW 2103   1.410   1.604   1.128 -0.1641 -0.4407 -0.3150
  440SOL    HW1 2104   1.422   1.683   1.181 -2.6032  0.4895 -1.0595
  440SOL    HW2 2105   1.482   1.606   1.065 -1.4106  2.4254 -1.7477
  441SOL     OW 2106   1.443   2.956   5.087 -0.5942 -0.6365  0.4958
  441SOL    HW1 2107   1.422   2.884   5.027  1.4637  0.2297 -1.2919
  441SOL    HW2 2108   1.527   2.932   5.125 -0.5395  0.2090  0.9156
  442SOL     OW 2109   2.785   1.837   5.068 -0.0225 -0.1785  0.3608
  442SOL    HW1 2110   2.781   1.859   5.162 -0.7177 -0.5082  0.4145
  442SOL    HW2 2111   2.782   1.922   5.024  2.9358  0.1272  0.6837
  443SOL     OW 2112   3.233   0.979   4.889  0.1964 -0.1287 -0.4872
  443SOL    HW1 2113   3.259   1.071   4.900 -0.4206  0.0776 -0.7312
  443SOL    HW2 2114   3.233   0.943   4.978  1.5521 -0.2061 -0.4963
  444SOL     OW 2115   3.025   2.039   4.620  0.3908  0.4855  0.6886
  444SOL    HW1 2116   3.094   1.984   4.656 -0.7517 -1.6357 -0.3128
  444SOL    HW2 2117   3.030   2.027   4.526 -2.5321 -1.2161  0.6768
  445SOL     OW 2118   3.272   1.529   0.712  0.3927 -0.0666  0.0365
  445SOL    HW1 2119   3.319   1.603   0.674  0.6435 -0.0471  0.3822
  445SOL    HW2 2120   3.326   1.501   0.786 -0.9004  0.9136  1.3933
  446SOL     OW 2121   1.163   3.289   0.385  0.6021 -0.2666 -0.3643
  446SOL    HW1 2122   1.094   3.344   0.349  0.6608 -0.4185 -0.7075
  446SOL    HW2 2123   1.144   3.284   0.479  1.0774  1.0394 -0.1856
  447SOL     OW 2124   2.313   4.235   4.446  0.3549  0.1980 -0.1071
  447SOL    HW1 2125   2.331   4.325   4.419  1.9345 -0.5344 -1.5848
  447SOL    HW2 2126   2.399   4.196   4.459 -0.3355 -0.7057  1.9129
  448SOL     OW 2127   0.930   5.124   0.377 -0.0015 -0.0358  0.0151
  448SOL    HW1 2128   0.924   5.157   0.467  0.7084  0.7902 -0.2324
  448SOL    HW2 2129   0.851   5.072   0.365  0.8374 -1.7834  1.7699
  449SOL     OW 2130   2.537   3.125   4.709  0.7330  0.0807  0.2647
  449SOL    HW1 2131   2.465   3.170   4.753 -0.2013  0.6768 -1.8595
  449SOL    HW2 2132   2.533   3.035   4.743 -0.9045  0.1481  0.2790
  450SOL     OW 2133   0.787   2.978   1.001 -0.0544  0.4122 -0.2553
  450SOL    HW1 2134   0.716   3.025   1.045 -0.2197 -0.0004 -0.0755
  450SOL    HW2 2135   0.861   2.985   1.061 -0.1681  0.1796 -0.0873
  451SOL     OW 2136   2.095   1.577   0.496  0.1559 -0.0289  0.0359
  451SOL    HW1 2137   2.083   1.562   0.402  1.2511  0.9772 -0.2781
  451SOL    HW2 2138   2.190   1.566   0.510  0.0954  0.5278  0.8999
  452SOL     OW 2139   3.519   2.368   0.597 -0.3977  0.8453  0.3554
  452SOL    HW1 2140   3.530   2.461   0.574 -1.6260  1.0695  0.6121
  452SOL    HW2 2141   3.511   2.368   0.692  1.1162  0.3026  0.4884
  453SOL     OW 2142   2.109   0.913   1.138 -0.4966  0.0683  0.6894
  453SOL    HW1 2143   2.053   0.839   1.113  0.5675 -1.0541  1.5922
  453SOL    HW2 2144   2.053   0.967   1.195 -1.6630  0.6234 -0.9208
  454SOL     OW 2145   2.978   2.037   1.322 -0.3120  0.0889  0.3337
  454SOL    HW1 2146   2.933   2.087   1.254 -0.5823  1.1618  1.2703
  454SOL    HW2 2147   2.965   1.945   1.298 -0.7578  0.4494 -0.8199
  455SOL     OW 2148   0.666   2.654   0.994 -0.0677  0.1856  0.5908
  455SOL    HW1 2149   0.595   2.672   1.055 -0.7078  2.0342 -0.6487
  455SOL    HW2 2150   0.628   2.596   0.929 -0.6170  1.5693 -0.3463
  456SOL     OW 2151   2.370   4.797   0.816 -0.4185 -0.1643 -0.2917
  456SOL    HW1 2152   2.352   4.782   0.723  0.1251 -0.3925 -0.3621
  456SOL    HW2 2153   2.434   4.731   0.839 -0.6832 -0.2227  0.2969
  457SOL     OW 2154   1.588   4.655   4.953 -0.4283 -0.6187 -0.0234
  457SOL    HW1 2155   1.568   4.738   4.998 -0.7192 -1.2801  1.0916
  457SOL    HW2 2156   1.649   4.680   4.883 -0.4735  0.5300  0.3292
  458SOL     OW 2157   2.754   5.178   0.751  0.7416  0.9423  0.0339
  458SOL    HW1 2158   2.818   5.121   0.709  1.0850  0.7260  0.8243
  458SOL    HW2 2159   2.670   5.134   0.738  0.7830  1.1256 -0.8350
  459SOL     OW 2160   2.510   3.026   4.415 -0.1194  0.0097  0.0781
  459SOL    HW1 2161   2.517   3.048   4.508  1.3755 -2.5524  0.6083
  459SOL    HW2 2162   2.445   3.088   4.381 -0.7883  0.8980  2.8324
  460SOL     OW 2163   2.803   5.244   4.552 -0.9994  0.7155 -0.0271
  460SOL    HW1 2164   2.712   5.259   4.577 -1.5900 -0.0800 -1.6114
  460SOL    HW2 2165   2.824   5.316   4.493 -0.6254  0.8517  0.2692
  461SOL     OW 2166   3.675   2.479   4.803  0.2636  0.1889 -0.4511
  461SOL    HW1 2167   3.724   2.401   4.829 -0.1871  0.5343  1.4535
  461SOL    HW2 2168   3.726   2.515   4.730  1.7354 -0.6081  0.1537
  462SOL     OW 2169   3.223   1.906   1.079 -0.4312  0.0443  0.1824
  462SOL    HW1 2170   3.160   1.977   1.089  0.1676  0.7305 -0.8030
  462SOL    HW2 2171   3.292   1.925   1.142  0.5916  1.3218 -1.2640
  463SOL     OW 2172   0.873   1.908   0.470 -0.5862 -0.1257  0.7731
  463SOL    HW1 2173   0.795   1.932   0.519 -0.4035 -1.3890  1.7138
  463SOL    HW2 2174   0.844   1.901   0.379 -1.2562  0.7478  0.9187
  464SOL     OW 2175   1.936   2.094   0.577 -0.3191  0.1677 -0.4782
  464SOL    HW1 2176   1.937   2.117   0.670 -0.0544  2.8282 -1.1066
  464SOL    HW2 2177   1.957   2.176   0.532  0.1066 -1.2198 -2.8646
  465SOL     OW 2178   1.175   4.588   4.678 -0.3404 -0.2691 -0.0071
  465SOL    HW1 2179   1.117   4.514   4.693 -1.8203  1.2323  1.9611
  465SOL    HW2 2180   1.221   4.601   4.761 -0.1983  1.0860 -0.2795
  466SOL     OW 2181   3.358   1.022   0.916  0.0197  0.1676 -0.2567
  466SOL    HW1 2182   3.376   0.929   0.904  1.4431  0.1656  1.6752
  466SOL    HW2 2183   3.438   1.058   0.954 -1.1750  1.8097  0.8124
  467SOL     OW 2184   2.308   3.793   1.023 -0.1519  1.5058  0.1125
  467SOL    HW1 2185   2.320   3.762   0.934  0.5724 -0.5501  0.9160
  467SOL    HW2 2186   2.352   3.878   1.025  1.0323  0.9277 -1.1044
  468SOL     OW 2187   0.848   5.166   0.638  0.3724 -0.1440 -0.0325
  468SOL    HW1 2188   0.875   5.173   0.729  0.2382  1.3093 -0.1020
  468SOL    HW2 2189   0.769   5.219   0.631 -0.2260 -1.0864 -0.7660
  469SOL     OW 2190   2.850   1.882   1.101 -0.5776 -0.7341 -0.1699
  469SOL    HW1 2191   2.849   1.820   1.028 -3.0052 -2.0329  0.8819
  469SOL    HW2 2192   2.774   1.939   1.086 -0.6350 -0.5115  0.8867
  470SOL     OW 2193   3.162   1.538   4.774 -0.2756 -0.1590 -0.3057
  470SOL    HW1 2194   3.081   1.564   4.818 -0.2184 -0.8417  0.2109
  470SOL    HW2 2195   3.183   1.452   4.811  1.9157  0.9898  1.2838
  471SOL     OW 2196   2.930   3.283   4.276 -0.0214  0.2234  0.4471
  471SOL    HW1 2197   2.870   3.215   4.306 -0.0244  0.8579  1.9179
  471SOL    HW2 2198   3.017   3.248   4.296 -0.0068  0.4385  0.7698
  472SOL     OW 2199   2.109   4.468   0.413  0.9034 -0.7279  0.2797
  472SOL    HW1 2200   2.068   4.554   0.404  3.8458  0.6959  0.1474
  472SOL    HW2 2201   2.162   4.457   0.334  2.2474 -1.7093  1.2892
  473SOL     OW 2202   2.557   0.446   0.314  0.2259 -0.0616 -0.7464
  473SOL    HW1 2203   2.463   0.458   0.327  0.2210 -2.9427  2.5641
  473SOL    HW2 2204   2.596   0.531   0.333 -1.6376  1.0466 -1.7758
  474SOL     OW 2205   1.275   2.384   1.479 -0.8166  0.0066  0.4166
  474SOL    HW1 2206   1.198   2.346   1.521 -0.2530 -3.7246 -1.6732
  474SOL    HW2 2207   1.329   2.309   1.455  3.5197  2.5198  1.7784
  475SOL     OW 2208   1.570   4.461   5.142  0.3003  0.2396 -0.1612
  475SOL    HW1 2209   1.624   4.467   5.063  2.7026 -0.3696  1.3876
  475SOL    HW2 2210   1.513   4.537   5.138  1.5394  1.1105 -1.6639
  476SOL     OW 2211   3.285   1.675   5.015  0.2426  0.1879  0.2014
  476SOL    HW1 2212   3.225   1.743   4.986  0.8958  0.3744 -0.7530
  476SOL    HW2 2213   3.296   1.619   4.938 -0.4367 -1.1111  1.0272
  477SOL     OW 2214   1.053   1.208   0.312  0.4406  0.0913 -0.4554
  477SOL    HW1 2215   1.142   1.239   0.325  1.4266 -3.4418  2.1959
  477SOL    HW2 2216   1.004   1.247   0.385  0.8501 -1.4265  0.6652
  478SOL     OW 2217   3.717   3.537   5.187 -0.3649 -0.3071 -0.8144
  478SOL    HW1 2218   3.790   3.475   5.189  0.3009  0.4937 -0.0552
  478SOL    HW2 2219   3.691   3.540   5.095 -0.0595 -1.3097 -0.9383
  479SOL     OW 2220   1.181   1.979   1.144  0.0543  0.4168 -0.7147
  479SOL    HW1 2221   1.170   2.063   1.098 -0.4550  0.7122 -0.0660
  479SOL    HW2 2222   1.192   2.003   1.236 -2.0060 -0.2998 -0.2548
  480SOL     OW 2223   1.801   5.215   0.026  0.0830  0.2610  0.2833
  480SOL    HW1 2224   1.829   5.293  -0.022  1.1655 -0.3321 -0.0629
  480SOL    HW2 2225   1.848   5.143  -0.015 -0.1936 -0.4647  1.2122
  481SOL     OW 2226   2.795   0.409   0.845  0.3161  0.5476 -0.2608
  481SOL    HW1 2227   2.875   0.461   0.841  0.8025 -0.3157 -2.5952
  481SOL    HW2 2228   2.785   0.386   0.938  1.2685  2.9395  0.4600
  482SOL     OW 2229   2.956   2.561   4.669 -0.0623  0.0920  0.1238
  482SOL    HW1 2230   2.970   2.593   4.580  2.7576  1.3307  0.9519
  482SOL    HW2 2231   2.861   2.548   4.675 -0.3756  0.6274 -2.8164
  483SOL     OW 2232   2.976   4.166   4.883  0.0348 -0.8615 -0.2613
  483SOL    HW1 2233   3.056   4.183   4.833  0.1288  0.6600  0.3743
  483SOL    HW2 2234   2.923   4.245   4.870 -0.5125 -1.0307  0.9320
  484SOL     OW 2235   1.615   3.496   2.313  0.1868  0.3379  0.1630
  484SOL    HW1 2236   1.683   3.429   2.304  1.2447  1.1912  1.5593
  484SOL    HW2 2237   1.570   3.496   2.229  3.3753  1.3196 -1.6154
  485SOL     OW 2238   0.967   3.439   1.380  0.0477 -0.1182 -0.6136
  485SOL    HW1 2239   0.940   3.528   1.402  2.0812  1.2464 -3.3486
  485SOL    HW2 2240   1.004   3.446   1.292 -1.7828 -4.0897 -1.7910
  486SOL     OW 2241   3.030   4.811   0.013  0.7879 -0.0326 -0.8877
  486SOL    HW1 2242   3.050   4.749  -0.057  2.2120 -0.9435  0.3052
  486SOL    HW2 2243   3.100   4.799   0.077  0.3436  1.8573  0.0009
  487SOL     OW 2244   1.125   3.220   1.385 -0.1132  0.2247 -0.2768
  487SOL    HW1 2245   1.050   3.277   1.398  0.5842  1.0434  0.2593
  487SOL    HW2 2246   1.191   3.253   1.447  1.1901  0.4209 -1.7374
  488SOL     OW 2247   1.946   0.124   0.331  0.5543 -0.7518 -0.7646
  488SOL    HW1 2248   1.852   0.114   0.343  0.0972  1.1982 -2.3313
  488SOL    HW2 2249   1.978   0.036   0.311 -1.1822 -1.1695 -1.7795
  489SOL     OW 2250   2.343   4.762   4.991 -0.1879 -1.0949  0.0266
  489SOL    HW1 2251   2.275   4.709   4.950 -0.4127 -0.8041  0.0229
  489SOL    HW2 2252   2.321   4.852   4.967  0.2471 -1.0070 -0.0490
  490SOL     OW 2253   2.308   2.881   0.813  0.1973  0.0811  0.0199
  490SOL    HW1 2254   2.216   2.855   0.822 -0.2688  1.2418 -1.1941
  490SOL    HW2 2255   2.345   2.868   0.900 -1.5330  1.1471  0.9508
  491SOL     OW 2256   3.070   3.976   0.521  0.0693  0.6339 -0.0106
  491SOL    HW1 2257   2.991   3.971   0.575  1.4463  0.8563  2.0809
  491SOL    HW2 2258   3.079   3.888   0.484  0.1989 -0.1195  1.7571
  492SOL     OW 2259   1.438   3.134   2.007  0.1037  0.3032 -0.3434
  492SOL    HW1 2260   1.464   3.091   2.088  0.7487 -0.4455 -0.9437
  492SOL    HW2 2261   1.412   3.062   1.949  0.6318  0.7591 -1.1530
  493SOL     OW 2262   2.801   0.662   0.575  0.1184  0.1052  0.0877
  493SOL    HW1 2263   2.823   0.752   0.602  0.5933 -1.0045  3.6850
  493SOL    HW2 2264   2.705   0.660   0.575  0.1074  0.4493  0.6570
  494SOL     OW 2265   2.109   2.901   4.346 -0.4394  0.2420 -0.4910
  494SOL    HW1 2266   2.142   2.817   4.378  0.2768 -0.0627 -1.9831
  494SOL    HW2 2267   2.171   2.965   4.379 -1.0876  0.2162  0.8042
  495SOL     OW 2268   2.166   3.671   4.157  0.2511 -0.5682 -0.1639
  495SOL    HW1 2269   2.094   3.707   4.209  0.8944 -0.1731  0.4677
  495SOL    HW2 2270   2.187   3.587   4.198  0.6945 -0.3005  0.1732
  496SOL     OW 2271   2.457   1.990   4.600 -0.5790 -0.0505 -0.3617
  496SOL    HW1 2272   2.480   1.897   4.609  0.8287  0.1683 -1.4904
  496SOL    HW2 2273   2.371   1.990   4.559 -0.6895 -0.8656 -0.1378
  497SOL     OW 2274   2.967   1.032   0.357 -0.3046 -0.3550 -0.4033
  497SOL    HW1 2275   2.907   0.965   0.391 -0.6377  0.4198  0.5745
  497SOL    HW2 2276   2.916   1.077   0.290 -1.2471  1.0100  1.1665
  498SOL     OW 2277   2.066   2.249   1.742 -0.4502 -0.3517 -0.6769
  498SOL    HW1 2278   1.985   2.227   1.787 -0.4820 -0.6593 -0.8749
  498SOL    HW2 2279   2.132   2.255   1.811 -0.9545  1.5100 -0.3328
  499SOL     OW 2280   2.188   1.514   0.175 -0.3559 -0.4132  0.2962
  499SOL    HW1 2281   2.272   1.525   0.129 -0.5296 -0.2172  0.0284
  499SOL    HW2 2282   2.136   1.458   0.118 -1.1641  1.1276 -0.5202
  500SOL     OW 2283   3.660   3.955   0.231 -0.5711  0.0236  0.0646
  500SOL    HW1 2284   3.657   3.893   0.158  0.4556 -0.5962  0.5339
  500SOL    HW2 2285   3.676   3.900   0.308  0.5800  0.8838  0.4531
  501SOL     OW 2286   1.086   2.852   1.090 -0.3145 -0.2404 -1.0587
  501SOL    HW1 2287   1.110   2.821   1.002 -0.7561 -1.1990 -0.8530
  501SOL    HW2 2288   1.144   2.803   1.149 -0.9844 -0.6536 -0.7311
  502SOL     OW 2289   3.554   2.199   0.404  0.2399  0.1178  0.3919
  502SOL    HW1 2290   3.533   2.260   0.475  2.8696  1.3774  0.1785
  502SOL    HW2 2291   3.637   2.159   0.431  0.4995 -0.4910 -1.2576
  503SOL     OW 2292   3.048   1.589   0.051  0.8164 -0.7259 -0.0079
  503SOL    HW1 2293   3.051   1.604  -0.043 -0.5750 -2.0309 -0.2917
  503SOL    HW2 2294   3.137   1.564   0.075  1.6699  1.6688 -0.5867
  504SOL     OW 2295   2.555   4.357   0.269 -0.3367 -0.0402  0.2801
  504SOL    HW1 2296   2.576   4.288   0.207  0.2740  1.2748 -1.0247
  504SOL    HW2 2297   2.475   4.396   0.235 -1.2198 -0.7205  1.5490
  505SOL     OW 2298   2.130   3.446   0.850  0.4884  0.2482 -0.2586
  505SOL    HW1 2299   2.137   3.541   0.849 -1.5192  0.4098 -0.6773
  505SOL    HW2 2300   2.181   3.417   0.774  2.8871  0.8181  1.0790
  506SOL     OW 2301   0.505   3.027   1.066  0.7290  0.0872 -0.2463
  506SOL    HW1 2302   0.516   2.947   1.016  2.2855  0.4777 -0.5745
  506SOL    HW2 2303   0.466   3.089   1.005  4.2470  1.1049 -1.6231
  507SOL     OW 2304   2.780   3.908   4.131  0.4908 -0.8998 -0.1596
  507SOL    HW1 2305   2.819   3.827   4.098  0.2475 -0.7436 -0.8385
  507SOL    HW2 2306   2.688   3.904   4.103  0.6048 -0.1442 -0.6781
  508SOL     OW 2307   2.363   2.747   4.377 -0.2238  0.8855  0.0486
  508SOL    HW1 2308   2.324   2.673   4.331 -1.3748  2.2909 -1.2816
  508SOL    HW2 2309   2.414   2.793   4.310  0.8451  1.0722  0.9620
  509SOL     OW 2310   2.004   0.270   0.885 -0.0471  0.8856  0.1797
  509SOL    HW1 2311   2.035   0.344   0.833 -1.0281  0.6902 -0.6902
  509SOL    HW2 2312   2.077   0.207   0.881 -0.4651  0.4808 -1.7523
  510SOL     OW 2313   0.376   1.739   2.311 -0.3476 -0.1155 -0.3192
  510SOL    HW1 2314   0.287   1.716   2.338  0.2515  0.7180  2.6143
  510SOL    HW2 2315   0.429   1.664   2.339 -0.0303 -0.3661 -1.5612
  511SOL     OW 2316   1.733   4.166   1.864 -0.2488 -0.1725  0.0301
  511SOL    HW1 2317   1.761   4.090   1.916  0.1531  0.2497  0.4417
  511SOL    HW2 2318   1.780   4.240   1.903 -0.8206  0.3230 -0.2197
  512SOL     OW 2319   2.089   3.748   4.770 -0.3733  0.6467  0.2331
  512SOL    HW1 2320   2.156   3.813   4.751  0.2330  0.1897  0.7711
  512SOL    HW2 2321   2.107   3.677   4.709  1.4752 -0.7509  2.3153
  513SOL     OW 2322   2.988   0.625   0.779  0.7256  0.5409  0.2907
  513SOL    HW1 2323   2.976   0.661   0.691 -1.7331  1.6553  1.0496
  513SOL    HW2 2324   2.987   0.701   0.837  3.4199 -0.0832  1.2527
  514SOL     OW 2325   3.114   3.667   4.608  0.3299  0.0480 -0.2277
  514SOL    HW1 2326   3.072   3.685   4.692 -0.5479  0.3976 -0.7411
  514SOL    HW2 2327   3.061   3.713   4.543 -0.1743 -1.8372 -1.2128
  515SOL     OW 2328   2.587   4.765   5.241 -0.6724  0.5485 -0.3040
  515SOL    HW1 2329   2.656   4.772   5.176  0.1800 -0.5557  0.4698
  515SOL    HW2 2330   2.596   4.845   5.294  0.8442 -0.2234  0.6011
  516SOL     OW 2331   3.063   2.693   2.931 -0.5336  0.0385 -0.8853
  516SOL    HW1 2332   3.148   2.725   2.903  0.7832  0.4512  3.2010
  516SOL    HW2 2333   3.019   2.770   2.968 -2.6616 -0.1990 -2.7977
  517SOL     OW 2334   0.955   3.723   0.716  0.2270  0.1136 -0.0265
  517SOL    HW1 2335   0.907   3.802   0.740  0.4506  0.5253 -0.9009
  517SOL    HW2 2336   1.026   3.717   0.779  0.0100  0.4314  0.2428
  518SOL     OW 2337   1.993   5.134   0.243  0.9821  0.3100 -0.1537
  518SOL    HW1 2338   2.075   5.101   0.281  0.7950 -0.4024 -0.3559
  518SOL    HW2 2339   1.974   5.073   0.171  1.3749  1.6920 -1.4503
  519SOL     OW 2340   3.146   3.844   4.313  0.2976 -0.2302 -0.1638
  519SOL    HW1 2341   3.230   3.871   4.276 -0.5579 -1.6981 -3.3106
  519SOL    HW2 2342   3.156   3.749   4.327 -0.9866 -0.5047 -1.0389
  520SOL     OW 2343   0.914   3.841   0.390 -0.4523  0.0373 -0.0414
  520SOL    HW1 2344   0.884   3.922   0.432  2.8533 -0.0634  2.7798
  520SOL    HW2 2345   0.975   3.871   0.322 -1.2910 -0.0228 -0.8317
  521SOL     OW 2346   1.895   1.206   0.963 -0.2258 -0.5117  0.5146
  521SOL    HW1 2347   1.903   1.232   1.055  0.8805 -0.6836  0.4802
  521SOL    HW2 2348   1.985   1.206   0.931 -0.3480 -2.8704  0.0968
  522SOL     OW 2349   3.859   2.335   3.810 -0.5275  0.3947 -0.0966
  522SOL    HW1 2350   3.901   2.295   3.886 -1.8906 -2.6673 -0.8700
  522SOL    HW2 2351   3.793   2.394   3.847 -0.5289 -0.3545  1.1070
  523SOL     OW 2352   0.571   3.524   0.656 -0.1511 -0.3087 -0.0210
  523SOL    HW1 2353   0.666   3.527   0.652 -0.1530  1.1401  0.5608
  523SOL    HW2 2354   0.543   3.529   0.564  0.3135  1.3425 -0.0996
  524SOL     OW 2355   1.581   3.965   2.668 -0.9848 -1.3184 -0.4017
  524SOL    HW1 2356   1.565   3.985   2.575 -1.2314 -0.1279 -0.1145
  524SOL    HW2 2357   1.584   3.869   2.672 -1.7286 -1.3977 -1.5148
  525SOL     OW 2358   1.241   0.989   0.508 -1.1943  0.4025  0.6286
  525SOL    HW1 2359   1.183   0.948   0.445 -0.9378  0.4760  0.3462
  525SOL    HW2 2360   1.267   1.072   0.468  1.3488 -0.8811 -0.4965
  526SOL     OW 2361   3.162   0.975   0.555 -0.7524  0.1571 -0.4356
  526SOL    HW1 2362   3.172   1.040   0.625 -1.8909  0.4647 -0.5560
  526SOL    HW2 2363   3.092   1.010   0.500  1.2210  0.7237 -2.6396
  527SOL     OW 2364   1.473   2.927   3.982  0.1882  0.1325  0.1547
  527SOL    HW1 2365   1.412   2.854   3.975 -0.3736  0.4838  1.2357
  527SOL    HW2 2366   1.523   2.909   4.062 -0.0247  0.9603  0.4859
  528SOL     OW 2367   3.907   2.254   4.060 -0.7444  0.6376 -0.2759
  528SOL    HW1 2368   3.891   2.331   4.114  1.6009  0.2127  1.0810
  528SOL    HW2 2369   4.002   2.239   4.066 -1.0225 -1.7915 -1.2772
  529SOL     OW 2370   2.851   3.102   1.374  0.2396  0.4589  0.1555
  529SOL    HW1 2371   2.845   3.158   1.297 -1.5758  1.1681  0.7736
  529SOL    HW2 2372   2.784   3.034   1.358  1.7384 -0.9766 -0.1380
  530SOL     OW 2373   3.237   3.341   0.759 -0.6801  0.5972 -0.2110
  530SOL    HW1 2374   3.178   3.268   0.740 -1.7755  1.6991 -1.1347
  530SOL    HW2 2375   3.240   3.391   0.678  0.3681  1.3842  0.2980
  531SOL     OW 2376   3.791   2.523   4.109  0.3469 -0.0348  0.2089
  531SOL    HW1 2377   3.785   2.606   4.157 -1.8266  0.2299 -0.4805
  531SOL    HW2 2378   3.737   2.536   4.032  1.6761 -1.3892 -0.9824
  532SOL     OW 2379   2.240   0.939   4.813 -0.0376  0.2360  0.0938
  532SOL    HW1 2380   2.155   0.966   4.848 -0.3472  0.6808 -0.9684
  532SOL    HW2 2381   2.228   0.847   4.791 -0.3490  0.3824 -0.3555
  533SOL     OW 2382   3.266   3.619   4.890  0.9578 -0.2608  0.3643
  533SOL    HW1 2383   3.315   3.588   4.814  2.3172  0.6852  0.8291
  533SOL    HW2 2384   3.286   3.713   4.895  0.2192 -0.1489  1.3898
  534SOL     OW 2385   2.387   3.421   1.289 -0.0289 -0.2425  0.6221
  534SOL    HW1 2386   2.482   3.428   1.276 -0.2643  2.4823  0.1356
  534SOL    HW2 2387   2.353   3.391   1.204  0.3928 -1.3190  0.8277
  535SOL     OW 2388   3.447   2.673   4.627 -0.3762 -0.1809  1.3831
  535SOL    HW1 2389   3.512   2.697   4.561 -0.3761 -0.4750  1.2773
  535SOL    HW2 2390   3.426   2.756   4.671 -1.1979  0.2092  0.2847
  536SOL     OW 2391   1.267   1.450   4.998  0.4171  0.8094 -0.9314
  536SOL    HW1 2392   1.238   1.528   5.045 -1.5374  0.5241 -1.6117
  536SOL    HW2 2393   1.269   1.381   5.064 -1.7723  0.5355 -1.1329
  537SOL     OW 2394   1.680   0.675   0.606  0.5842 -0.2510  0.0162
  537SOL    HW1 2395   1.649   0.626   0.682 -0.7901  0.6854  0.0846
  537SOL    HW2 2396   1.624   0.752   0.603 -1.3281 -1.6816 -3.6386
  538SOL     OW 2397   2.880   4.356   0.891  0.2787  0.3889 -0.4135
  538SOL    HW1 2398   2.821   4.404   0.949  1.7302  1.0312  0.5714
  538SOL    HW2 2399   2.960   4.346   0.942  0.5884 -1.5853 -1.2668
  539SOL     OW 2400   3.643   2.553   3.860 -0.2793  0.6277 -0.1126
  539SOL    HW1 2401   3.592   2.538   3.780 -0.5880  2.0948 -0.2082
  539SOL    HW2 2402   3.700   2.627   3.838 -0.0355  0.7374  0.8664
  540SOL     OW 2403   2.663   4.120   4.286 -0.2118  0.3669  0.3914
  540SOL    HW1 2404   2.584   4.090   4.240 -0.5591  1.9461 -0.0733
  540SOL    HW2 2405   2.727   4.049   4.271 -0.8460  0.0763 -1.1143
  541SOL     OW 2406   2.424   3.803   4.068 -0.2605 -0.3174  0.6068
  541SOL    HW1 2407   2.418   3.796   3.972  0.9179 -0.8646  0.5726
  541SOL    HW2 2408   2.336   3.782   4.099 -1.0732  1.3710 -0.4357
  542SOL     OW 2409   2.246   0.141   0.866 -0.1750 -0.9220  0.0484
  542SOL    HW1 2410   2.313   0.209   0.871 -1.4208  0.2418  1.6515
  542SOL    HW2 2411   2.279   0.070   0.921 -0.4709 -0.1189  1.2967
  543SOL     OW 2412   3.007   3.782   5.160  0.5002  0.9399 -0.1878
  543SOL    HW1 2413   3.014   3.743   5.073  1.4102  0.2566  0.1893
  543SOL    HW2 2414   3.001   3.876   5.144  0.2022  0.7868 -1.0048
  544SOL     OW 2415   2.308   3.389   0.610  0.1786 -1.0521 -0.2612
  544SOL    HW1 2416   2.284   3.478   0.584 -1.3732 -2.3787 -3.8167
  544SOL    HW2 2417   2.391   3.373   0.566 -0.4870 -1.9647 -1.2284
  545SOL     OW 2418   1.606   2.311   1.972  0.2329  0.1502  0.5145
  545SOL    HW1 2419   1.657   2.392   1.971 -0.4883  0.7235  3.7171
  545SOL    HW2 2420   1.654   2.251   1.915  1.2569  2.5379 -1.1826
  546SOL     OW 2421   2.876   3.880   0.139 -0.0707  0.3196 -0.2992
  546SOL    HW1 2422   2.855   3.872   0.046  0.0458  2.1969 -0.5058
  546SOL    HW2 2423   2.900   3.972   0.151  3.3034 -0.6125  0.8906
  547SOL     OW 2424   0.726   3.768   0.946  0.2012 -0.2262 -0.5614
  547SOL    HW1 2425   0.767   3.718   1.016  2.0940  0.3604 -1.2241
  547SOL    HW2 2426   0.639   3.729   0.936  0.7696 -1.8082  0.5430
  548SOL     OW 2427   1.033   2.473   4.207  0.3369  0.7772 -0.0445
  548SOL    HW1 2428   1.008   2.560   4.176 -0.4614  0.0127 -1.6101
  548SOL    HW2 2429   0.954   2.420   4.197 -0.1607  0.6312  4.0069
  549SOL     OW 2430   0.610   2.759   0.410  0.3054 -0.5538  0.3829
  549SOL    HW1 2431   0.657   2.827   0.459 -0.6148  0.3519  0.0198
  549SOL    HW2 2432   0.520   2.765   0.439  0.1354 -1.3754  0.0602
  550SOL     OW 2433   2.505   1.578   0.875  0.0187 -0.6793 -0.3465
  550SOL    HW1 2434   2.484   1.517   0.805 -2.4701 -0.7319  0.4165
  550SOL    HW2 2435   2.438   1.647   0.869  0.8974  0.3065  0.7814
  551SOL     OW 2436   2.720   5.225   4.937  0.3971  0.7579 -0.0729
  551SOL    HW1 2437   2.813   5.233   4.919  0.2233 -0.0305 -1.4275
  551SOL    HW2 2438   2.688   5.162   4.872 -0.9627  0.5638  0.7578
  552SOL     OW 2439   1.584   3.549   0.192 -0.0800  0.5447  0.4227
  552SOL    HW1 2440   1.595   3.644   0.201 -0.3843  0.5741  0.4928
  552SOL    HW2 2441   1.573   3.536   0.097 -3.2815  0.9431  0.7008
  553SOL     OW 2442   0.630   1.825   5.010  0.3593 -0.0476  1.1050
  553SOL    HW1 2443   0.630   1.917   4.983  1.9063  0.2113  1.9420
  553SOL    HW2 2444   0.548   1.790   4.976 -0.7798  1.9326  1.7461
  554SOL     OW 2445   2.258   5.079   0.859  0.5017 -0.3055 -0.2885
  554SOL    HW1 2446   2.273   4.986   0.843 -2.1273 -0.7038 -0.6195
  554SOL    HW2 2447   2.336   5.122   0.825  3.1631 -2.5777  2.5648
  555SOL     OW 2448   1.153   4.464   5.082  1.3464 -0.5438 -0.2878
  555SOL    HW1 2449   1.235   4.444   5.037  1.5418  1.9811 -1.0852
  555SOL    HW2 2450   1.118   4.540   5.036 -0.0687  0.1060  1.8095
  556SOL     OW 2451   2.893   2.713   4.408 -0.5214  0.2552  0.0173
  556SOL    HW1 2452   2.865   2.796   4.369  1.4344  0.1493 -1.6961
  556SOL    HW2 2453   2.974   2.691   4.362 -1.1887 -2.7870  0.1661
  557SOL     OW 2454   2.977   2.393   0.636 -0.4150  0.4971  0.0719
  557SOL    HW1 2455   2.974   2.311   0.686  1.7205  0.4277  0.1446
  557SOL    HW2 2456   2.994   2.461   0.701 -3.0097  1.1252  0.1180
  558SOL     OW 2457   2.427   1.337   4.112 -0.2408 -0.5122  0.0995
  558SOL    HW1 2458   2.413   1.273   4.043  0.2134  0.9381 -1.3715
  558SOL    HW2 2459   2.506   1.307   4.157 -0.0635 -1.0231 -0.5427
  559SOL     OW 2460   1.410   3.890   1.161  0.7136 -0.9877  0.9596
  559SOL    HW1 2461   1.340   3.848   1.111  1.0683 -0.2617 -0.1654
  559SOL    HW2 2462   1.411   3.981   1.129  2.5197 -1.1354  0.5847
  560SOL     OW 2463   2.631   0.310   1.041 -0.9489 -0.1019 -0.2531
  560SOL    HW1 2464   2.567   0.339   0.976  1.9463  2.8484 -1.8714
  560SOL    HW2 2465   2.629   0.377   1.109  2.6516  1.7777 -1.8865
  561SOL     OW 2466   1.316   2.382   4.765  0.2302  0.1055  0.0637
  561SOL    HW1 2467   1.224   2.399   4.744  0.0198  0.1399  0.9857
  561SOL    HW2 2468   1.365   2.432   4.700 -0.4053  0.5263 -0.0966
  562SOL     OW 2469   1.529   4.899   5.087  1.0907 -0.1153 -0.4689
  562SOL    HW1 2470   1.498   4.987   5.069 -0.8962 -1.3193 -3.1818
  562SOL    HW2 2471   1.460   4.858   5.139  2.9450  0.5291  2.6504
  563SOL     OW 2472   3.364   3.895   4.893 -0.3903 -0.0000 -0.5146
  563SOL    HW1 2473   3.295   3.960   4.906 -0.0452  0.3950 -0.6667
  563SOL    HW2 2474   3.445   3.944   4.904 -0.1354 -0.5633  0.1394
  564SOL     OW 2475   2.760   4.680   0.638  1.1096 -0.7161 -0.5192
  564SOL    HW1 2476   2.756   4.605   0.697  0.7756 -0.1064  0.2428
  564SOL    HW2 2477   2.682   4.671   0.583  1.4254 -1.2895 -0.8770
  565SOL     OW 2478   1.576   4.138   0.202  0.1305  0.3188  0.4323
  565SOL    HW1 2479   1.550   4.052   0.233  0.2078 -0.2876 -1.1333
  565SOL    HW2 2480   1.559   4.197   0.276 -0.2521 -0.9746  1.3843
  566SOL     OW 2481   2.291   3.893   0.142  0.0123  0.3242  0.1487
  566SOL    HW1 2482   2.371   3.848   0.115  1.1841  1.3986  1.6967
  566SOL    HW2 2483   2.287   3.970   0.086  0.6931  0.8555  0.8105
  567SOL     OW 2484   2.197   3.825   1.772  0.4442  0.2972  0.3861
  567SOL    HW1 2485   2.121   3.773   1.746  0.9961 -0.6126  0.5753
  567SOL    HW2 2486   2.269   3.762   1.777  0.6048  0.6509  3.0086
  568SOL     OW 2487   2.408   3.653   1.786 -0.2748 -0.3119  0.0581
  568SOL    HW1 2488   2.393   3.570   1.741 -0.3820  0.3032 -1.0723
  568SOL    HW2 2489   2.501   3.672   1.771 -1.1002  1.6574 -3.0328
  569SOL     OW 2490   1.861   3.870   0.693  0.2142  0.6360  0.9774
  569SOL    HW1 2491   1.857   3.836   0.782  0.0089  1.3996  1.2608
  569SOL    HW2 2492   1.954   3.879   0.675  0.3849 -2.3974  0.0021
  570SOL     OW 2493   1.898   3.041   0.723 -0.2089  0.2877 -0.6199
  570SOL    HW1 2494   1.853   2.959   0.745 -1.4240  0.4243 -2.5422
  570SOL    HW2 2495   1.837   3.088   0.667  0.6459  2.3666  0.1426
  571SOL     OW 2496   1.424   0.306   0.856  0.2092 -0.1293 -0.2792
  571SOL    HW1 2497   1.379   0.249   0.918  1.7224 -0.8084  0.2148
  571SOL    HW2 2498   1.384   0.286   0.771 -1.5707  0.5028  0.3856
  572SOL     OW 2499   2.768   2.117   4.698 -0.0917  0.5078  0.3645
  572SOL    HW1 2500   2.709   2.069   4.640 -0.2058  1.8653 -0.6784
  572SOL    HW2 2501   2.855   2.090   4.669 -0.1651 -0.6419  1.1649
  573SOL     OW 2502   2.254   3.111   4.436  0.2964 -0.1587 -0.2224
  573SOL    HW1 2503   2.182   3.093   4.496 -0.5854 -2.7926 -1.9901
  573SOL    HW2 2504   2.251   3.206   4.422 -1.1289  0.1191  1.7780
  574SOL     OW 2505   2.483   2.267   4.732  0.4276  0.6079  0.2697
  574SOL    HW1 2506   2.407   2.210   4.746  0.0794  1.1101  0.4556
  574SOL    HW2 2507   2.529   2.228   4.658 -0.2896  0.5855 -0.1757
  575SOL     OW 2508   1.165   3.315   4.102  0.5898  0.3126 -0.4560
  575SOL    HW1 2509   1.083   3.347   4.140 -0.5965 -2.7913 -0.2713
  575SOL    HW2 2510   1.205   3.264   4.172  1.1665 -0.7437 -1.5423
  576SOL     OW 2511   3.285   0.429   0.367  0.3472  0.1225 -0.0690
  576SOL    HW1 2512   3.246   0.409   0.453 -0.2776  1.6433  0.0200
  576SOL    HW2 2513   3.278   0.347   0.318  1.6736 -1.0727  1.6855
  577SOL     OW 2514   1.435   5.127   0.554  0.6699  0.1928 -0.3456
  577SOL    HW1 2515   1.463   5.067   0.623  0.6243 -1.1009 -1.4538
  577SOL    HW2 2516   1.493   5.203   0.564  0.1953  0.3446  1.5655
  578SOL     OW 2517   3.427   3.807   4.248  0.1649  0.0793  0.2859
  578SOL    HW1 2518   3.490   3.877   4.233 -0.3337  0.3563 -0.5591
  578SOL    HW2 2519   3.470   3.728   4.215 -0.4873  0.5078 -1.6704
  579SOL     OW 2520   2.897   1.179   5.118  0.2229  0.6600 -0.0743
  579SOL    HW1 2521   2.986   1.208   5.138 -0.7977  3.7677  0.1883
  579SOL    HW2 2522   2.860   1.156   5.203  0.6344 -0.3206 -0.1480
  580SOL     OW 2523   3.351   2.729   1.451 -0.3714  0.1379 -0.1677
  580SOL    HW1 2524   3.284   2.797   1.459 -0.4493  0.0067  0.2756
  580SOL    HW2 2525   3.431   2.770   1.484 -0.6233 -0.2967  0.9972
  581SOL     OW 2526   2.192   2.457   4.686  0.5091  0.4460  0.1571
  581SOL    HW1 2527   2.184   2.442   4.592  0.5778  1.1759  0.0332
  581SOL    HW2 2528   2.110   2.425   4.723  0.6378 -0.1995 -0.1010
  582SOL     OW 2529   3.632   2.826   0.286 -0.3865  0.1111  0.0329
  582SOL    HW1 2530   3.715   2.874   0.281 -0.3861  0.0593 -0.5400
  582SOL    HW2 2531   3.567   2.892   0.310 -0.2437  0.2323  0.0849
  583SOL     OW 2532   0.890   3.094   4.515  0.7214 -0.3402  0.3774
  583SOL    HW1 2533   0.908   3.073   4.607 -1.0453 -0.8499  0.6354
  583SOL    HW2 2534   0.930   3.179   4.501  1.8452 -0.7037  1.3523
  584SOL     OW 2535   3.151   2.418   0.207  0.8963  0.0888 -0.6115
  584SOL    HW1 2536   3.066   2.425   0.248  1.8468 -1.6184  1.7755
  584SOL    HW2 2537   3.205   2.485   0.249  0.9835  0.5899 -1.4985
  585SOL     OW 2538   2.745   1.479   4.409  0.3049  0.0131  0.5139
  585SOL    HW1 2539   2.739   1.536   4.333  0.8229  1.9809  1.8900
  585SOL    HW2 2540   2.757   1.392   4.373  0.9545  0.9551 -1.6362
  586SOL     OW 2541   1.639   2.001   4.500  0.7007  0.2007 -0.4565
  586SOL    HW1 2542   1.591   1.926   4.535  2.5061 -0.3290  0.9687
  586SOL    HW2 2543   1.638   1.988   4.405  0.0157 -1.0065 -0.2962
  587SOL     OW 2544   3.528   2.505   3.570  0.2003 -0.2665 -0.2428
  587SOL    HW1 2545   3.585   2.436   3.537  2.7478  0.6443  2.0848
  587SOL    HW2 2546   3.521   2.567   3.497  2.4478 -0.2646 -0.4818
  588SOL     OW 2547   2.531   0.835   4.351 -0.2551  0.6253 -0.1516
  588SOL    HW1 2548   2.489   0.785   4.421 -0.8612  0.0353 -0.9369
  588SOL    HW2 2549   2.552   0.771   4.284 -1.0761  1.4077 -1.1800
  589SOL     OW 2550   2.410   3.681   4.780  0.3914  0.2083  0.2758
  589SOL    HW1 2551   2.341   3.650   4.721  0.4504  1.5949 -0.5381
  589SOL    HW2 2552   2.369   3.685   4.866 -1.0321  2.5997 -0.4921
  590SOL     OW 2553   2.710   0.065   0.434 -0.3249 -0.0855  0.3466
  590SOL    HW1 2554   2.741  -0.019   0.468 -2.0290 -0.4342  1.1137
  590SOL    HW2 2555   2.780   0.126   0.454  0.0364 -0.9169  1.7273
  591SOL     OW 2556   1.768   0.821   1.276 -0.5874 -0.4691 -0.0437
  591SOL    HW1 2557   1.823   0.787   1.205  0.4614  2.0562 -0.4564
  591SOL    HW2 2558   1.772   0.753   1.343  1.0125 -1.4516 -1.0881
  592SOL     OW 2559   2.074   0.636   4.621  0.5486  0.1960 -0.6550
  592SOL    HW1 2560   2.027   0.607   4.543  0.6397  1.4001 -1.1592
  592SOL    HW2 2561   2.010   0.684   4.672  0.7409  0.2331 -0.4476
  593SOL     OW 2562   1.732   4.063   1.367  0.1586 -0.4049  0.9892
  593SOL    HW1 2563   1.754   4.074   1.459 -0.5631  1.8027  0.9210
  593SOL    HW2 2564   1.717   4.152   1.334 -2.6309 -1.3414 -0.4950
  594SOL     OW 2565   1.343   4.525   4.916  0.1067  0.3369 -0.4070
  594SOL    HW1 2566   1.432   4.561   4.920  0.6471 -0.9664 -0.4134
  594SOL    HW2 2567   1.336   4.488   4.828 -0.2797  0.0365 -0.2497
  595SOL     OW 2568   1.049   2.299   1.612  0.0328  0.6739 -0.5024
  595SOL    HW1 2569   1.103   2.261   1.681  1.1436  0.2294 -1.5951
  595SOL    HW2 2570   1.014   2.380   1.650 -1.3977 -0.8090  1.4265
  596SOL     OW 2571   2.729   0.934   4.959  0.1254  0.1601 -0.4598
  596SOL    HW1 2572   2.824   0.942   4.952  0.1677  1.8262  1.5545
  596SOL    HW2 2573   2.716   0.862   5.021  0.1150  0.9591  0.4785
  597SOL     OW 2574   1.652   2.162   2.205  0.3195  0.4327 -0.0581
  597SOL    HW1 2575   1.636   2.231   2.142 -0.2688  0.2172 -0.1460
  597SOL    HW2 2576   1.715   2.104   2.162 -0.6985 -0.1503 -0.7703
  598SOL     OW 2577   3.463   4.671   4.962 -0.5268 -0.2046  0.1369
  598SOL    HW1 2578   3.530   4.723   5.006 -1.2590  1.3650 -0.5557
  598SOL    HW2 2579   3.485   4.676   4.869 -2.2291  1.2769 -0.2084
  599SOL     OW 2580   3.339   1.515   0.078  0.0660 -0.2094 -0.3312
  599SOL    HW1 2581   3.370   1.439   0.127 -2.0912 -1.8524 -1.4134
  599SOL    HW2 2582   3.379   1.506  -0.008 -1.1747 -0.8235 -0.8539
  600SOL     OW 2583   2.968   4.245   0.524 -0.1514  0.1852  0.1295
  600SOL    HW1 2584   3.044   4.303   0.521 -0.8587  1.1071 -0.3775
  600SOL    HW2 2585   3.004   4.159   0.547  1.5287 -0.2170 -3.6831
  601SOL     OW 2586   3.736   3.821   0.014 -0.4482  0.5321  0.0985
  601SOL    HW1 2587   3.799   3.761  -0.026 -0.8737  0.3861 -0.3633
  601SOL    HW2 2588   3.674   3.840  -0.056 -0.8328  0.7895  0.5087
  602SOL     OW 2589   1.465   2.834   4.375  0.5173 -0.1909  0.4818
  602SOL    HW1 2590   1.527   2.764   4.354  0.7607 -0.1514  1.0702
  602SOL    HW2 2591   1.497   2.872   4.456 -0.5558 -0.5028  1.0642
  603SOL     OW 2592   1.881   0.789   5.134 -0.0154  0.2724  0.2945
  603SOL    HW1 2593   1.948   0.851   5.104  0.1249 -0.7858 -1.6213
  603SOL    HW2 2594   1.929   0.707   5.149 -1.0146 -0.7745 -2.0653
  604SOL     OW 2595   1.608   1.947   1.666 -0.1865  0.2224  0.8614
  604SOL    HW1 2596   1.686   1.891   1.674 -0.4601 -0.2434  0.3118
  604SOL    HW2 2597   1.568   1.945   1.753  0.6417  0.7948  1.2571
  605SOL     OW 2598   2.583   3.766   1.170 -0.0729 -0.4503 -0.2208
  605SOL    HW1 2599   2.550   3.856   1.175  0.5262 -0.3129  1.8555
  605SOL    HW2 2600   2.505   3.712   1.179 -0.4073 -0.1353 -1.2218
  606SOL     OW 2601   2.258   3.911   4.661  0.6265  0.1303 -0.1605
  606SOL    HW1 2602   2.283   4.002   4.679  0.5104  0.8732 -3.4923
  606SOL    HW2 2603   2.336   3.872   4.622  0.3372 -0.9442  0.3027
  607SOL     OW 2604   2.614   4.184   0.069  0.4020 -0.4059 -0.5812
  607SOL    HW1 2605   2.674   4.142   0.008 -0.6123  1.0543 -2.6626
  607SOL    HW2 2606   2.564   4.112   0.108  3.6988 -1.6933  1.5182
  608SOL     OW 2607   0.626   1.736   0.409  0.7496  0.0137 -0.0251
  608SOL    HW1 2608   0.632   1.831   0.407  1.7356 -0.0539 -0.2424
  608SOL    HW2 2609   0.600   1.711   0.320  1.9955 -0.0213 -0.3849
  609SOL     OW 2610   1.618   1.997   5.022 -0.2976  0.4600  0.0828
  609SOL    HW1 2611   1.650   1.910   5.048  1.5666  0.5777 -1.6747
  609SOL    HW2 2612   1.589   1.986   4.932 -1.5644  1.3057  0.3847
  610SOL     OW 2613   2.492   0.818   5.202 -0.6648 -0.3864 -0.3052
  610SOL    HW1 2614   2.463   0.775   5.121 -1.3261 -1.6064  0.5727
  610SOL    HW2 2615   2.470   0.757   5.272  0.2106  0.5128  0.7860
  611SOL     OW 2616   2.410   2.481   1.199  0.5412  0.2737  0.0596
  611SOL    HW1 2617   2.438   2.494   1.290  0.3059 -4.7405  0.9695
  611SOL    HW2 2618   2.484   2.437   1.157 -0.6520 -0.5177 -1.2691
  612SOL     OW 2619   1.872   0.130   0.627 -0.7026  0.4622 -0.4306
  612SOL    HW1 2620   1.913   0.207   0.587  0.7013 -0.3521 -0.5915
  612SOL    HW2 2621   1.945   0.070   0.644 -1.8016 -0.9214 -0.5023
  613SOL     OW 2622   2.565   0.130   0.776 -0.2080  0.5026  0.3550
  613SOL    HW1 2623   2.578   0.036   0.761 -0.5883  0.4480  0.3774
  613SOL    HW2 2624   2.617   0.148   0.855  0.6988  0.5229 -0.2353
  614SOL     OW 2625   2.829   4.945   5.153  0.6018 -0.2878  0.4996
  614SOL    HW1 2626   2.913   4.937   5.199  0.4976 -0.7192  0.6116
  614SOL    HW2 2627   2.854   4.956   5.061  0.7703 -0.7553  0.4893
  615SOL     OW 2628   1.287   3.329   1.604  0.4599 -0.0292 -0.2332
  615SOL    HW1 2629   1.307   3.300   1.693 -3.0786  0.3576  0.7842
  615SOL    HW2 2630   1.317   3.420   1.601  1.3200 -0.2957  0.2995
  616SOL     OW 2631   2.109   2.165   4.938 -0.2994  0.1007  0.0215
  616SOL    HW1 2632   2.072   2.085   4.976 -2.1007  1.6473  1.6108
  616SOL    HW2 2633   2.041   2.196   4.877 -0.2118  1.1471  0.4398
  617SOL     OW 2634   1.389   1.865   4.416  0.3627 -0.0612 -0.1098
  617SOL    HW1 2635   1.434   1.796   4.465 -0.4751 -0.8496 -0.4336
  617SOL    HW2 2636   1.438   1.871   4.334  1.0503  0.4361  0.3374
  618SOL     OW 2637   1.531   4.572   1.117  0.4955 -0.1251  0.5701
  618SOL    HW1 2638   1.610   4.622   1.098  1.0384 -0.5640  1.6395
  618SOL    HW2 2639   1.467   4.605   1.055  1.5895  0.0522 -0.4879
  619SOL     OW 2640   2.311   1.349   4.722 -0.0817  0.1634 -0.4558
  619SOL    HW1 2641   2.350   1.432   4.693 -1.4004  1.7653  2.1178
  619SOL    HW2 2642   2.224   1.347   4.680  1.3217 -1.7407 -3.4301
  620SOL     OW 2643   2.350   5.111   4.435  0.3749  0.1235 -0.2369
  620SOL    HW1 2644   2.370   5.141   4.523  2.4412 -1.9913  0.0474
  620SOL    HW2 2645   2.435   5.091   4.396 -0.7471 -2.8257 -1.2995
  621SOL     OW 2646   2.055   1.067   0.188  0.3094 -0.3233  0.3445
  621SOL    HW1 2647   2.148   1.053   0.171  0.5222 -0.6948  1.7520
  621SOL    HW2 2648   2.016   0.980   0.179  0.0414 -0.1224 -0.5143
  622SOL     OW 2649   0.769   2.538   0.730 -0.4046 -0.1694 -0.3149
  622SOL    HW1 2650   0.809   2.505   0.650 -0.7415 -0.1013 -0.5121
  622SOL    HW2 2651   0.784   2.469   0.795  1.2732  0.4567 -0.0138
  623SOL     OW 2652   1.265   3.701   1.286 -0.3998 -0.0667  0.1005
  623SOL    HW1 2653   1.270   3.717   1.192 -0.6893  0.2681  0.1447
  623SOL    HW2 2654   1.223   3.779   1.322  1.9189  0.9003  0.8107
  624SOL     OW 2655   3.012   2.301   4.793 -0.1002 -0.5360  0.4529
  624SOL    HW1 2656   2.990   2.241   4.723  1.0517 -1.0362  0.5000
  624SOL    HW2 2657   2.983   2.387   4.762 -1.2595 -1.0349  0.1612
  625SOL     OW 2658   2.866   0.181   4.403 -0.1587 -0.2358 -0.8590
  625SOL    HW1 2659   2.782   0.226   4.409  1.0883  2.1744 -0.4107
  625SOL    HW2 2660   2.909   0.199   4.487  2.1155  1.4174 -2.3017
  626SOL     OW 2661   1.866   0.764   4.744 -0.5240 -0.8871  0.5538
  626SOL    HW1 2662   1.876   0.764   4.839  3.6113 -2.1503  0.1866
  626SOL    HW2 2663   1.838   0.854   4.724 -0.1800 -0.2235  2.8569
  627SOL     OW 2664   2.346   2.415   4.943  0.1711 -0.3977 -0.4155
  627SOL    HW1 2665   2.415   2.373   4.892 -1.0119 -3.1111  0.0982
  627SOL    HW2 2666   2.265   2.380   4.906 -0.8888  1.7312 -0.1498
  628SOL     OW 2667   3.241   4.248   0.198  0.1763 -0.1987 -0.4252
  628SOL    HW1 2668   3.313   4.201   0.240 -0.4406  0.1864  1.0975
  628SOL    HW2 2669   3.167   4.238   0.259 -0.4694  1.1786 -0.9621
  629SOL     OW 2670   1.573   2.210   5.180  0.0408  0.1925 -0.8336
  629SOL    HW1 2671   1.483   2.181   5.190 -0.2022  0.5880 -1.7592
  629SOL    HW2 2672   1.610   2.150   5.115  0.9578 -1.0434  0.7839
  630SOL     OW 2673   1.455   2.660   4.635 -0.2697  0.1287  0.2044
  630SOL    HW1 2674   1.532   2.715   4.645 -0.2936  0.1607  0.2157
  630SOL    HW2 2675   1.487   2.578   4.597  0.1323 -0.7817  2.4291
  631SOL     OW 2676   2.526   4.290   4.780 -0.3783  0.2094 -0.0203
  631SOL    HW1 2677   2.574   4.256   4.704  1.0945 -0.8888  1.3713
  631SOL    HW2 2678   2.592   4.336   4.831 -0.8523 -1.1206  1.8147
  632SOL     OW 2679   0.659   4.263   0.681  0.8798  0.0153  0.5276
  632SOL    HW1 2680   0.616   4.348   0.683  1.6185  0.4918 -1.9951
  632SOL    HW2 2681   0.693   4.251   0.770 -0.4959  1.6738  1.2982
  633SOL     OW 2682   3.104   1.932   0.542 -0.7719 -0.6645 -0.1574
  633SOL    HW1 2683   3.189   1.970   0.519 -0.1204 -1.9893  0.0237
  633SOL    HW2 2684   3.046   1.960   0.471 -0.3324  0.6985 -0.0026
  634SOL     OW 2685   2.622   5.035   0.508 -0.2921  1.2462 -0.5142
  634SOL    HW1 2686   2.644   5.024   0.416  0.5844  1.7499 -0.3724
  634SOL    HW2 2687   2.537   4.992   0.518  1.1681 -1.8104 -0.8090
  635SOL     OW 2688   1.796   0.991   0.709  0.4946  1.1689 -0.0592
  635SOL    HW1 2689   1.824   0.901   0.726 -3.3496  0.3178  2.5202
  635SOL    HW2 2690   1.872   1.044   0.730  2.0879 -1.3298  0.7429
  636SOL     OW 2691   1.022   1.704   0.811 -0.0531  0.3592 -0.5778
  636SOL    HW1 2692   0.974   1.695   0.729 -0.8705  1.4429 -0.2256
  636SOL    HW2 2693   0.981   1.640   0.870 -0.5117  0.6973 -0.5307
  637SOL     OW 2694   1.470   1.602   4.812 -0.4734 -0.7704  0.1076
  637SOL    HW1 2695   1.392   1.552   4.836  0.1404 -1.5305  0.5245
  637SOL    HW2 2696   1.457   1.688   4.853  0.3794 -1.9147  2.8318
  638SOL     OW 2697   2.253   1.314   2.394 -0.1215  0.8704  0.2130
  638SOL    HW1 2698   2.309   1.372   2.342 -0.0463 -0.1569 -0.8733
  638SOL    HW2 2699   2.303   1.232   2.400 -0.7847  0.4979  0.6517
  639SOL     OW 2700   2.049   3.195   4.242 -0.2377  1.0924 -0.5799
  639SOL    HW1 2701   2.070   3.102   4.242 -2.5201  0.5526 -0.9364
  639SOL    HW2 2702   2.072   3.225   4.154 -0.6702  0.5798 -0.8687
  640SOL     OW 2703   2.558   0.841   4.679  0.7026  0.3795 -0.2007
  640SOL    HW1 2704   2.542   0.760   4.630 -2.1368  0.5036  0.4428
  640SOL    HW2 2705   2.578   0.812   4.768 -0.8036  0.3909  0.1474
  641SOL     OW 2706   3.375   1.175   0.689 -0.4577  0.6309  0.1457
  641SOL    HW1 2707   3.421   1.101   0.650  1.3597  2.3805 -1.1383
  641SOL    HW2 2708   3.349   1.144   0.775 -0.7003 -1.8550 -0.7696
  642SOL     OW 2709   3.504   3.019   0.648  0.6766  0.3420  0.4358
  642SOL    HW1 2710   3.470   3.016   0.558  1.7467 -1.6583  0.0689
  642SOL    HW2 2711   3.580   3.078   0.643  1.3122 -0.5093 -0.2045
  643SOL     OW 2712   1.718   2.671   1.227  0.4085 -0.8396  0.0541
  643SOL    HW1 2713   1.645   2.727   1.203  0.1299 -0.9477  0.6571
  643SOL    HW2 2714   1.686   2.618   1.300  1.6291  0.3148  1.4654
  644SOL     OW 2715   1.727   4.471   4.539 -0.1263 -0.3791 -0.2959
  644SOL    HW1 2716   1.765   4.400   4.591  1.3312 -0.2360 -1.1270
  644SOL    HW2 2717   1.655   4.429   4.491  0.7501 -1.3302 -0.8114
  645SOL     OW 2718   2.323   1.992   0.207  0.3580  0.2251  0.0005
  645SOL    HW1 2719   2.378   2.063   0.239  2.2869 -1.3098  0.1429
  645SOL    HW2 2720   2.263   1.975   0.280  0.3681  1.1902  0.2476
  646SOL     OW 2721   2.886   4.944   0.582  0.3551 -0.1673  0.3567
  646SOL    HW1 2722   2.876   4.852   0.608  0.4551 -0.3547 -0.2569
  646SOL    HW2 2723   2.797   4.973   0.564  0.2514  0.0518  1.1900
  647SOL     OW 2724   0.464   3.230   5.162 -0.6193 -0.3362 -0.3240
  647SOL    HW1 2725   0.487   3.137   5.165  0.0522 -0.1501  0.3518
  647SOL    HW2 2726   0.471   3.253   5.069 -0.6996 -0.9419 -0.4812
  648SOL     OW 2727   2.346   3.354   1.011  0.1464 -0.2839  0.0748
  648SOL    HW1 2728   2.283   3.422   0.987 -0.0096  0.6405  2.9545
  648SOL    HW2 2729   2.306   3.272   0.981 -0.9584  0.5951 -0.8898
  649SOL     OW 2730   3.512   1.787   0.182  0.1190 -0.3529  0.2551
  649SOL    HW1 2731   3.445   1.719   0.184  0.3151 -0.5407  0.6756
  649SOL    HW2 2732   3.551   1.784   0.269 -0.4270  0.8599  0.5570
  650SOL     OW 2733   1.901   1.350   1.349 -0.0919 -0.3295  0.0252
  650SOL    HW1 2734   1.861   1.416   1.293 -2.9310 -2.8122 -1.0059
  650SOL    HW2 2735   1.908   1.391   1.434  1.7954  2.5903 -1.4506
  651SOL     OW 2736   2.906   2.227   1.115  0.1548  0.0808  0.2796
  651SOL    HW1 2737   2.828   2.271   1.083  0.1340 -0.4520 -0.4042
  651SOL    HW2 2738   2.926   2.271   1.198 -0.1606  1.0305 -0.1386
  652SOL     OW 2739   2.590   1.201   0.542  0.1755 -0.5990  0.0525
  652SOL    HW1 2740   2.614   1.213   0.634  1.3827 -0.0943 -0.3260
  652SOL    HW2 2741   2.593   1.106   0.530  0.8571 -0.6216  0.3255
  653SOL     OW 2742   1.810   3.295   0.092 -0.3854 -0.3728 -0.3569
  653SOL    HW1 2743   1.766   3.371   0.131 -0.6641 -1.2503  1.0710
  653SOL    HW2 2744   1.774   3.220   0.138 -0.9331 -1.4873 -2.5376
  654SOL     OW 2745   1.697   1.303   0.800 -0.4576  0.3860 -0.1854
  654SOL    HW1 2746   1.761   1.366   0.767  0.4022 -0.1733  0.3607
  654SOL    HW2 2747   1.746   1.252   0.865 -1.8272  0.8140  1.2186
  655SOL     OW 2748   2.646   0.938   0.533  0.2670  0.6414 -0.1224
  655SOL    HW1 2749   2.723   0.954   0.587  0.6427  0.3893 -0.5824
  655SOL    HW2 2750   2.602   0.864   0.575  1.3700 -0.5548 -1.0064
  656SOL     OW 2751   2.119   1.629   1.556  0.1051 -0.7520 -0.6050
  656SOL    HW1 2752   2.215   1.620   1.555  0.5167  2.8688 -0.9559
  656SOL    HW2 2753   2.097   1.665   1.470 -0.9707  2.9178  1.0829
  657SOL     OW 2754   1.709   4.044   0.565  0.6878  0.1333 -0.8599
  657SOL    HW1 2755   1.772   4.115   0.550  2.3736 -0.9882  0.7695
  657SOL    HW2 2756   1.762   3.972   0.598 -1.6032 -0.4948  1.5800
  658SOL     OW 2757   1.979   4.200   3.076  0.1696  0.5878 -0.1289
  658SOL    HW1 2758   1.896   4.217   3.122  0.2709  0.8527 -0.0400
  658SOL    HW2 2759   1.966   4.116   3.033 -1.0709  1.8143 -2.2114
  659SOL     OW 2760   0.850   2.723   4.356  0.1704  0.4324 -0.3140
  659SOL    HW1 2761   0.859   2.638   4.400 -0.5759  0.8108  0.6050
  659SOL    HW2 2762   0.781   2.768   4.406  1.3269  2.0095 -0.0978
  660SOL     OW 2763   1.367   1.603   1.521 -0.3084  0.6927 -0.1957
  660SOL    HW1 2764   1.348   1.532   1.460 -1.7585  0.3878  0.5730
  660SOL    HW2 2765   1.461   1.597   1.537 -0.4323 -1.1951  0.0055
  661SOL     OW 2766   3.362   3.268   5.073 -0.2253  0.5050  0.3480
  661SOL    HW1 2767   3.399   3.219   5.147 -0.3973 -1.7787 -1.0070
  661SOL    HW2 2768   3.423   3.339   5.058  0.6439  0.0632  1.7031
  662SOL     OW 2769   2.350   2.121   0.631 -0.6250 -0.1646 -0.1202
  662SOL    HW1 2770   2.298   2.176   0.690  0.0913 -0.2064  0.5753
  662SOL    HW2 2771   2.309   2.035   0.636 -0.3002 -0.2844  0.6953
  663SOL     OW 2772   2.146   3.441   1.577  0.0811  0.4211  0.0486
  663SOL    HW1 2773   2.228   3.487   1.562  0.1620  0.5069  0.7606
  663SOL    HW2 2774   2.165   3.379   1.648 -0.1115 -0.4915 -0.6776
  664SOL     OW 2775   2.703   1.650   0.035 -0.1482 -0.6910 -0.2125
  664SOL    HW1 2776   2.615   1.682   0.054  0.4906  0.0219  1.6147
  664SOL    HW2 2777   2.745   1.643   0.120  2.4813  1.5943 -1.2308
  665SOL     OW 2778   2.278   2.898   0.413  0.2595 -0.2039 -0.2419
  665SOL    HW1 2779   2.251   2.940   0.331 -0.5867  1.0566  0.6543
  665SOL    HW2 2780   2.199   2.896   0.465  0.6725 -1.5184  0.3373
  666SOL     OW 2781   1.175   3.239   5.053  0.8124  0.0955 -0.2658
  666SOL    HW1 2782   1.137   3.227   4.965  3.3270 -2.3000 -1.1184
  666SOL    HW2 2783   1.119   3.187   5.110 -0.6225  1.3615 -0.4902
  667SOL     OW 2784   2.084   2.250   0.069 -0.0115  0.8270 -0.3894
  667SOL    HW1 2785   2.099   2.190   0.142 -0.8430 -0.1511 -1.0222
  667SOL    HW2 2786   2.044   2.328   0.109 -0.5661  0.2500  0.1738
  668SOL     OW 2787   2.570   2.780   1.264 -0.2561  0.2432  0.4520
  668SOL    HW1 2788   2.575   2.846   1.333 -1.8569 -0.3228  1.1358
  668SOL    HW2 2789   2.657   2.740   1.262 -0.2140  0.2202  2.1951
  669SOL     OW 2790   2.807   3.146   4.624  0.1881 -0.0694  0.8193
  669SOL    HW1 2791   2.832   3.069   4.675  0.2580 -0.0947  0.7475
  669SOL    HW2 2792   2.711   3.144   4.623  0.2208 -1.5096 -1.2408
  670SOL     OW 2793   1.817   4.260   4.661 -0.0287 -0.6834  0.1746
  670SOL    HW1 2794   1.852   4.222   4.742 -0.5104 -0.9334  0.2677
  670SOL    HW2 2795   1.873   4.226   4.592  0.6808 -0.0902  0.4561
  671SOL     OW 2796   2.812   4.279   4.602  0.1194 -0.1039 -0.0435
  671SOL    HW1 2797   2.738   4.220   4.613  1.0811 -1.5983 -1.4050
  671SOL    HW2 2798   2.855   4.249   4.521  1.8935  1.0662  0.4397
  672SOL     OW 2799   0.919   2.379   0.523  0.9396  0.0904  0.0984
  672SOL    HW1 2800   0.935   2.409   0.434  1.2285  0.7135  0.3596
  672SOL    HW2 2801   1.005   2.349   0.554  0.8313 -0.1652  0.1542
  673SOL     OW 2802   0.716   3.449   0.911 -0.6353  0.2966  0.9459
  673SOL    HW1 2803   0.674   3.476   0.829 -0.6322  2.6330  1.6752
  673SOL    HW2 2804   0.655   3.477   0.979 -0.7689 -1.8855  1.7569
  674SOL     OW 2805   1.457   2.485   4.277  0.3520  0.7588 -0.5873
  674SOL    HW1 2806   1.536   2.536   4.258  1.7732 -1.3921 -0.6438
  674SOL    HW2 2807   1.485   2.422   4.344 -0.7032 -1.4628 -2.1555
  675SOL     OW 2808   1.101   4.593   1.118  0.1338 -0.6170 -0.0575
  675SOL    HW1 2809   1.056   4.537   1.055  2.2471 -0.4610 -1.7620
  675SOL    HW2 2810   1.122   4.535   1.191  2.1688 -2.0859 -1.7382
  676SOL     OW 2811   1.528   3.524   4.803  0.6237  0.0872  0.1148
  676SOL    HW1 2812   1.519   3.606   4.852 -0.8122 -0.0106  0.0402
  676SOL    HW2 2813   1.612   3.532   4.758  0.4702  1.5468  0.0629
  677SOL     OW 2814   1.385   3.455   1.364 -0.2750 -0.5964 -0.5315
  677SOL    HW1 2815   1.355   3.540   1.329 -1.3098 -1.3301 -1.4616
  677SOL    HW2 2816   1.481   3.462   1.363 -0.3544  0.8338  0.0898
  678SOL     OW 2817   3.369   2.804   4.261 -0.7040  0.0328  0.2533
  678SOL    HW1 2818   3.362   2.762   4.175  1.9937  1.9342 -0.9844
  678SOL    HW2 2819   3.304   2.759   4.315 -3.4129 -0.3368 -3.1030
  679SOL     OW 2820   2.144   2.538   1.687  0.7019  0.2773  0.2089
  679SOL    HW1 2821   2.151   2.461   1.742  0.5279  1.5815  2.1087
  679SOL    HW2 2822   2.050   2.548   1.671  0.8832 -1.2742 -2.0944
  680SOL     OW 2823   2.102   1.969   1.522 -0.0258 -0.0302 -0.1853
  680SOL    HW1 2824   2.158   1.894   1.543  1.1312  0.7593 -0.4077
  680SOL    HW2 2825   2.138   2.041   1.572 -0.3572  0.6784 -0.9518
  681SOL     OW 2826   4.030   2.451   4.778 -0.0713  0.0414  0.2623
  681SOL    HW1 2827   4.009   2.483   4.866 -2.6070  0.0367 -0.3025
  681SOL    HW2 2828   4.125   2.440   4.779 -0.1963 -1.4266  3.5123
  682SOL     OW 2829   1.951   3.908   4.522  0.3815 -0.1237  0.0994
  682SOL    HW1 2830   1.928   3.997   4.495  0.7943  0.0113  0.1916
  682SOL    HW2 2831   2.045   3.902   4.506  0.2528 -0.7402 -0.4620
  683SOL     OW 2832   2.204   1.963   4.776 -0.6576 -0.6292  0.3862
  683SOL    HW1 2833   2.207   2.010   4.859 -0.4009  1.1211 -0.6048
  683SOL    HW2 2834   2.111   1.956   4.756 -0.6700  0.0293  0.2141
  684SOL     OW 2835   1.620   0.751   5.257 -0.6092 -0.0307 -0.3259
  684SOL    HW1 2836   1.692   0.811   5.242  2.2747 -3.0186  0.8282
  684SOL    HW2 2837   1.557   0.770   5.187  2.0853  1.4736 -2.4348
  685SOL     OW 2838   1.413   2.978   1.765 -0.1629 -0.2900  0.3369
  685SOL    HW1 2839   1.353   2.987   1.692  0.2141  0.3952  0.1137
  685SOL    HW2 2840   1.500   2.973   1.725  0.2592  2.3595  0.8297
  686SOL     OW 2841   2.180   0.020   0.640  0.3195  0.9609 -0.5405
  686SOL    HW1 2842   2.236   0.042   0.565  0.7376  1.4350 -0.0899
  686SOL    HW2 2843   2.213   0.074   0.711 -1.0816  1.6756 -0.4239
  687SOL     OW 2844   1.227   2.480   4.413  0.5397  0.3089 -0.4669
  687SOL    HW1 2845   1.163   2.470   4.343  1.3522 -0.1292 -1.1460
  687SOL    HW2 2846   1.310   2.496   4.369  0.8779  1.0943  0.4166
  688SOL     OW 2847   1.965   1.628   2.112  0.0706 -0.5087  1.3445
  688SOL    HW1 2848   1.950   1.538   2.084 -3.1679 -0.6322  3.1885
  688SOL    HW2 2849   1.993   1.621   2.203  0.1807  0.3236  1.3846
  689SOL     OW 2850   1.790   2.058   0.825  0.1772 -0.1777  0.7159
  689SOL    HW1 2851   1.697   2.041   0.815  0.4167 -1.0596 -0.1240
  689SOL    HW2 2852   1.832   1.974   0.804  1.1068 -0.0355  1.9719
  690SOL     OW 2853   2.011   1.174   0.519  0.0180  0.5617  0.1378
  690SOL    HW1 2854   2.085   1.113   0.522  1.5157  2.1612 -2.5823
  690SOL    HW2 2855   1.973   1.162   0.432  0.2086  3.3479 -0.3587
  691SOL     OW 2856   1.610   3.699   4.314  0.1603  0.6168  0.6235
  691SOL    HW1 2857   1.623   3.668   4.403 -1.7445  0.9218  1.0061
  691SOL    HW2 2858   1.541   3.764   4.320 -1.3562 -0.7566 -1.3545
  692SOL     OW 2859   2.796   0.940   0.913 -0.1524 -0.6669  0.3703
  692SOL    HW1 2860   2.866   0.999   0.937 -0.3749  0.5940 -1.8922
  692SOL    HW2 2861   2.752   0.918   0.995  0.8600  1.1251  1.3927
  693SOL     OW 2862   2.624   2.106   0.890  0.3158 -0.6593  0.8361
  693SOL    HW1 2863   2.544   2.053   0.897  0.6102 -1.2524 -0.2182
  693SOL    HW2 2864   2.613   2.174   0.957 -1.5397 -0.1037  0.0047
  694SOL     OW 2865   2.682   4.981   4.747 -0.7154  0.5672 -0.7364
  694SOL    HW1 2866   2.661   4.901   4.795  0.7684  1.2520  1.1129
  694SOL    HW2 2867   2.754   4.956   4.689  0.9769  0.9835  1.1558
  695SOL     OW 2868   3.015   1.913   0.822 -0.9889 -0.4123  0.3907
  695SOL    HW1 2869   3.080   1.854   0.860  1.5106  2.1653  0.3159
  695SOL    HW2 2870   3.049   1.934   0.735 -0.3710  3.1522  1.3805
  696SOL     OW 2871   1.650   1.043   4.972 -0.1320 -0.2285 -0.8498
  696SOL    HW1 2872   1.720   0.993   4.928  1.6462  0.6498  0.8874
  696SOL    HW2 2873   1.697   1.112   5.019 -2.0123 -0.7640  1.9037
  697SOL     OW 2874   2.104   5.063   0.501  0.2887  0.4210  0.2845
  697SOL    HW1 2875   2.172   4.999   0.522  0.8020  0.7119 -0.5074
  697SOL    HW2 2876   2.150   5.147   0.495 -0.1824  0.6599  0.0129
  698SOL     OW 2877   2.652   5.144   0.001 -0.1427  1.0210  0.2953
  698SOL    HW1 2878   2.702   5.142   0.082  1.8441  3.4845 -0.8073
  698SOL    HW2 2879   2.714   5.113  -0.066 -1.6959 -0.8120 -0.3666
  699SOL     OW 2880   1.146   2.258   1.198  0.4044  0.5106 -0.0585
  699SOL    HW1 2881   1.182   2.339   1.235  0.8743 -0.4894  1.6945
  699SOL    HW2 2882   1.141   2.198   1.271 -2.5157 -0.2024 -0.7928
  700SOL     OW 2883   0.975   2.193   4.749 -0.0697 -0.3856  0.1287
  700SOL    HW1 2884   0.889   2.230   4.729 -0.4899 -0.7797  1.1417
  700SOL    HW2 2885   0.967   2.101   4.723 -0.6602 -0.9285  2.1475
  701SOL     OW 2886   1.218   2.056   1.429 -0.1682 -0.0335 -0.2584
  701SOL    HW1 2887   1.296   2.007   1.456  2.2469  2.8637 -1.6881
  701SOL    HW2 2888   1.179   2.086   1.511  0.4600 -1.1393  0.4589
  702SOL     OW 2889   0.961   1.918   4.772  0.0500 -0.2202 -0.1725
  702SOL    HW1 2890   0.897   1.874   4.717 -1.3215 -0.0160  1.2251
  702SOL    HW2 2891   0.982   1.855   4.840  0.2407  0.2385  0.1977
  703SOL     OW 2892   0.711   2.629   0.171  0.0464  0.2706 -0.4387
  703SOL    HW1 2893   0.795   2.610   0.212 -0.5029 -1.1211  0.0610
  703SOL    HW2 2894   0.654   2.655   0.243 -0.5216 -0.8131 -0.4811
  704SOL     OW 2895   0.654   1.995   0.266  1.4587 -0.4727 -0.5978
  704SOL    HW1 2896   0.658   2.091   0.274  0.2844 -0.4283 -0.5615
  704SOL    HW2 2897   0.645   1.979   0.172 -2.8141 -0.3753 -0.2759
  705SOL     OW 2898   1.517   0.617   0.239  0.2942  0.0190  0.0341
  705SOL    HW1 2899   1.429   0.630   0.203  0.0849 -1.3674  0.0210
  705SOL    HW2 2900   1.576   0.632   0.165  0.1118  1.3134  0.1272
  706SOL     OW 2901   0.971   1.374   0.568 -0.3753  0.2762 -0.0420
  706SOL    HW1 2902   0.916   1.305   0.605  0.6981  0.2360  1.5449
  706SOL    HW2 2903   1.056   1.361   0.610  0.0467  2.1129 -0.3046
  707SOL     OW 2904   3.084   3.737   1.285 -0.8531 -0.7185 -0.2145
  707SOL    HW1 2905   3.041   3.696   1.211  0.6606 -2.0950 -0.3547
  707SOL    HW2 2906   3.168   3.767   1.250 -0.8952  0.2578  0.5001
  708SOL     OW 2907   3.048   0.459   0.553 -1.1345  0.1002  0.5520
  708SOL    HW1 2908   3.015   0.452   0.642  0.3241  3.7070  1.4861
  708SOL    HW2 2909   3.012   0.383   0.507 -1.7392 -1.9299  4.2334
  709SOL     OW 2910   3.601   3.619   4.181  0.8236  0.0528 -0.0274
  709SOL    HW1 2911   3.623   3.581   4.267 -0.4008  0.0930  0.3175
  709SOL    HW2 2912   3.623   3.550   4.118 -0.3951 -0.8469  0.5108
  710SOL     OW 2913   1.872   3.262   4.422 -0.6250 -0.5877  0.2613
  710SOL    HW1 2914   1.828   3.345   4.403 -0.9803 -0.1153  2.8815
  710SOL    HW2 2915   1.928   3.246   4.346 -0.8222  1.8736 -0.4482
  711SOL     OW 2916   2.950   2.184   0.843 -0.3600  0.4655  0.1658
  711SOL    HW1 2917   2.892   2.181   0.920  1.2510 -2.7236  1.3533
  711SOL    HW2 2918   2.934   2.101   0.798  2.0139  0.3054 -0.4384
  712SOL     OW 2919   3.374   1.978   0.860  0.3282  0.3970  0.2063
  712SOL    HW1 2920   3.387   2.073   0.866  2.5666  0.1184  0.3975
  712SOL    HW2 2921   3.327   1.955   0.940 -2.1433  1.6011 -0.8403
  713SOL     OW 2922   1.727   2.566   1.979  0.1506  0.3586  0.5616
  713SOL    HW1 2923   1.761   2.585   1.892 -0.5092 -1.4048 -0.1078
  713SOL    HW2 2924   1.655   2.628   1.991  1.5082  1.9336  0.6794
  714SOL     OW 2925   2.076   0.969   5.077  1.1557  0.0865 -0.0413
  714SOL    HW1 2926   2.155   0.921   5.103  1.1141  0.8333  1.4816
  714SOL    HW2 2927   2.107   1.058   5.059  0.5731  0.5348  1.1389
  715SOL     OW 2928   1.327   4.301   0.878 -0.3162  0.2775 -0.5534
  715SOL    HW1 2929   1.313   4.350   0.959 -1.2382  1.2653 -1.3001
  715SOL    HW2 2930   1.295   4.359   0.809 -2.3384 -1.7476 -1.3689
  716SOL     OW 2931   1.268   4.060   1.777 -0.0739 -0.2048  0.3248
  716SOL    HW1 2932   1.226   4.103   1.703  1.1250 -0.7331 -0.6936
  716SOL    HW2 2933   1.217   3.980   1.790 -1.1334  0.5804  0.9718
  717SOL     OW 2934   1.392   2.120   0.627 -0.6139  0.3796  0.5714
  717SOL    HW1 2935   1.433   2.045   0.669 -0.1996 -0.5744 -1.4861
  717SOL    HW2 2936   1.460   2.188   0.627 -0.5577  0.3222  1.2634
  718SOL     OW 2937   1.153   3.181   4.610  0.1795 -1.0913  0.3239
  718SOL    HW1 2938   1.214   3.116   4.645 -0.4073 -1.6328  0.3400
  718SOL    HW2 2939   1.083   3.185   4.674  0.1240 -0.5628  0.2369
  719SOL     OW 2940   3.185   2.616   4.365  0.1929 -0.0429  0.0095
  719SOL    HW1 2941   3.249   2.574   4.423 -0.1198  0.5687  0.8070
  719SOL    HW2 2942   3.118   2.548   4.351 -0.8244  0.4868  2.1112
  720SOL     OW 2943   3.631   2.594   0.164 -0.0026  0.5475  0.4822
  720SOL    HW1 2944   3.622   2.672   0.220  0.1893  2.4953 -2.1185
  720SOL    HW2 2945   3.647   2.629   0.077  0.9393 -2.4583 -0.6090
  721SOL     OW 2946   1.037   3.527   4.811  0.3994 -0.3027  0.5707
  721SOL    HW1 2947   1.104   3.459   4.818  1.8247  0.9475 -0.4485
  721SOL    HW2 2948   1.065   3.595   4.872  0.6993  0.7151 -0.6665
  722SOL     OW 2949   2.361   2.217   0.384  0.4142 -0.1329  0.5461
  722SOL    HW1 2950   2.409   2.298   0.398 -0.1234  0.2192  0.3709
  722SOL    HW2 2951   2.344   2.182   0.471  0.9116 -0.2100  0.6091
  723SOL     OW 2952   1.825   2.012   2.068  0.7749 -0.0137  0.1202
  723SOL    HW1 2953   1.920   2.011   2.081  0.7150 -0.4507  0.5680
  723SOL    HW2 2954   1.800   1.919   2.070  0.2940  0.1200  0.3876
  724SOL     OW 2955   0.617   2.408   0.018 -0.1751 -0.3142  0.2435
  724SOL    HW1 2956   0.607   2.366   0.103  0.1506 -1.3310 -0.2004
  724SOL    HW2 2957   0.672   2.485   0.035 -1.4293  0.3773  1.2028
  725SOL     OW 2958   1.288   1.778   0.768  0.2050  0.2284  0.4156
  725SOL    HW1 2959   1.208   1.745   0.810 -0.0953  1.7670  1.1112
  725SOL    HW2 2960   1.257   1.848   0.711  0.7864 -0.8980 -1.3167
  726SOL     OW 2961   1.486   0.870   0.562  0.6407  0.3098 -0.5574
  726SOL    HW1 2962   1.423   0.942   0.564  0.6771  0.3368 -0.3540
  726SOL    HW2 2963   1.506   0.858   0.469  0.4863  0.4323 -0.6069
  727SOL     OW 2964   1.857   1.847   1.595  0.0086 -0.2208  0.1937
  727SOL    HW1 2965   1.938   1.883   1.559 -0.5699  0.1811 -0.7443
  727SOL    HW2 2966   1.885   1.783   1.659  1.0855 -1.3897 -1.4162
  728SOL     OW 2967   1.252   1.602   0.483  0.1744 -0.6606 -0.3651
  728SOL    HW1 2968   1.171   1.645   0.454 -0.2608 -0.1047  1.5728
  728SOL    HW2 2969   1.290   1.566   0.403 -1.4305  0.0194 -1.4704
  729SOL     OW 2970   2.164   0.937   0.494 -0.0468  0.1297  0.4186
  729SOL    HW1 2971   2.091   0.914   0.438 -2.0786  2.2462  2.0929
  729SOL    HW2 2972   2.241   0.925   0.439 -1.8662  0.9750 -2.4090
  730SOL     OW 2973   3.103   3.728   0.243 -0.3919 -0.2554 -0.4826
  730SOL    HW1 2974   3.123   3.692   0.157 -2.1133 -0.2422 -0.8946
  730SOL    HW2 2975   3.010   3.709   0.257 -0.0540 -0.5444  1.5098
  731SOL     OW 2976   1.672   1.551   1.522  0.2272 -0.0381  0.8250
  731SOL    HW1 2977   1.677   1.628   1.465  1.1516  0.3889  1.4709
  731SOL    HW2 2978   1.758   1.547   1.564 -0.3487 -0.5066  1.9775
  732SOL     OW 2979   2.348   2.597   0.522 -0.0630 -0.2405 -0.8176
  732SOL    HW1 2980   2.268   2.602   0.469  0.1197 -0.5292 -1.1243
  732SOL    HW2 2981   2.320   2.557   0.604 -0.0699 -1.1661 -1.2625
  733SOL     OW 2982   3.266   3.585   4.381 -0.5205 -0.4115  0.1311
  733SOL    HW1 2983   3.311   3.646   4.441  0.5548 -0.5266 -0.5535
  733SOL    HW2 2984   3.221   3.524   4.439 -1.1099  0.6648  0.8308
  734SOL     OW 2985   0.207   2.939   1.123  0.7062  0.2179 -0.0799
  734SOL    HW1 2986   0.201   3.021   1.075  1.3589 -0.3444 -1.1275
  734SOL    HW2 2987   0.122   2.898   1.111  0.8852  0.0580 -0.7818
  735SOL     OW 2988   2.586   0.285   4.443  0.7557  0.3400 -0.0247
  735SOL    HW1 2989   2.571   0.196   4.476 -0.4854  1.0122  1.2900
  735SOL    HW2 2990   2.527   0.340   4.495 -0.1594  1.6516 -2.3967
  736SOL     OW 2991   2.078   2.605   0.403 -0.2985  0.4441 -0.4013
  736SOL    HW1 2992   2.003   2.624   0.459 -0.6253 -2.3935  0.2449
  736SOL    HW2 2993   2.056   2.644   0.318 -2.4679 -0.2221 -0.1841
  737SOL     OW 2994   2.270   4.230   4.730 -0.4929  0.3598 -0.1531
  737SOL    HW1 2995   2.358   4.252   4.761  0.4243 -2.2723 -0.7331
  737SOL    HW2 2996   2.271   4.254   4.637  0.0609 -0.8079 -0.4634
  738SOL     OW 2997   2.940   3.912   4.571  0.2689 -0.3647 -0.8915
  738SOL    HW1 2998   2.922   3.968   4.495  1.6340 -0.7670 -1.5286
  738SOL    HW2 2999   2.855   3.872   4.591  0.1628 -1.3132 -3.0926
  739SOL     OW 3000   2.000   2.586   1.408  0.0708  0.2555 -0.6617
  739SOL    HW1 3001   1.930   2.578   1.473 -0.6101  1.9712 -1.1649
  739SOL    HW2 3002   2.081   2.589   1.460 -0.3322 -0.1974 -0.0043
  740SOL     OW 3003   2.067   1.605   5.173  0.5658 -0.2710 -0.7071
  740SOL    HW1 3004   2.160   1.595   5.153  0.2561 -1.2349 -1.7270
  740SOL    HW2 3005   2.038   1.516   5.193  0.7755  0.5570  3.7905
  741SOL     OW 3006   2.793   4.544   1.051  0.1019 -0.4757  0.1083
  741SOL    HW1 3007   2.703   4.514   1.063 -0.7401  1.0787 -2.0124
  741SOL    HW2 3008   2.786   4.638   1.036  2.1424 -0.2178  0.5469
  742SOL     OW 3009   2.366   3.754   3.793 -0.1619  0.0448 -0.2877
  742SOL    HW1 3010   2.348   3.757   3.699  0.3104 -2.5674 -0.4852
  742SOL    HW2 3011   2.382   3.662   3.812 -0.5587  0.4837  2.4286
  743SOL     OW 3012   2.455   4.013   0.996 -0.3623 -0.1474  0.1373
  743SOL    HW1 3013   2.526   3.978   0.942 -0.4354 -0.0667 -0.0107
  743SOL    HW2 3014   2.383   4.028   0.934  0.2434  1.9028 -0.1126
  744SOL     OW 3015   1.483   0.110   0.300  0.4956 -0.0177  0.3257
  744SOL    HW1 3016   1.524   0.024   0.306 -1.6042 -1.1496 -1.1860
  744SOL    HW2 3017   1.504   0.140   0.212  0.4924  0.6693  0.5538
  745SOL     OW 3018   1.568   4.193   4.801  0.9597  0.0212 -0.9800
  745SOL    HW1 3019   1.573   4.179   4.896 -0.2797  1.9150 -0.5976
  745SOL    HW2 3020   1.658   4.204   4.773  1.2481  0.8652  0.2323
  746SOL     OW 3021   1.293   2.243   0.970 -0.5320  0.1808  0.2248
  746SOL    HW1 3022   1.240   2.262   1.048 -0.3846  1.7444 -0.0250
  746SOL    HW2 3023   1.379   2.217   1.005 -0.6880  0.1516  0.5930
  747SOL     OW 3024   2.694   1.688   1.275 -0.0895 -0.2543  0.7261
  747SOL    HW1 3025   2.644   1.757   1.318  0.2828  0.0919  0.6008
  747SOL    HW2 3026   2.762   1.734   1.226  0.0854 -0.7011  0.5446
  748SOL     OW 3027   1.426   2.580   0.530 -0.1402  0.4191 -0.2672
  748SOL    HW1 3028   1.415   2.632   0.450  0.6818 -0.7203 -1.1319
  748SOL    HW2 3029   1.397   2.492   0.506 -1.7223  0.5030  1.2614
  749SOL     OW 3030   2.336   3.698   1.363 -0.4115 -0.2041 -0.1185
  749SOL    HW1 3031   2.255   3.718   1.316 -0.2641 -0.3478 -0.4366
  749SOL    HW2 3032   2.344   3.603   1.356  0.2061 -0.1058 -0.7780
  750SOL     OW 3033   3.423   2.233   0.908 -0.1854 -0.4948 -0.6941
  750SOL    HW1 3034   3.485   2.274   0.968 -0.7071  0.7737 -1.0072
  750SOL    HW2 3035   3.351   2.204   0.963 -0.4680  0.2845 -0.6607
  751SOL     OW 3036   2.512   3.545   0.845 -0.3869 -0.0475  0.0753
  751SOL    HW1 3037   2.541   3.486   0.775  1.6734 -0.2522  1.0790
  751SOL    HW2 3038   2.488   3.487   0.917  0.2544  0.2945  0.5588
  752SOL     OW 3039   1.471   4.227   0.446 -0.2301 -0.3418  0.4211
  752SOL    HW1 3040   1.381   4.233   0.416  0.4437  2.8377 -1.1728
  752SOL    HW2 3041   1.492   4.315   0.477  2.2708 -1.0652  0.8782
  753SOL     OW 3042   0.800   4.106   0.501 -0.1166  0.6893  0.5153
  753SOL    HW1 3043   0.753   4.177   0.545 -0.9268  0.6775 -0.2967
  753SOL    HW2 3044   0.816   4.041   0.570 -2.1796  0.2568  0.6298
  754SOL     OW 3045   0.838   4.194   0.898 -0.0088  0.2371 -0.4204
  754SOL    HW1 3046   0.907   4.253   0.867 -0.6865  1.6299  0.6621
  754SOL    HW2 3047   0.846   4.196   0.993 -1.0840 -0.1448 -0.3184
  755SOL     OW 3048   1.973   5.007   0.747  0.1008 -0.5180  0.0080
  755SOL    HW1 3049   2.044   5.062   0.714 -0.0588  0.2430  0.9126
  755SOL    HW2 3050   1.971   5.024   0.841  0.8584 -3.0373  0.5166
  756SOL     OW 3051   2.458   5.120   4.696 -0.0077 -0.1650  0.2279
  756SOL    HW1 3052   2.389   5.055   4.711  0.1737 -0.0138  1.8465
  756SOL    HW2 3053   2.540   5.070   4.705  0.1184  0.0558  0.3059
  757SOL     OW 3054   3.389   2.439   4.493  0.2389 -0.0902  0.3521
  757SOL    HW1 3055   3.410   2.513   4.550 -1.3672 -1.1232  2.3760
  757SOL    HW2 3056   3.383   2.364   4.553 -0.8719 -1.3344 -1.2601
  758SOL     OW 3057   3.258   0.932   0.238 -0.4033 -0.1335  0.5743
  758SOL    HW1 3058   3.291   0.843   0.226 -2.0015 -0.9276  1.7790
  758SOL    HW2 3059   3.258   0.945   0.333 -1.6284  0.5592  0.5025
  759SOL     OW 3060   4.908   2.583   4.163  0.4346 -0.2456 -0.0321
  759SOL    HW1 3061   4.833   2.561   4.109  0.6861 -0.3047 -0.3548
  759SOL    HW2 3062   4.910   2.679   4.163 -0.6658 -0.2022  1.3853
  760SOL     OW 3063   1.954   4.965   0.033  0.1483  0.5648 -0.3041
  760SOL    HW1 3064   1.937   4.898   0.099 -2.2462  1.6629  0.2589
  760SOL    HW2 3065   2.049   4.968   0.026  0.4161 -0.3578  2.2910
  761SOL     OW 3066   2.323   1.314   0.936  0.2516  0.0384 -0.4007
  761SOL    HW1 3067   2.267   1.252   0.982 -1.8313  1.9882 -0.1603
  761SOL    HW2 3068   2.324   1.284   0.845  1.0330 -1.5158  0.1052
  762SOL     OW 3069   2.377   3.637   3.326  0.3084 -0.2033 -0.7093
  762SOL    HW1 3070   2.452   3.679   3.370  0.9970 -0.6454 -1.4542
  762SOL    HW2 3071   2.376   3.548   3.360 -0.4190  0.0571 -0.0411
  763SOL     OW 3072   1.696   1.313   5.215  0.5988 -0.0853 -0.0572
  763SOL    HW1 3073   1.717   1.332   5.306  3.8073  0.6782 -0.8945
  763SOL    HW2 3074   1.757   1.242   5.191 -0.4458 -0.5099 -1.5008
  764SOL     OW 3075   2.858   2.311   1.396 -0.2692 -0.1591 -0.3135
  764SOL    HW1 3076   2.889   2.251   1.463  0.9349  1.7788  0.9250
  764SOL    HW2 3077   2.779   2.270   1.360  1.1326 -2.9554 -0.2840
  765SOL     OW 3078   3.417   2.585   0.341 -0.4813  0.0459 -0.3643
  765SOL    HW1 3079   3.470   2.563   0.265 -0.1658  0.4050 -0.2488
  765SOL    HW2 3080   3.422   2.680   0.347 -0.6768  0.0341 -0.0206
  766SOL     OW 3081   2.746   0.284   0.176 -0.7973 -0.8729 -0.2111
  766SOL    HW1 3082   2.693   0.359   0.202  0.3809  0.3079 -1.1664
  766SOL    HW2 3083   2.720   0.266   0.086 -0.6632 -1.2283 -0.1794
  767SOL     OW 3084   2.964   2.708   0.133  0.3259  0.1926 -0.3226
  767SOL    HW1 3085   3.041   2.762   0.118  1.4283 -0.3666  2.9256
  767SOL    HW2 3086   2.941   2.724   0.225 -2.9445 -0.2847 -0.9884
  768SOL     OW 3087   3.390   0.703   0.552 -1.1593 -0.2149  0.6202
  768SOL    HW1 3088   3.388   0.648   0.474 -3.7289 -0.5243  0.8694
  768SOL    HW2 3089   3.298   0.714   0.576 -0.6456  3.5487  1.0473
  769SOL     OW 3090   2.932   3.695   0.470 -0.0797 -0.9017 -0.1974
  769SOL    HW1 3091   2.929   3.738   0.556  0.5541  1.0633 -1.1368
  769SOL    HW2 3092   2.987   3.617   0.485 -0.2871 -0.7905  1.2638
  770SOL     OW 3093   1.856   1.601   1.223 -0.0780 -0.1512  0.8788
  770SOL    HW1 3094   1.790   1.657   1.263 -0.7382 -1.0037  0.9707
  770SOL    HW2 3095   1.936   1.654   1.226 -0.5948  0.6151  1.3751
  771SOL     OW 3096   2.790   0.816   0.249 -0.6034 -0.0535  0.7199
  771SOL    HW1 3097   2.786   0.894   0.195 -1.2075  0.7460  1.8955
  771SOL    HW2 3098   2.758   0.746   0.193 -0.9282  0.7040 -0.0502
  772SOL     OW 3099   2.961   1.294   0.457 -0.8884  0.3740 -0.4499
  772SOL    HW1 3100   2.940   1.316   0.367 -0.1057 -0.1522 -0.7694
  772SOL    HW2 3101   2.920   1.209   0.471 -1.4056  0.6719 -0.1627
  773SOL     OW 3102   2.862   2.716   0.468  0.3379  0.4438  0.2749
  773SOL    HW1 3103   2.796   2.697   0.534 -1.9420 -0.3380 -2.1381
  773SOL    HW2 3104   2.859   2.811   0.457  0.7891  0.5889  1.2990
  774SOL     OW 3105   1.514   1.708   5.071  0.5193 -0.3979  0.3307
  774SOL    HW1 3106   1.455   1.634   5.084  0.3646 -0.7371 -1.9926
  774SOL    HW2 3107   1.484   1.775   5.133 -2.2307 -0.6248 -0.6720
  775SOL     OW 3108   3.158   1.508   0.364  0.3142  0.0111  0.6091
  775SOL    HW1 3109   3.187   1.437   0.421 -0.0933 -0.7774 -0.1465
  775SOL    HW2 3110   3.224   1.512   0.295 -0.5725 -0.7857 -0.2900
  776SOL     OW 3111   1.433   1.954   1.864 -0.0162 -0.7400  0.6037
  776SOL    HW1 3112   1.395   2.020   1.921  0.1055 -0.1093 -0.0306
  776SOL    HW2 3113   1.371   1.947   1.791  1.5856  1.1249 -1.0207
  777SOL     OW 3114   2.242   0.227   5.072  0.1089 -0.2062  0.2457
  777SOL    HW1 3115   2.290   0.158   5.027  0.1127 -1.2371  1.7918
  777SOL    HW2 3116   2.273   0.308   5.031  1.6725 -0.9765 -0.1449
  778SOL     OW 3117   0.883   3.151   0.759  0.2765 -0.0507  0.2702
  778SOL    HW1 3118   0.814   3.105   0.808  1.1285  1.1829  2.7188
  778SOL    HW2 3119   0.840   3.231   0.728 -0.8037 -1.7307 -2.7504
  779SOL     OW 3120   1.104   2.706   5.051 -0.3386  0.3548 -0.2150
  779SOL    HW1 3121   1.045   2.631   5.040 -0.3790  0.3527  0.0165
  779SOL    HW2 3122   1.160   2.703   4.974  2.0645 -2.0689  1.5139
  780SOL     OW 3123   3.511   0.795   0.781 -0.7507  0.0738  0.5063
  780SOL    HW1 3124   3.473   0.788   0.693 -2.1457 -0.3726  1.1308
  780SOL    HW2 3125   3.597   0.753   0.774  0.7959  3.3987 -1.5811
  781SOL     OW 3126   1.566   0.568   0.819  0.5139 -0.2753 -0.6166
  781SOL    HW1 3127   1.543   0.476   0.831 -1.1206  0.1517 -0.3935
  781SOL    HW2 3128   1.653   0.576   0.859 -0.1399 -1.3155  1.1022
  782SOL     OW 3129   3.358   2.001   0.431  0.3599 -0.5417 -0.0956
  782SOL    HW1 3130   3.438   2.052   0.420 -1.6659  2.2330 -2.4758
  782SOL    HW2 3131   3.329   1.982   0.341 -0.9857 -2.6313  0.7430
  783SOL     OW 3132   1.887   1.870   2.487  0.2467  0.0116  0.4635
  783SOL    HW1 3133   1.817   1.860   2.422 -0.8316 -1.2793  1.7762
  783SOL    HW2 3134   1.841   1.871   2.571  1.7385  0.1081  1.2951
  784SOL     OW 3135   3.404   4.287   4.934 -0.0378 -0.1356 -0.5577
  784SOL    HW1 3136   3.371   4.230   5.003 -0.5314  1.4735  0.5815
  784SOL    HW2 3137   3.375   4.375   4.960  0.3112  0.5766 -2.4926
  785SOL     OW 3138   2.110   1.361   2.153 -0.0421  0.5484  0.7286
  785SOL    HW1 3139   2.147   1.325   2.233 -1.4185 -0.2424  1.0230
  785SOL    HW2 3140   2.139   1.301   2.084  0.1272  0.5525  0.7955
  786SOL     OW 3141   2.966   2.569   0.871 -0.5912  0.6989 -0.1188
  786SOL    HW1 3142   2.938   2.656   0.900  1.6183  1.7903 -1.0552
  786SOL    HW2 3143   2.906   2.509   0.913 -0.0041  2.4575  3.4727
  787SOL     OW 3144   1.814   2.157   1.830  0.5113 -0.5731 -0.2615
  787SOL    HW1 3145   1.792   2.093   1.897 -0.0414 -0.4761 -0.3478
  787SOL    HW2 3146   1.814   2.107   1.748  1.1042 -0.6743 -0.2029
  788SOL     OW 3147   1.345   2.191   1.990  0.1283 -0.6755 -0.0606
  788SOL    HW1 3148   1.283   2.252   2.032  1.0187  1.7313 -2.0876
  788SOL    HW2 3149   1.430   2.236   1.996  0.7751 -1.6249 -1.7868
  789SOL     OW 3150   1.486   0.893   0.196 -0.2398  0.0327  1.4104
  789SOL    HW1 3151   1.565   0.840   0.207 -0.8847 -0.6976  2.6164
  789SOL    HW2 3152   1.456   0.872   0.107  1.3025  0.8601  0.6782
  790SOL     OW 3153   2.689   2.560   4.654 -0.1932  0.1680  0.5132
  790SOL    HW1 3154   2.649   2.483   4.696  2.9152 -1.8542 -0.0362
  790SOL    HW2 3155   2.615   2.616   4.631 -2.4138 -1.7126  2.7934
  791SOL     OW 3156   2.406   2.743   1.066  0.3664  0.5175 -0.1595
  791SOL    HW1 3157   2.318   2.725   1.101  0.2571  2.3062  0.5260
  791SOL    HW2 3158   2.461   2.751   1.143  0.8522  0.8586 -0.5441
  792SOL     OW 3159   1.840   1.628   4.785  0.4655  0.0911  0.0275
  792SOL    HW1 3160   1.822   1.632   4.879 -0.3109  1.0126 -0.1465
  792SOL    HW2 3161   1.801   1.546   4.756 -1.7882  1.1508  0.0066
  793SOL     OW 3162   1.453   1.635   0.245 -0.1793  0.1391  0.7106
  793SOL    HW1 3163   1.396   1.604   0.174 -1.9069 -0.9934  2.5320
  793SOL    HW2 3164   1.506   1.703   0.205 -1.0282 -0.5596 -1.7035
  794SOL     OW 3165   0.741   3.569   4.914  0.1460 -0.2341  0.0146
  794SOL    HW1 3166   0.810   3.508   4.889  0.4188  0.3820 -0.7357
  794SOL    HW2 3167   0.788   3.642   4.954 -0.0111  0.5616 -1.2482
  795SOL     OW 3168   3.785   3.007   4.930 -0.4596 -0.4553  0.2066
  795SOL    HW1 3169   3.765   3.078   4.869 -0.1986 -1.3909 -0.9797
  795SOL    HW2 3170   3.867   2.970   4.897 -0.4602 -1.1408  0.9673
  796SOL     OW 3171   0.972   1.490   0.983  0.1965  0.1221  0.2016
  796SOL    HW1 3172   0.982   1.562   1.045  1.9182 -0.7051  0.9253
  796SOL    HW2 3173   1.007   1.414   1.030 -0.3094 -0.8981 -1.0636
  797SOL     OW 3174   1.195   4.079   1.484  0.3824  0.2395  0.4959
  797SOL    HW1 3175   1.134   4.079   1.410 -0.8538 -0.7850  1.4931
  797SOL    HW2 3176   1.242   4.162   1.475 -0.1571  0.4013 -1.1025
  798SOL     OW 3177   1.927   1.462   1.633  0.6654  0.0549  0.0395
  798SOL    HW1 3178   1.980   1.400   1.684  0.7977  1.2293  1.3896
  798SOL    HW2 3179   1.990   1.526   1.601  0.7716 -1.3904 -2.7663
  799SOL     OW 3180   2.002   3.256   1.117 -0.6333  0.2998  0.0470
  799SOL    HW1 3181   1.976   3.221   1.203  0.6359  1.2206  0.8283
  799SOL    HW2 3182   2.039   3.342   1.137  1.5974 -0.3412 -1.1649
  800SOL     OW 3183   2.177   4.009   0.840 -0.4272  0.2333 -0.0115
  800SOL    HW1 3184   2.227   4.047   0.768 -0.6811 -0.8580 -0.7969
  800SOL    HW2 3185   2.103   4.069   0.852 -0.3041  0.5046 -0.5726
  801SOL     OW 3186   1.524   3.059   1.397 -0.0740 -0.3627  0.3213
  801SOL    HW1 3187   1.592   3.125   1.407 -0.1825 -0.5109  2.2757
  801SOL    HW2 3188   1.555   2.984   1.449 -0.7061 -1.2528 -0.5484
  802SOL     OW 3189   1.415   5.168   5.040  0.0425 -0.5360 -0.4041
  802SOL    HW1 3190   1.439   5.261   5.048  1.7197 -0.8443 -1.4253
  802SOL    HW2 3191   1.326   5.169   5.007 -0.0593  0.7194 -0.1184
  803SOL     OW 3192   2.690   4.528   4.602  0.0373  0.4487  0.3875
  803SOL    HW1 3193   2.744   4.450   4.617 -0.1308 -0.6553 -3.8934
  803SOL    HW2 3194   2.608   4.493   4.568 -0.5633  2.4632 -0.2856
  804SOL     OW 3195   2.039   4.321   1.840  0.1784  0.4123  0.4413
  804SOL    HW1 3196   2.057   4.286   1.753 -0.5763 -1.1161  0.8807
  804SOL    HW2 3197   2.083   4.261   1.900 -3.2163 -1.3242  1.3414
  805SOL     OW 3198   1.296   2.628   1.818  0.7427  0.2766 -0.4143
  805SOL    HW1 3199   1.265   2.696   1.758  0.5020 -0.4972 -1.1883
  805SOL    HW2 3200   1.219   2.575   1.836  1.1245 -0.3462 -0.5798
  806SOL     OW 3201   1.150   3.100   0.780  0.5876  0.9161  0.6478
  806SOL    HW1 3202   1.160   3.108   0.874  1.4098  0.6367  0.5903
  806SOL    HW2 3203   1.058   3.117   0.764 -0.0862 -1.4560  1.7696
  807SOL     OW 3204   2.333   3.699   5.053  0.2827 -0.3229 -0.3490
  807SOL    HW1 3205   2.343   3.612   5.093  1.3134 -1.5454 -3.0877
  807SOL    HW2 3206   2.412   3.746   5.077 -0.3644 -0.0581  1.3048
  808SOL     OW 3207   2.430   3.435   1.588 -0.3670 -0.0646 -0.5478
  808SOL    HW1 3208   2.416   3.369   1.521  1.0552  0.2079 -1.1304
  808SOL    HW2 3209   2.488   3.499   1.547  0.1860  0.3137  0.7923
  809SOL     OW 3210   1.191   2.361   0.697 -0.1858  0.0861  0.1887
  809SOL    HW1 3211   1.151   2.279   0.728  2.0604 -0.5356  1.5143
  809SOL    HW2 3212   1.265   2.333   0.644 -1.2501  1.2419 -1.9495
  810SOL     OW 3213   1.008   5.220   5.192 -0.1708 -0.2343  0.4972
  810SOL    HW1 3214   0.921   5.220   5.152  0.3842 -0.8181 -0.7088
  810SOL    HW2 3215   0.999   5.162   5.268 -0.8284 -0.3116  0.3642
  811SOL     OW 3216   2.751   2.189   0.082  1.6103 -0.5696 -0.1776
  811SOL    HW1 3217   2.775   2.103   0.115  2.4436 -0.2465  0.0549
  811SOL    HW2 3218   2.748   2.245   0.159 -0.5373 -0.7298 -0.0917
  812SOL     OW 3219   4.037   2.852   4.783 -0.6786 -0.4540  0.1425
  812SOL    HW1 3220   4.116   2.860   4.731 -0.6433 -1.2909  0.0605
  812SOL    HW2 3221   3.965   2.852   4.719 -0.6493 -1.2453  0.1065
  813SOL     OW 3222   2.766   3.520   0.661  0.1543 -0.2626 -0.2136
  813SOL    HW1 3223   2.765   3.498   0.568 -2.5243  1.0292 -0.5551
  813SOL    HW2 3224   2.736   3.441   0.706  0.7596 -0.6535 -0.4917
  814SOL     OW 3225   1.640   3.275   1.244 -0.1625  0.0978  0.1664
  814SOL    HW1 3226   1.713   3.336   1.251 -1.1797  1.2937  0.6122
  814SOL    HW2 3227   1.676   3.198   1.200  1.6077  0.2605  1.3118
  815SOL     OW 3228   1.702   2.839   5.112 -0.2963  0.1251  0.0665
  815SOL    HW1 3229   1.797   2.845   5.123 -0.5488  0.3850  2.3764
  815SOL    HW2 3230   1.689   2.760   5.060  1.0590 -1.2955  1.8329
  816SOL     OW 3231   1.053   1.630   4.844 -0.6583  0.1179 -0.0478
  816SOL    HW1 3232   1.119   1.572   4.804 -3.2836 -2.7937 -0.3592
  816SOL    HW2 3233   1.083   1.641   4.934 -0.2124 -1.9823  0.0933
  817SOL     OW 3234   2.723   1.752   0.793 -0.1770  0.3852 -0.0588
  817SOL    HW1 3235   2.636   1.752   0.833 -0.8321 -0.4061 -1.4482
  817SOL    HW2 3236   2.751   1.844   0.798 -0.0553  0.2421  2.5445
  818SOL     OW 3237   0.992   3.328   0.952  0.4997  0.7672  0.3180
  818SOL    HW1 3238   0.901   3.358   0.944  0.9068  2.6797  2.3489
  818SOL    HW2 3239   0.988   3.259   1.019  0.2650 -0.5145 -1.0027
  819SOL     OW 3240   1.631   3.638   0.538 -0.0969 -0.5541  0.1077
  819SOL    HW1 3241   1.593   3.555   0.510 -0.2078 -0.3787 -0.2666
  819SOL    HW2 3242   1.567   3.704   0.512 -0.8757 -0.4942  2.0633
  820SOL     OW 3243   2.365   4.360   1.296 -0.0275 -0.3891 -0.1291
  820SOL    HW1 3244   2.379   4.340   1.389  0.5168  3.6803  0.7561
  820SOL    HW2 3245   2.280   4.405   1.294  1.5657  2.6557 -1.0842
  821SOL     OW 3246   1.607   1.931   4.232  0.2716 -0.4872 -0.7170
  821SOL    HW1 3247   1.628   2.011   4.184 -1.6500 -0.1325 -0.9720
  821SOL    HW2 3248   1.647   1.861   4.180  2.9776  0.3551  0.1158
  822SOL     OW 3249   1.559   3.658   2.523 -0.6065  0.0148  0.5257
  822SOL    HW1 3250   1.567   3.584   2.583  0.0227 -1.2596 -1.0784
  822SOL    HW2 3251   1.558   3.618   2.436  0.9806  1.9667 -0.4371
  823SOL     OW 3252   2.520   2.156   5.187 -0.3811 -0.2354 -0.5560
  823SOL    HW1 3253   2.561   2.190   5.267 -2.2441 -0.1236  0.3916
  823SOL    HW2 3254   2.469   2.230   5.154  0.7392 -0.1516 -2.1029
  824SOL     OW 3255   1.793   2.245   0.318  0.7949 -0.2732 -0.4951
  824SOL    HW1 3256   1.883   2.278   0.311  0.7866 -0.7150 -3.0093
  824SOL    HW2 3257   1.740   2.313   0.277  0.0897 -0.5005  0.0386
  825SOL     OW 3258   2.948   1.051   4.826 -0.1366  0.4306  0.3173
  825SOL    HW1 3259   2.901   1.050   4.742  0.5048  1.0485 -0.0520
  825SOL    HW2 3260   3.025   0.996   4.811 -0.2360  0.2047  0.6303
  826SOL     OW 3261   3.737   1.790   5.221 -0.2188  0.1138  0.3300
  826SOL    HW1 3262   3.760   1.883   5.216 -3.0584  0.9932  2.1988
  826SOL    HW2 3263   3.792   1.755   5.291  0.7589  0.3901 -0.2852
  827SOL     OW 3264   1.603   1.119   1.271 -0.3611  0.2690 -0.5123
  827SOL    HW1 3265   1.565   1.048   1.322  0.7226  0.4715  0.5832
  827SOL    HW2 3266   1.670   1.076   1.217 -0.7850  0.2179 -0.9994
  828SOL     OW 3267   2.228   0.073   0.384 -0.4008  0.8467  0.2465
  828SOL    HW1 3268   2.263   0.083   0.296 -1.0190 -1.5225 -0.2940
  828SOL    HW2 3269   2.146   0.124   0.382  0.2271  1.8580 -0.1402
  829SOL     OW 3270   1.235   0.070   5.135 -0.1079 -0.2581 -0.4709
  829SOL    HW1 3271   1.193   0.154   5.154 -0.0634  0.2660 -2.4963
  829SOL    HW2 3272   1.164   0.006   5.141 -0.3532  0.0619  0.1059
  830SOL     OW 3273   3.016   1.676   0.959  0.1954 -0.2457 -0.2835
  830SOL    HW1 3274   3.102   1.661   0.919  1.4258  3.7891  0.6591
  830SOL    HW2 3275   3.034   1.692   1.051 -1.6204  0.3346 -0.0101
  831NA      NA 3276   1.939   3.175   5.207  0.2084 -0.2588 -0.0334
  832NA      NA 3277   2.012   2.548   0.837 -0.1751 -0.4361 -0.2031
  833NA      NA 3278   1.736   2.413   5.238 -0.2864 -0.0971  0.0686
  834NA      NA 3279   1.600   2.758   0.658 -0.1343  0.0036 -0.4821
  835NA      NA 3280   1.815   4.475   0.265 -0.2681 -0.6193 -0.1411
  836NA      NA 3281   2.491   2.563   0.101  0.7208  0.4419 -0.0191
  837NA      NA 3282   0.896   2.861   4.869 -0.4208 -0.6667 -0.4253
  838NA      NA 3283   1.812   3.032   4.557 -0.2747  0.2916 -0.7009
  839NA      NA 3284   1.137   2.774   5.265 -0.5699 -0.0814  0.9987
  840NA      NA 3285   1.777   2.744   0.199 -0.1800  0.2492  0.0285
  841NA      NA 3286   1.851   2.581   4.836  0.1140  0.0416  0.6199
  842NA      NA 3287   1.302   3.835   0.148  0.0033  0.0894  0.5494
  843NA      NA 3288   2.623   3.779   4.834  0.1229 -0.2758  0.2782
  844NA      NA 3289   1.910   3.577   5.235 -0.4206 -0.6841  0.2360
  845NA      NA 3290   1.575   3.059   0.378 -0.2087  0.0583 -0.1293
  846NA      NA 3291   1.450   2.570   1.518 -0.3522  0.0072 -0.0905
  847NA      NA 3292   1.572   3.260   0.916  0.9923  0.0588 -0.4229
  848NA      NA 3293   0.975   3.621   0.486 -0.5137  0.3765  0.1182
  849NA      NA 3294   1.961   3.417   4.633 -0.1011 -0.3273 -0.5625
  850NA      NA 3295   3.477   2.636   4.932 -0.0707  0.0120  0.3736
  851NA      NA 3296   1.287   2.940   0.673 -0.1045 -0.1689 -0.0786
  852NA      NA 3297   2.111   4.385   5.267 -0.0117 -0.3795 -0.5311
  853NA      NA 3298   2.703   3.740   0.290  0.3918  0.2183  0.1268
  854NA      NA 3299   2.601   3.185   0.361  0.2182  0.5251  0.5406
  855NA      NA 3300   2.728   2.846   4.952 -0.4027 -0.0153 -0.1612
  856NA      NA 3301   3.665   2.958   5.118  0.2841  0.1654  0.2319
  857NA      NA 3302   2.410   2.955   5.088  0.3098  0.1982 -0.3359
  858NA      NA 3303   3.189   3.117   4.947  0.3167  0.2439  0.2248
  859NA      NA 3304   1.221   3.090   0.255 -0.0476  0.5192  0.3222
  860NA      NA 3305   3.037   2.686   4.884 -0.2078 -0.8607 -0.0164
  861NA      NA 3306   3.454   3.142   4.661 -0.7340 -0.5086  0.1238
  862NA      NA 3307   1.210   2.383   0.168  0.0141 -0.7588  0.2587
  863NA      NA 3308   2.124   4.233   4.915  0.5581  0.2440  0.3617
  864NA      NA 3309   2.568   0.192   0.305  0.2879 -0.0773  0.7981
  865NA      NA 3310   2.340   0.381   5.257  0.1054 -0.4374  0.2035
  866NA      NA 3311   1.838   4.062   0.214 -0.2636 -0.7413  0.4607
  867NA      NA 3312   2.305   1.361   4.985 -0.4378 -0.2912 -0.7866
  868NA      NA 3313   2.055   2.974   4.911 -0.2176  0.6781 -0.0630
  869NA      NA 3314   2.706   3.279   5.079  0.0648  0.0378 -0.0351
  870NA      NA 3315   1.973   3.087   0.938 -0.2923 -0.1514  0.2848
  871NA      NA 3316   1.383   3.469   0.326 -0.0476  0.2629 -0.2136
  872NA      NA 3317   2.706   1.504   4.656 -0.2086  0.1971 -0.1285
  873NA      NA 3318   2.045   3.931   5.131  0.2156 -0.3966  0.1022
  874NA      NA 3319   2.311   3.958   0.406  0.2360  0.3622  0.5105
  875NA      NA 3320   2.284   1.766   4.897  0.2361 -0.1661  0.1906
  876NA      NA 3321   2.385   3.542   0.276 -0.3475  0.2994 -0.0571
  877NA      NA 3322   3.051   3.420   0.044 -0.0507 -0.3005  1.0052
  878NA      NA 3323   2.559   4.251   0.495  0.0108 -1.1916 -0.1880
  879NA      NA 3324   2.043   3.744   0.248  0.3419 -0.1022 -0.3634
  880NA      NA 3325   1.594   4.271   5.286 -0.4022 -0.4138 -0.0562
  881NA      NA 3326   3.098   3.447   4.915 -0.4578 -0.2524 -0.0200
  882NA      NA 3327   3.409   2.856   0.813  0.4006  0.5039  0.0006
  883NA      NA 3328   1.222   2.552   0.814  0.1343  0.0982  0.2547
  884NA      NA 3329   2.990   2.359   5.058 -0.3039 -0.2389  0.0124
  885NA      NA 3330   3.101   3.126   0.474  0.6337  0.1981  0.3128
  886NA      NA 3331   1.255   2.104   0.424  0.5966 -0.2812  0.4447
  887NA      NA 3332   2.678   3.648   4.392  0.2307 -0.8266  0.3601
  888NA      NA 3333   1.970   2.673   1.189  0.5550 -0.2068 -0.1385
  889NA      NA 3334   2.354   4.697   5.215 -0.4099  0.3086  0.1590
  890NA      NA 3335   1.812   0.577   0.436  0.2303  0.0047  0.1455
  891NA      NA 3336   2.259   2.305   1.097 -0.2181 -0.1911 -0.2850
  892NA      NA 3337   1.932   4.908   0.537 -0.0286 -0.1506  0.1748
  893NA      NA 3338   2.753   1.203   4.926  0.0085  0.1075  0.5145
  894NA      NA 3339   2.876   1.575   0.769  0.1357  0.0813  0.2679
  895NA      NA 3340   2.246   0.513   0.508 -0.0419 -0.2113  0.4656
  896NA      NA 3341   2.238   4.791   0.234  0.5523 -0.5036  0.0902
  897NA      NA 3342   2.410   2.847   0.592 -0.0146  0.0379  0.0114
  898NA      NA 3343   2.761   3.003   0.707  0.0507  0.0488 -0.0443
  899NA      NA 3344   2.080   2.720   5.239 -0.5666 -0.5529 -0.2884
  900NA      NA 3345   2.244   1.508   1.065  0.7208 -0.7184  0.2330
  901NA      NA 3346   1.462   2.300   4.961  0.4057  0.6179  0.0595
  902NA      NA 3347   1.578   1.113   0.249  0.1538  0.4776 -0.5221
  903NA      NA 3348   2.654   1.639   5.064  0.0838  0.6005 -0.1111
  904NA      NA 3349   2.565   0.863   0.326 -0.5835 -0.6345  0.0358
  905NA      NA 3350   1.871   2.198   0.985  0.0871 -0.3280  0.0941
  906NA      NA 3351   1.377   1.571   0.689 -0.1143 -0.1085  0.0567
  907NA      NA 3352   1.254   2.758   4.522  0.0885  0.2152  0.1479
  908NA      NA 3353   1.468   2.900   1.092  0.3452  0.0103 -0.0539
  909NA      NA 3354   2.520   1.058   5.266  0.6807  0.0830  0.0236
  910NA      NA 3355   1.542   1.472   0.400 -0.6066 -0.1601 -0.0641
  911NA      NA 3356   1.470   3.993   0.542  0.3738 -0.3195 -0.3722
  912NA      NA 3357   1.861   2.339   1.321 -0.2308  0.4900  0.3473
  913NA      NA 3358   2.420   1.074   4.737  0.1077 -0.7039  0.1049
  914NA      NA 3359   1.357   3.165   5.168 -0.4111  0.3731  0.1695
  915NA      NA 3360   1.881   3.815   4.731  0.3622  0.0012 -0.4981
  916NA      NA 3361   2.528   1.406   0.434  0.2130 -0.4076  0.1164
  917NA      NA 3362   1.878   1.650   0.563 -0.2534 -0.6864 -0.0646
  918NA      NA 3363   2.116   1.964   1.198 -0.0751 -0.0227  0.9930
  919NA      NA 3364   2.072   4.249   0.531  0.2384 -0.3752 -0.2398
  920NA      NA 3365   2.054   0.636   0.159 -0.0950 -0.2065  0.0161
  921NA      NA 3366   0.850   3.032   0.072  0.1614 -0.6285 -0.0613
  922NA      NA 3367   2.518   2.589   0.892 -0.3641 -0.0007  0.2847
  923NA      NA 3368   1.062   2.766   0.420  0.3792  0.9819  0.4890
  924NA      NA 3369   3.291   3.073   0.119 -0.2668  0.2099 -0.1902
  925NA      NA 3370   3.253   2.450   5.263 -0.3609  0.1552 -0.0485
  926NA      NA 3371   2.305   2.612   4.821  0.4230  0.0193 -0.0575
  927NA      NA 3372   0.805   2.801   0.776 -0.7642 -0.2301 -0.5633
  928NA      NA 3373   2.431   5.199   5.236 -0.0704 -0.1964  0.2623
  929NA      NA 3374   0.769   3.119   0.486  0.3377 -0.3942 -0.2324
  930NA      NA 3375   1.344   3.222   1.282 -0.2926 -0.0873 -0.0687
  931CL      CL 3376   2.498   3.107   0.593  0.0594  0.2322 -0.3381
  932CL      CL 3377   2.219   4.150   5.168  0.3480 -0.1274  0.2852
  933CL      CL 3378   2.347   2.744   5.258 -0.7265 -0.2888  0.2294
  934CL      CL 3379   1.400   2.765   0.856  0.1926  0.3761  0.1816
  935CL      CL 3380   2.279   2.506   0.811  0.2838  0.1186  0.0760
  936CL      CL 3381   1.643   2.808   1.583  0.0553  0.0735 -0.2103
  937CL      CL 3382   1.403   2.315   0.368  0.3025 -0.1591 -0.1591
  938CL      CL 3383   1.618   2.545   5.012  0.0157  0.1972  0.2377
  939CL      CL 3384   1.048   2.706   4.726 -0.3910  0.3143  0.0979
  940CL      CL 3385   1.337   2.710   1.274  0.0465  0.1021 -0.4088
  941CL      CL 3386   1.952   2.525   0.108 -0.0189  0.2758 -0.0278
  942CL      CL 3387   1.804   2.744   0.472 -0.0363  0.2787 -0.1268
  943CL      CL 3388   2.953   2.957   4.846 -0.1535  0.3635  0.4420
  944CL      CL 3389   1.760   2.787   4.692 -0.1111 -0.6366 -0.1935
  945CL      CL 3390   1.763   3.598   4.596 -0.2092  0.3747 -0.2153
  946CL      CL 3391   1.919   2.947   0.092  0.2313  0.2867  0.2150
  947CL      CL 3392   0.945   3.117   4.852  0.2397  0.1920  0.1603
  948CL      CL 3393   2.011   3.128   4.711 -0.3310 -0.0113  0.1380
  949CL      CL 3394   3.006   3.258   5.111 -0.1254  0.1125  0.0756
  950CL      CL 3395   1.521   3.854   0.303  0.2263  0.4162 -0.5513
  951CL      CL 3396   1.586   3.135   0.654 -0.2547  0.1426  0.1820
  952CL      CL 3397   0.845   3.380   0.490 -0.3063 -0.2501  0.5064
  953CL      CL 3398   1.598   1.677   0.582 -0.0475  0.0934  0.3494
  954CL      CL 3399   3.700   3.230   4.733 -0.5015 -0.6066 -0.3083
  955CL      CL 3400   2.371   1.611   5.108 -0.1111  0.1465  0.2344
  956CL      CL 3401   2.163   1.708   1.242  0.2413  0.3613 -0.2038
  957CL      CL 3402   1.133   4.037   0.175 -0.0914  0.5291  0.0983
  958CL      CL 3403   0.631   2.965   0.654 -0.2060 -0.0079 -0.0507
  959CL      CL 3404   3.223   2.535   5.001 -0.0587  0.5438  0.2886
  960CL      CL 3405   3.639   2.688   5.146 -0.3169  0.1502  0.0222
  961CL      CL 3406   3.326   2.967   0.377  0.3738  0.2903 -0.4097
  962CL      CL 3407   3.034   3.101   0.740 -0.1165 -0.2284  0.2523
  963CL      CL 3408   2.891   3.640   4.861 -0.2130  0.6905 -0.0178
  964CL      CL 3409   0.969   2.998   0.347 -0.0600  0.2153 -0.6922
  965CL      CL 3410   1.216   3.737   0.962 -0.1379  0.1069  0.0681
  966CL      CL 3411   3.377   2.900   4.891  0.1507  0.2291 -0.6157
  967CL      CL 3412   3.566   3.122   0.001  0.3176  0.0173  0.2974
  968CL      CL 3413   1.343   2.613   0.055  0.2349 -0.5977 -0.0546
  969CL      CL 3414   2.645   3.442   0.371  0.5669 -0.2000 -0.5034
  970CL      CL 3415   2.862   3.044   0.383  0.1607  0.0753  0.2985
  971CL      CL 3416   3.240   3.285   4.748  0.1110  0.4029  0.1204
  972CL      CL 3417   1.168   3.611   0.249 -0.3287  0.4787 -0.0306
  973CL      CL 3418   2.138   0.570   5.164 -0.1119 -0.3578  0.7338
  974CL      CL 3419   1.863   4.307   0.068  0.0319  0.5196 -0.0912
  975CL      CL 3420   2.691   1.228   4.667  0.1065  0.1966 -0.2216
  976CL      CL 3421   1.433   3.226   0.154 -0.2442 -0.0552 -0.7084
  977CL      CL 3422   2.578   0.439   5.156 -0.0387  0.2446  0.3185
  978CL      CL 3423   2.006   2.423   1.072 -0.4170 -0.0342 -0.0741
  979CL      CL 3424   1.883   2.362   4.709 -0.2662  0.4471 -0.3777
  980CL      CL 3425   2.474   2.819   4.866 -0.3088 -0.5763  0.3746
  981CL      CL 3426   2.103   3.512   0.133 -0.5979 -0.3354  0.0975
  982CL      CL 3427   1.822   4.339   0.497 -0.2585  0.2562 -0.1350
  983CL      CL 3428   1.871   3.841   0.031 -0.0088  0.2945 -0.0430
  984CL      CL 3429   2.195   3.120   5.102  0.3860  0.1335  0.1458
  985CL      CL 3430   2.201   3.507   4.611  0.1375  0.0308 -0.4170
  986CL      CL 3431   2.046   2.704   4.964  0.1774 -0.1541 -0.7998
  987CL      CL 3432   2.156   2.076   0.911  0.1400  0.1283 -0.3480
  988CL      CL 3433   2.264   3.686   0.487  0.0604 -0.1374 -0.6623
  989CL      CL 3434   1.666   3.548   5.145  0.2736 -0.1762  0.4396
  990CL      CL 3435   1.911   4.042   4.927 -0.1078 -0.1654  0.6189
  991CL      CL 3436   2.350   4.893   0.467  0.4011 -0.2332  0.3034
  992CL      CL 3437   2.480   1.654   4.733 -0.3516  0.1290 -0.3425
  993CL      CL 3438   2.587   3.976   0.364 -0.1883 -0.4061  0.6059
  994CL      CL 3439   2.322   4.218   0.605  0.7176  0.0329  0.1307
  995CL      CL 3440   2.280   4.537   0.127 -0.8346  0.1475 -0.1377
  996CL      CL 3441   1.364   3.129   1.034 -0.2256 -0.0265  0.0422
  997CL      CL 3442   1.057   2.780   0.696 -0.0316  0.3599  0.4234
  998CL      CL 3443   2.813   2.589   5.034  0.2978  0.0046  0.1152
  999CL      CL 3444   2.628   3.849   4.569  0.0537  0.4022  0.3039
 1000CL      CL 3445   2.006   0.509   0.631 -0.5645  0.2200  0.4285
 1001CL      CL 3446   2.516   3.671   0.077  0.0273 -0.0355  0.3408
 1002CL      CL 3447   2.382   0.120   0.114  0.3450 -0.4563  0.2062
 1003CL      CL 3448   2.363   0.996   0.194 -0.0006  0.1669 -0.2710
 1004CL      CL 3449   2.462   0.693   0.554 -0.0739 -0.1152  0.1877
 1005CL      CL 3450   2.818   1.486   4.923 -0.4108 -0.2198  0.2443
 1006CL      CL 3451   2.022   2.822   0.965 -0.3472 -0.4141 -0.2982
 1007CL      CL 3452   2.667   2.749   0.726  0.0144  0.1078 -0.2040
 1008CL      CL 3453   2.053   1.283   4.945  0.1453 -0.4929  0.1225
 1009CL      CL 3454   1.877   2.067   1.228 -0.3773 -0.2423 -0.1554
 1010CL      CL 3455   1.646   2.435   1.432  0.2061 -0.1055 -0.1759
 1011CL      CL 3456   2.669   3.002   5.160  0.4934  0.1643  0.3522
 1012CL      CL 3457   2.399   1.567   0.593  0.2537 -0.2606  0.2084
 1013CL      CL 3458   2.483   1.169   4.990 -0.2335 -0.0409  0.2294
 1014CL      CL 3459   2.125   4.501   4.999 -0.0720  0.2481 -0.5750
 1015CL      CL 3460   1.729   3.014   1.072  0.0552 -0.0213  0.0151
 1016CL      CL 3461   1.371   1.252   0.346 -0.6771 -0.4496 -0.3504
 1017CL      CL 3462   1.106   3.044   0.003 -0.1474  0.3182  0.1712
 1018CL      CL 3463   1.744   1.371   0.229 -0.3841  0.5025  0.0390
 1019CL      CL 3464   2.755   1.085   0.118  0.7727 -0.1144  0.2617
 1020CL      CL 3465   2.326   2.101   1.274 -0.4695 -0.4255 -0.0027
 1021CL      CL 3466   2.284   4.962   0.015 -0.0831  0.7309  0.3344
 1022CL      CL 3467   1.346   2.914   0.413 -0.0962 -0.4017  0.0858
 1023CL      CL 3468   1.902   0.795   0.295 -0.1482  0.3722 -0.2517
 1024CL      CL 3469   1.981   4.753   0.296  0.0237  0.0379 -0.2060
 1025CL      CL 3470   1.031   2.539   0.290 -0.6767 -0.0931 -0.0158
 1026CL      CL 3471   1.066   2.105   0.193  0.1527 -0.2046 -0.1800
 1027CL      CL 3472   3.130   3.393   0.477 -0.3937 -0.4160  0.2217
 1028CL      CL 3473   2.671   2.424   1.022  0.0450  0.0308 -0.2653
 1029CL      CL 3474   2.059   4.010   0.374 -0.5546  0.1878  0.3172
 1030CL      CL 3475   2.247   0.469   0.229  0.1881 -0.5445 -0.0411
   5.28748   5.28748   5.28748
