GROningen MAchine for Chemical Simulation
 3875
    1PEO     C1    1   4.082   4.380  18.268
    1PEO     H3    2   4.118   4.329  18.178
    1PEO     H4    3   4.118   4.327  18.357
    1PEO      O    4   4.131   4.514  18.270
    1PEO     C2    5   4.273   4.517  18.270
    1PEO     H5    6   4.312   4.467  18.181
    1PEO     H6    7   4.312   4.465  18.358
    1PEO     C3    8   4.320   4.662  18.272
    1PEO     H7    9   4.282   4.713  18.361
    1PEO     H8   10   4.282   4.715  18.184
    1PEO     O1   11   4.463   4.664  18.272
    1PEO     C4   12   4.513   4.798  18.274
    1PEO     H9   13   4.477   4.850  18.363
    1PEO    H10   14   4.477   4.852  18.186
    1PEO     C5   15   4.665   4.794  18.274
    1PEO    H11   16   4.701   4.741  18.185
    1PEO    H12   17   4.701   4.739  18.362
    1PEO     O2   18   4.714   4.928  18.276
    1PEO     C6   19   4.857   4.930  18.276
    1PEO    H13   20   4.896   4.879  18.187
    1PEO    H14   21   4.895   4.877  18.364
    1PEO     C7   22   4.904   5.074  18.278
    1PEO    H15   23   4.865   5.125  18.367
    1PEO    H16   24   4.866   5.127  18.190
    1PEO     O3   25   5.047   5.077  18.278
    1PEO     C8   26   5.096   5.210  18.280
    1PEO    H17   27   5.060   5.263  18.369
    1PEO    H18   28   5.060   5.265  18.192
    1PEO     C9   29   5.248   5.207  18.280
    1PEO    H19   30   5.284   5.154  18.191
    1PEO    H20   31   5.284   5.152  18.368
    1PEO     O4   32   5.299   5.340  18.282
    1PEO    C10   33   5.441   5.341  18.282
    1PEO    H21   34   5.479   5.291  18.192
    1PEO    H22   35   5.478   5.289  18.370
    2PEO     C1   36   5.486   5.488  18.283
    2PEO     H3   37   5.448   5.537  18.373
    2PEO     H4   38   5.448   5.539  18.195
    2PEO      O   39   5.629   5.489  18.283
    2PEO     C2   40   5.679   5.623  18.286
    2PEO     H5   41   5.643   5.675  18.376
    2PEO     H6   42   5.643   5.678  18.199
    2PEO     C3   43   5.831   5.619  18.286
    2PEO     H7   44   5.868   5.568  18.196
    2PEO     H8   45   5.868   5.564  18.374
    2PEO     O1   46   5.881   5.753  18.289
    2PEO     C4   47   6.023   5.756  18.289
    2PEO     H9   48   6.062   5.706  18.199
    2PEO    H10   49   6.062   5.702  18.376
    2PEO     C5   50   6.070   5.900  18.292
    2PEO    H11   51   6.032   5.950  18.382
    2PEO    H12   52   6.031   5.954  18.204
    2PEO     O2   53   6.213   5.903  18.292
    2PEO     C6   54   6.262   6.037  18.294
    2PEO    H13   55   6.226   6.088  18.384
    2PEO    H14   56   6.226   6.092  18.207
    2PEO     C7   57   6.414   6.033  18.294
    2PEO    H15   58   6.450   5.982  18.205
    2PEO    H16   59   6.450   5.978  18.382
    2PEO     O3   60   6.463   6.167  18.297
    2PEO     C8   61   6.606   6.169  18.297
    2PEO    H17   62   6.644   6.119  18.207
    2PEO    H18   63   6.645   6.115  18.384
    2PEO     C9   64   6.653   6.314  18.300
    2PEO    H19   65   6.614   6.363  18.390
    2PEO    H20   66   6.614   6.367  18.213
    2PEO     O4   67   6.795   6.317  18.300
    2PEO    C10   68   6.844   6.451  18.303
    2PEO    H21   69   6.808   6.502  18.394
    2PEO    H22   70   6.808   6.506  18.215
    3PEO     C1   71   6.997   6.445  18.303
    3PEO     H3   72   7.032   6.394  18.213
    3PEO     H4   73   7.032   6.390  18.391
    3PEO      O   74   7.046   6.579  18.306
    3PEO     C2   75   7.188   6.583  18.305
    3PEO     H5   76   7.227   6.533  18.215
    3PEO     H6   77   7.228   6.529  18.392
    3PEO     C3   78   7.236   6.727  18.309
    3PEO     H7   79   7.198   6.777  18.399
    3PEO     H8   80   7.197   6.782  18.222
    3PEO     O1   81   7.378   6.729  18.307
    3PEO     C4   82   7.428   6.863  18.311
    3PEO     H9   83   7.393   6.914  18.401
    3PEO    H10   84   7.391   6.919  18.224
    3PEO     C5   85   7.580   6.859  18.309
    3PEO    H11   86   7.615   6.808  18.219
    3PEO    H12   87   7.617   6.803  18.396
    3PEO     O2   88   7.630   6.993  18.312
    3PEO     C6   89   7.772   6.995  18.311
    3PEO    H13   90   7.810   6.946  18.221
    3PEO    H14   91   7.812   6.941  18.398
    3PEO     C7   92   7.819   7.140  18.315
    3PEO    H15   93   7.782   7.189  18.405
    3PEO    H16   94   7.780   7.194  18.228
    3PEO     O3   95   7.962   7.142  18.313
    3PEO     C8   96   8.011   7.276  18.317
    3PEO    H17   97   7.976   7.327  18.407
    3PEO    H18   98   7.974   7.332  18.230
    3PEO     C9   99   8.163   7.272  18.315
    3PEO    H19  100   8.198   7.221  18.224
    3PEO    H20  101   8.200   7.216  18.401
    3PEO     O4  102   8.214   7.405  18.318
    3PEO    C10  103   8.357   7.407  18.317
    3PEO    H21  104   8.393   7.358  18.226
    3PEO    H22  105   8.395   7.353  18.404
    4PEO     C1  106   8.402   7.553  18.320
    4PEO     H3  107   8.364   7.601  18.411
    4PEO     H4  108   8.362   7.606  18.233
    4PEO      O  109   8.544   7.555  18.319
    4PEO     C2  110   8.595   7.688  18.323
    4PEO     H5  111   8.560   7.739  18.414
    4PEO     H6  112   8.558   7.745  18.237
    4PEO     C3  113   8.747   7.685  18.321
    4PEO     H7  114   8.782   7.634  18.230
    4PEO     H8  115   8.784   7.628  18.407
    4PEO     O1  116   8.796   7.819  18.325
    4PEO     C4  117   8.938   7.821  18.324
    4PEO     H9  118   8.976   7.773  18.233
    4PEO    H10  119   8.978   7.766  18.410
    4PEO     C5  120   8.985   7.966  18.329
    4PEO    H11  121   8.948   8.014  18.420
    4PEO    H12  122   8.946   8.021  18.242
    4PEO     O2  123   9.128   7.968  18.327
    4PEO     C6  124   9.177   8.102  18.331
    4PEO    H13  125   9.142   8.152  18.422
    4PEO    H14  126   9.140   8.159  18.245
    4PEO     C7  127   9.329   8.099  18.330
    4PEO    H15  128   9.364   8.048  18.239
    4PEO    H16  129   9.366   8.042  18.416
    4PEO     O3  130   9.379   8.232  18.334
    4PEO     C8  131   9.521   8.235  18.332
    4PEO    H17  132   9.559   8.186  18.241
    4PEO    H18  133   9.561   8.179  18.418
    4PEO     C9  134   9.568   8.379  18.337
    4PEO    H19  135   9.530   8.427  18.428
    4PEO    H20  136   9.528   8.434  18.251
    4PEO     O4  137   9.711   8.383  18.336
    4PEO    C10  138   9.759   8.517  18.340
    4PEO    H21  139   9.724   8.566  18.432
    4PEO    H22  140   9.722   8.572  18.253
    5PEO     C1  141   9.913   8.511  18.338
    5PEO     H3  142   9.946   8.461  18.247
    5PEO     H4  143   9.948   8.454  18.425
    5PEO      O  144   9.961   8.645  18.343
    5PEO     C2  145  10.104   8.648  18.340
    5PEO     H5  146  10.141   8.600  18.249
    5PEO     H6  147  10.144   8.593  18.426
    5PEO     C3  148  10.151   8.793  18.345
    5PEO     H7  149  10.114   8.841  18.437
    5PEO     H8  150  10.111   8.848  18.260
    5PEO     O1  151  10.294   8.795  18.343
    5PEO     C4  152  10.343   8.928  18.347
    5PEO     H9  153  10.309   8.978  18.439
    5PEO    H10  154  10.306   8.986  18.262
    5PEO     C5  155  10.495   8.925  18.344
    5PEO    H11  156  10.530   8.875  18.253
    5PEO    H12  157  10.533   8.867  18.430
    5PEO     O2  158  10.545   9.058  18.349
    5PEO     C6  159  10.687   9.060  18.346
    5PEO    H13  160  10.724   9.012  18.255
    5PEO    H14  161  10.728   9.005  18.432
    5PEO     C7  162  10.735   9.205  18.351
    5PEO    H15  163  10.698   9.253  18.443
    5PEO    H16  164  10.694   9.260  18.266
    5PEO     O3  165  10.877   9.207  18.349
    5PEO     C8  166  10.927   9.341  18.353
    5PEO    H17  167  10.892   9.391  18.445
    5PEO    H18  168  10.889   9.398  18.268
    5PEO     C9  169  11.079   9.337  18.350
    5PEO    H19  170  11.113   9.288  18.258
    5PEO    H20  171  11.116   9.280  18.435
    5PEO     O4  172  11.129   9.471  18.355
    5PEO    C10  173  11.272   9.472  18.352
    5PEO    H21  174  11.307   9.425  18.260
    5PEO    H22  175  11.311   9.417  18.438
    6PET     C9  176  11.317   9.619  18.357
    6PET     H6  177  11.280   9.665  18.449
    6PET     H7  178  11.277   9.673  18.271
    6PET     O2  179  11.459   9.620  18.354
    6PET     C8  180  11.519   9.551  18.454
    6PET     O1  181  11.464   9.491  18.544
    6PET     C4  182  11.667   9.558  18.436
    6PET     C5  183  11.725   9.630  18.331
    6PET     C6  184  11.863   9.632  18.313
    6PET     H4  185  11.904   9.688  18.230
    6PET     H3  186  11.663   9.686  18.260
    6PET     C3  187  11.750   9.489  18.526
    6PET     H2  188  11.707   9.433  18.609
    6PET     C2  189  11.889   9.491  18.508
    6PET     H1  190  11.953   9.436  18.577
    6PET     C1  191  11.946   9.561  18.401
    6PET     C7  192  12.093   9.557  18.381
    6PET     O3  193  12.170   9.498  18.455
    6PET     O4  194  12.126   9.628  18.271
    6PET    C10  195  12.265   9.635  18.238
    6PET     H8  196  12.272   9.662  18.132
    6PET     H9  197  12.312   9.536  18.249
    6PET    C11  198  12.337   9.740  18.322
    6PET    H10  199  12.443   9.741  18.296
    6PET    H11  200  12.329   9.714  18.429
    6PET    C12  201  12.277   9.879  18.303
    6PET    H13  202  12.332   9.952  18.363
    6PET    H14  203  12.172   9.882  18.333
    7PET     C9  204  12.283   9.925  18.156
    7PET     H6  205  12.227   9.856  18.093
    7PET     H7  206  12.388   9.928  18.123
    7PET     O2  207  12.226  10.055  18.150
    7PET     C8  208  12.098  10.064  18.194
    7PET     O1  209  12.030   9.972  18.237
    7PET     C4  210  12.053  10.205  18.186
    7PET     C5  211  12.136  10.306  18.134
    7PET     C6  212  12.093  10.438  18.131
    7PET     H4  213  12.161  10.514  18.092
    7PET     H3  214  12.236  10.283  18.097
    7PET     C3  215  11.924  10.239  18.231
    7PET     H2  216  11.858  10.162  18.271
    7PET     C2  217  11.881  10.372  18.228
    7PET     H1  218  11.782  10.398  18.265
    7PET     C1  219  11.966  10.473  18.179
    7PET     C7  220  11.920  10.614  18.181
    7PET     O3  221  11.810  10.649  18.221
    7PET     O4  222  12.018  10.694  18.133
    7PET    C10  223  11.989  10.834  18.128
    7PET     H8  224  12.085  10.886  18.123
    7PET     H9  225  11.940  10.867  18.220
    7PET    C11  226  11.906  10.869  18.005
    7PET    H10  227  11.884  10.976  18.005
    7PET    H11  228  11.810  10.815  18.008
    7PET    C12  229  11.977  10.831  17.875
    7PET    H13  230  11.915  10.859  17.789
    7PET    H14  231  11.995  10.723  17.870
    8PET     C9  232  12.112  10.901  17.860
    8PET     H6  233  12.178  10.873  17.943
    8PET     H7  234  12.098  11.009  17.860
    8PET     O2  235  12.169  10.858  17.736
    8PET     C8  236  12.186  10.724  17.724
    8PET     O1  237  12.159  10.640  17.808
    8PET     C4  238  12.242  10.694  17.589
    8PET     C5  239  12.272  10.797  17.498
    8PET     C6  240  12.320  10.766  17.371
    8PET     H4  241  12.341  10.848  17.303
    8PET     H3  242  12.257  10.901  17.525
    8PET     C3  243  12.263  10.561  17.552
    8PET     H2  244  12.240  10.480  17.622
    8PET     C2  245  12.311  10.530  17.424
    8PET     H1  246  12.326  10.426  17.396
    8PET     C1  247  12.338  10.633  17.333
    8PET     C7  248  12.385  10.597  17.196
    8PET     O3  249  12.403  10.484  17.158
    8PET     O4  250  12.402  10.711  17.123
    8PET    C10  251  12.447  10.694  16.989
    8PET     H8  252  12.421  10.786  16.935
    8PET     H9  253  12.393  10.612  16.940
    8PET    C11  254  12.598  10.673  16.984
    8PET    H10  255  12.629  10.659  16.880
    8PET    H11  256  12.625  10.582  17.039
    8PET    C12  257  12.675  10.790  17.045
    8PET    H13  258  12.782  10.772  17.037
    8PET    H14  259  12.650  10.803  17.150
    9PET     C9  260  12.645  10.923  16.974
    9PET     H6  261  12.538  10.945  16.982
    9PET     H7  262  12.673  10.916  16.869
    9PET     O2  263  12.721  11.024  17.039
    9PET     C8  264  12.697  11.037  17.172
    9PET     O1  265  12.618  10.973  17.238
    9PET     C4  266  12.787  11.143  17.227
    9PET     C5  267  12.875  11.214  17.144
    9PET     C6  268  12.961  11.310  17.198
    9PET     H4  269  13.028  11.362  17.131
    9PET     H3  270  12.879  11.196  17.037
    9PET     C3  271  12.784  11.171  17.364
    9PET     H2  272  12.715  11.117  17.430
    9PET     C2  273  12.870  11.267  17.418
    9PET     H1  274  12.867  11.287  17.526
    9PET     C1  275  12.960  11.336  17.336
    9PET     C7  276  13.054  11.434  17.397
    9PET     O3  277  13.056  11.461  17.515
    9PET     O4  278  13.133  11.486  17.300
    9PET    C10  279  13.230  11.583  17.342
    9PET     H8  280  13.307  11.587  17.265
    9PET     H9  281  13.279  11.551  17.435
    9PET    C11  282  13.165  11.721  17.358
    9PET    H10  283  13.241  11.792  17.392
    9PET    H11  284  13.087  11.717  17.435
    9PET    C12  285  13.103  11.770  17.229
    9PET    H13  286  13.060  11.870  17.243
    9PET    H14  287  13.023  11.704  17.195
   10PET     C9  288  13.205  11.780  17.114
   10PET     H6  289  13.248  11.681  17.095
   10PET     H7  290  13.284  11.850  17.142
   10PET     O2  291  13.136  11.827  16.999
   10PET     C8  292  13.031  11.750  16.959
   10PET     O1  293  12.993  11.647  17.012
   10PET     C4  294  12.966  11.813  16.841
   10PET     C5  295  13.016  11.932  16.785
   10PET     C6  296  12.952  11.992  16.677
   10PET     H4  297  12.993  12.084  16.637
   10PET     H3  298  13.105  11.980  16.825
   10PET     C3  299  12.852  11.754  16.786
   10PET     H2  300  12.812  11.662  16.828
   10PET     C2  301  12.787  11.814  16.677
   10PET     H1  302  12.698  11.768  16.636
   10PET     C1  303  12.836  11.934  16.623
   10PET     C7  304  12.762  11.998  16.511
   10PET     O3  305  12.662  11.952  16.460
   10PET     O4  306  12.824  12.114  16.477
   10PET    C10  307  12.766  12.188  16.370
   10PET     H8  308  12.802  12.291  16.379
   10PET     H9  309  12.657  12.192  16.380
   10PET    C11  310  12.807  12.131  16.234
   10PET    H10  311  12.759  12.189  16.155
   10PET    H11  312  12.772  12.027  16.225
   10PET    C12  313  12.958  12.132  16.215
   10PET    H13  314  12.983  12.092  16.116
   10PET    H14  315  13.008  12.070  16.290
   11PET     C9  316  13.018  12.273  16.225
   11PET     H6  317  12.996  12.315  16.324
   11PET     H7  318  12.974  12.337  16.148
   11PET     O2  319  13.158  12.262  16.206
   11PET     C8  320  13.222  12.180  16.293
   11PET     O1  321  13.171  12.118  16.384
   11PET     C4  322  13.367  12.175  16.258
   11PET     C5  323  13.419  12.250  16.152
   11PET     C6  324  13.554  12.240  16.118
   11PET     H4  325  13.591  12.299  16.035
   11PET     H3  326  13.356  12.316  16.093
   11PET     C3  327  13.452  12.091  16.332
   11PET     H2  328  13.413  12.033  16.415
   11PET     C2  329  13.587  12.082  16.298
   11PET     H1  330  13.653  12.016  16.356
   11PET     C1  331  13.639  12.155  16.190
   11PET     C7  332  13.782  12.139  16.154
   11PET     O3  333  13.860  12.068  16.213
   11PET     O4  334  13.809  12.216  16.045
   11PET    C10  335  13.944  12.212  15.997
   11PET     H8  336  13.941  12.247  15.893
   11PET     H9  337  13.981  12.109  15.995
   11PET    C11  338  14.034  12.304  16.079
   11PET    H10  339  14.136  12.298  16.041
   11PET    H11  340  14.036  12.270  16.184
   11PET    C12  341  13.987  12.448  16.076
   11PET    H13  342  14.055  12.511  16.134
   11PET    H14  343  13.887  12.459  16.119
   12PET     C9  344  13.982  12.506  15.934
   12PET     H6  345  13.912  12.447  15.873
   12PET     H7  346  14.081  12.502  15.889
   12PET     O2  347  13.937  12.641  15.943
   12PET     C8  348  13.816  12.657  16.003
   12PET     O1  349  13.744  12.569  16.046
   12PET     C4  350  13.784  12.802  16.009
   12PET     C5  351  13.871  12.898  15.956
   12PET     C6  352  13.842  13.034  15.967
   12PET     H4  353  13.912  13.106  15.925
   12PET     H3  354  13.963  12.869  15.906
   12PET     C3  355  13.666  12.844  16.072
   12PET     H2  356  13.597  12.770  16.114
   12PET     C2  357  13.636  12.980  16.083
   12PET     H1  358  13.544  13.011  16.133
   12PET     C1  359  13.725  13.076  16.032
   12PET     C7  360  13.693  13.220  16.049
   12PET     O3  361  13.593  13.262  16.104
   12PET     O4  362  13.793  13.295  15.996
   12PET    C10  363  13.778  13.437  16.004
   12PET     H8  364  13.878  13.480  15.992
   12PET     H9  365  13.742  13.466  16.103
   12PET    C11  366  13.685  13.488  15.894
   12PET    H10  367  13.674  13.597  15.904
   12PET    H11  368  13.585  13.444  15.905
   12PET    C12  369  13.737  13.455  15.755
   12PET    H13  370  13.669  13.496  15.679
   12PET    H14  371  13.744  13.347  15.740
   13PET     C9  372  13.877  13.513  15.728
   13PET     H6  373  13.948  13.473  15.801
   13PET     H7  374  13.873  13.622  15.738
   13PET     O2  375  13.915  13.476  15.596
   13PET     C8  376  13.917  13.342  15.573
   13PET     O1  377  13.891  13.254  15.653
   13PET     C4  378  13.954  13.318  15.431
   13PET     C5  379  13.984  13.425  15.344
   13PET     C6  380  14.014  13.400  15.210
   13PET     H4  381  14.036  13.485  15.146
   13PET     H3  382  13.983  13.528  15.379
   13PET     C3  383  13.957  13.187  15.382
   13PET     H2  384  13.935  13.103  15.448
   13PET     C2  385  13.988  13.163  15.247
   13PET     H1  386  13.989  13.060  15.210
   13PET     C1  387  14.015  13.270  15.161
   13PET     C7  388  14.042  13.241  15.017
   13PET     O3  389  14.045  13.130  14.969
   13PET     O4  390  14.062  13.358  14.951
   13PET    C10  391  14.091  13.348  14.811
   13PET     H8  392  14.068  13.446  14.768
   13PET     H9  393  14.024  13.276  14.764
   13PET    C11  394  14.237  13.314  14.787
   13PET    H10  395  14.255  13.306  14.680
   13PET    H11  396  14.261  13.217  14.832
   13PET    C12  397  14.331  13.418  14.847
   13PET    H13  398  14.435  13.391  14.826
   13PET    H14  399  14.320  13.425  14.955
   14PET     C9  400  14.307  13.558  14.790
   14PET     H6  401  14.205  13.590  14.812
   14PET     H7  402  14.322  13.557  14.682
   14PET     O2  403  14.400  13.647  14.852
   14PET     C8  404  14.392  13.651  14.987
   14PET     O1  405  14.315  13.590  15.058
   14PET     C4  406  14.497  13.744  15.039
   14PET     C5  407  14.583  13.813  14.951
   14PET     C6  408  14.683  13.896  15.001
   14PET     H4  409  14.748  13.947  14.931
   14PET     H3  410  14.573  13.803  14.844
   14PET     C3  411  14.512  13.761  15.177
   14PET     H2  412  14.447  13.708  15.246
   14PET     C2  413  14.613  13.844  15.227
   14PET     H1  414  14.625  13.855  15.335
   14PET     C1  415  14.700  13.911  15.140
   14PET     C7  416  14.809  13.995  15.196
   14PET     O3  417  14.827  14.012  15.315
   14PET     O4  418  14.882  14.047  15.095
   14PET    C10  419  14.992  14.131  15.132
   14PET     H8  420  15.060  14.134  15.046
   14PET     H9  421  15.048  14.087  15.215
   14PET    C11  422  14.944  14.272  15.165
   14PET    H10  423  15.029  14.334  15.194
   14PET    H11  424  14.874  14.269  15.249
   14PET    C12  425  14.873  14.338  15.047
   14PET    H13  426  14.842  14.439  15.073
   14PET    H14  427  14.783  14.282  15.018
   15PET     C9  428  14.962  14.347  14.922
   15PET     H6  429  14.992  14.247  14.891
   15PET     H7  430  15.050  14.407  14.945
   15PET     O2  431  14.885  14.410  14.819
   15PET     C8  432  14.770  14.346  14.787
   15PET     O1  433  14.728  14.243  14.836
   15PET     C4  434  14.699  14.424  14.682
   15PET     C5  435  14.754  14.542  14.629
   15PET     C6  436  14.684  14.616  14.534
   15PET     H4  437  14.729  14.707  14.496
   15PET     H3  438  14.851  14.578  14.661
   15PET     C3  439  14.574  14.380  14.637
   15PET     H2  440  14.530  14.288  14.676
   15PET     C2  441  14.504  14.454  14.541
   15PET     H1  442  14.406  14.419  14.507
   15PET     C1  443  14.558  14.573  14.490
   15PET     C7  444  14.479  14.652  14.392
   15PET     O3  445  14.370  14.620  14.350
   15PET     O4  446  14.548  14.764  14.359
   15PET    C10  447  14.486  14.852  14.265
   15PET     H8  448  14.533  14.950  14.277
   15PET     H9  449  14.379  14.865  14.288
   15PET    C11  450  14.506  14.802  14.122
   15PET    H10  451  14.456  14.871  14.052
   15PET    H11  452  14.460  14.704  14.110
   15PET    C12  453  14.653  14.791  14.085
   15PET    H13  454  14.663  14.758  13.981
   15PET    H14  455  14.705  14.719  14.149
   16PET     C9  456  14.727  14.925  14.098
   16PET     H6  457  14.721  14.961  14.201
   16PET     H7  458  14.681  14.999  14.031
   16PET     O2  459  14.863  14.903  14.061
   16PET     C8  460  14.927  14.809  14.135
   16PET     O1  461  14.881  14.745  14.227
   16PET     C4  462  15.066  14.793  14.083
   16PET     C5  463  15.114  14.872  13.977
   16PET     C6  464  15.242  14.852  13.927
   16PET     H4  465  15.275  14.914  13.844
   16PET     H3  466  15.051  14.948  13.930
   16PET     C3  467  15.150  14.697  14.140
   16PET     H2  468  15.115  14.636  14.223
   16PET     C2  469  15.280  14.678  14.090
   16PET     H1  470  15.344  14.602  14.135
   16PET     C1  471  15.326  14.755  13.982
   16PET     C7  472  15.462  14.729  13.928
   16PET     O3  473  15.538  14.646  13.973
   16PET     O4  474  15.484  14.811  13.822
   16PET    C10  475  15.612  14.799  13.758
   16PET     H8  476  15.601  14.842  13.658
   16PET     H9  477  15.639  14.694  13.745
   16PET    C11  478  15.719  14.875  13.836
   16PET    H10  479  15.816  14.863  13.785
   16PET    H11  480  15.729  14.833  13.937
   16PET    C12  481  15.687  15.023  13.848
   16PET    H13  482  15.767  15.075  13.902
   16PET    H14  483  15.594  15.040  13.904
   17PET     C9  484  15.671  15.092  13.712
   17PET     H6  485  15.590  15.045  13.656
   17PET     H7  486  15.764  15.083  13.655
   17PET     O2  487  15.642  15.229  13.736
   17PET     C8  488  15.530  15.252  13.810
   17PET     O1  489  15.456  15.167  13.856
   17PET     C4  490  15.514  15.398  13.831
   17PET     C5  491  15.603  15.490  13.774
   17PET     C6  492  15.589  15.627  13.798
   17PET     H4  493  15.661  15.695  13.754
   17PET     H3  494  15.686  15.457  13.712
   17PET     C3  495  15.408  15.445  13.910
   17PET     H2  496  15.337  15.375  13.954
   17PET     C2  497  15.393  15.582  13.934
   17PET     H1  498  15.311  15.618  13.996
   17PET     C1  499  15.485  15.674  13.879
   17PET     C7  500  15.470  15.818  13.910
   17PET     O3  501  15.381  15.864  13.979
   17PET     O4  502  15.570  15.888  13.851
   17PET    C10  503  15.570  16.030  13.870
   17PET     H8  504  15.672  16.064  13.849
   17PET     H9  505  15.549  16.054  13.975
   17PET    C11  506  15.471  16.098  13.776
   17PET    H10  507  15.472  16.206  13.794
   17PET    H11  508  15.370  16.062  13.795
   17PET    C12  509  15.504  16.071  13.630
   17PET    H13  510  15.433  16.124  13.565
   17PET    H14  511  15.498  15.964  13.606
   18PET     C9  512  15.645  16.118  13.591
   18PET     H6  513  15.719  16.066  13.652
   18PET     H7  514  15.653  16.226  13.608
   18PET     O2  515  15.664  16.088  13.453
   18PET     C8  516  15.650  15.958  13.421
   18PET     O1  517  15.625  15.866  13.496
   18PET     C4  518  15.669  15.942  13.273
   18PET     C5  519  15.700  16.052  13.192
   18PET     C6  520  15.712  16.036  13.054
   18PET     H4  521  15.735  16.123  12.994
   18PET     H3  522  15.713  16.151  13.234
   18PET     C3  523  15.654  15.815  13.216
   18PET     H2  524  15.631  15.729  13.278
   18PET     C2  525  15.667  15.799  13.077
   18PET     H1  526  15.654  15.700  13.033
   18PET     C1  527  15.695  15.910  12.995
   18PET     C7  528  15.703  15.891  12.848
   18PET     O3  529  15.690  15.783  12.793
   18PET     O4  530  15.727  16.010  12.789
   18PET    C10  531  15.739  16.009  12.646
   18PET     H8  532  15.721  16.112  12.612
   18PET     H9  533  15.660  15.947  12.602
   18PET    C11  534  15.878  15.963  12.603
   18PET    H10  535  15.883  15.962  12.493
   18PET    H11  536  15.896  15.861  12.638
   18PET    C12  537  15.987  16.054  12.657
   18PET    H13  538  16.085  16.019  12.622
   18PET    H14  539  15.989  16.053  12.767
   19PET     C9  540  15.971  16.200  12.614
   19PET     H6  541  15.875  16.238  12.650
   19PET     H7  542  15.974  16.206  12.505
   19PET     O2  543  16.079  16.274  12.671
   19PET     C8  544  16.087  16.268  12.806
   19PET     O1  545  16.012  16.208  12.880
   19PET     C4  546  16.205  16.347  12.851
   19PET     C5  547  16.287  16.415  12.759
   19PET     C6  548  16.400  16.484  12.803
   19PET     H4  549  16.461  16.534  12.729
   19PET     H3  550  16.264  16.414  12.653
   19PET     C3  551  16.237  16.351  12.987
   19PET     H2  552  16.175  16.299  13.060
   19PET     C2  553  16.351  16.420  13.031
   19PET     H1  554  16.375  16.422  13.137
   19PET     C1  555  16.433  16.486  12.939
   19PET     C7  556  16.556  16.555  12.987
   19PET     O3  557  16.589  16.560  13.104
   19PET     O4  558  16.622  16.608  12.882
   19PET    C10  559  16.743  16.679  12.912
   19PET     H8  560  16.801  16.683  12.819
   19PET     H9  561  16.803  16.623  12.985
   19PET    C11  562  16.713  16.820  12.960
   19PET    H10  563  16.807  16.871  12.983
   19PET    H11  564  16.654  16.817  13.052
   19PET    C12  565  16.636  16.901  12.856
   19PET    H13  566  16.619  17.003  12.893
   19PET    H14  567  16.539  16.856  12.834
   20PET     C9  568  16.712  16.913  12.723
   20PET     H6  569  16.729  16.813  12.681
   20PET     H7  570  16.808  16.962  12.739
   20PET     O2  571  16.631  16.990  12.634
   20PET     C8  572  16.507  16.940  12.612
   20PET     O1  573  16.461  16.837  12.658
   20PET     C4  574  16.433  17.032  12.521
   20PET     C5  575  16.493  17.148  12.470
   20PET     C6  576  16.421  17.236  12.389
   20PET     H4  577  16.470  17.325  12.353
   20PET     H3  578  16.596  17.173  12.494
   20PET     C3  579  16.300  17.003  12.488
   20PET     H2  580  16.252  16.913  12.526
   20PET     C2  581  16.227  17.091  12.406
   20PET     H1  582  16.123  17.068  12.382
   20PET     C1  583  16.287  17.208  12.358
   20PET     C7  584  16.206  17.302  12.276
   20PET     O3  585  16.090  17.283  12.245
   20PET     O4  586  16.281  17.410  12.243
   20PET    C10  587  16.218  17.510  12.163
   20PET     H8  588  16.276  17.602  12.176
   20PET     H9  589  16.117  17.531  12.200
   20PET    C11  590  16.217  17.470  12.015
   20PET    H10  591  16.167  17.548  11.957
   20PET    H11  592  16.161  17.377  12.002
   20PET    C12  593  16.358  17.449  11.961
   20PET    H13  594  16.353  17.423  11.855
   20PET    H14  595  16.409  17.368  12.013
   21PET     C9  596  16.446  17.574  11.974
   21PET     H6  597  16.455  17.602  12.080
   21PET     H7  598  16.401  17.657  11.919
   21PET     O2  599  16.574  17.542  11.920
   21PET     C8  600  16.636  17.438  11.979
   21PET     O1  601  16.594  17.371  12.071
   21PET     C4  602  16.766  17.414  11.910
   21PET     C5  603  16.809  17.496  11.805
   21PET     C6  604  16.929  17.469  11.739
   21PET     H4  605  16.959  17.534  11.657
   21PET     H3  606  16.750  17.580  11.772
   21PET     C3  607  16.847  17.306  11.950
   21PET     H2  608  16.815  17.242  12.032
   21PET     C2  609  16.967  17.279  11.884
   21PET     H1  610  17.028  17.194  11.915
   21PET     C1  611  17.008  17.360  11.777
   21PET     C7  612  17.134  17.326  11.705
   21PET     O3  613  17.207  17.233  11.735
   21PET     O4  614  17.153  17.414  11.604
   21PET    C10  615  17.271  17.396  11.525
   21PET     H8  616  17.253  17.448  11.430
   21PET     H9  617  17.285  17.290  11.501
   21PET    C11  618  17.393  17.456  11.594
   21PET    H10  619  17.482  17.439  11.532
   21PET    H11  620  17.410  17.405  11.690
   21PET    C12  621  17.377  17.605  11.621
   21PET    H13  622  17.468  17.644  11.668
   21PET    H14  623  17.293  17.625  11.687
   22PET     C9  624  17.354  17.685  11.492
   22PET     H6  625  17.262  17.650  11.443
   22PET     H7  626  17.438  17.672  11.425
   22PET     O2  627  17.340  17.822  11.529
   22PET     C8  628  17.241  17.848  11.617
   22PET     O1  629  17.164  17.768  11.665
   22PET     C4  630  17.241  17.994  11.650
   22PET     C5  631  17.333  18.082  11.590
   22PET     C6  632  17.335  18.217  11.625
   22PET     H4  633  17.408  18.281  11.577
   22PET     H3  634  17.404  18.046  11.516
   22PET     C3  635  17.150  18.044  11.744
   22PET     H2  636  17.078  17.977  11.791
   22PET     C2  637  17.152  18.179  11.779
   22PET     H1  638  17.081  18.217  11.853
   22PET     C1  639  17.245  18.266  11.720
   22PET     C7  640  17.248  18.409  11.763
   22PET     O3  641  17.172  18.457  11.845
   22PET     O4  642  17.347  18.473  11.697
   22PET    C10  643  17.364  18.612  11.726
   22PET     H8  644  17.466  18.639  11.696
   22PET     H9  645  17.357  18.630  11.834
   22PET    C11  646  17.263  18.697  11.649
   22PET    H10  647  17.276  18.802  11.675
   22PET    H11  648  17.161  18.669  11.678
   22PET    C12  649  17.276  18.679  11.499
   22PET    H13  650  17.204  18.743  11.446
   22PET    H14  651  17.257  18.575  11.469
   23PET     C9  652  17.416  18.716  11.447
   23PET     H6  653  17.491  18.652  11.495
   23PET     H7  654  17.437  18.821  11.470
   23PET     O2  655  17.417  18.696  11.306
   23PET     C8  656  17.386  18.570  11.266
   23PET     O1  657  17.361  18.475  11.338
   23PET     C4  658  17.387  18.564  11.117
   23PET     C5  659  17.419  18.677  11.040
   23PET     C6  660  17.415  18.671  10.901
   23PET     H4  661  17.439  18.761  10.845
   23PET     H3  662  17.447  18.771  11.087
   23PET     C3  663  17.353  18.445  11.053
   23PET     H2  664  17.329  18.356  11.111
   23PET     C2  665  17.349  18.439  10.913
   23PET     H1  666  17.322  18.345  10.864
   23PET     C1  667  17.379  18.552  10.837
   23PET     C7  668  17.369  18.545  10.688
   23PET     O3  669  17.338  18.444  10.628
   23PET     O4  670  17.398  18.666  10.635
   23PET    C10  671  17.393  18.675  10.492
   23PET     H8  672  17.382  18.782  10.468
   23PET     H9  673  17.305  18.624  10.453
   23PET    C11  674  17.521  18.621  10.430
   23PET    H10  675  17.514  18.628  10.321
   23PET    H11  676  17.534  18.515  10.455
   23PET    C12  677  17.645  18.696  10.477
   23PET    H13  678  17.735  18.656  10.429
   23PET    H14  679  17.658  18.686  10.586
   24PET     C9  680  17.639  18.846  10.446
   24PET     H6  681  17.552  18.890  10.496
   24PET     H7  682  17.630  18.861  10.338
   24PET     O2  683  17.759  18.905  10.495
   24PET     C8  684  17.781  18.888  10.628
   24PET     O1  685  17.709  18.829  10.706
   24PET     C4  686  17.911  18.952  10.664
   24PET     C5  687  17.988  19.019  10.568
   24PET     C6  688  18.112  19.074  10.603
   24PET     H4  689  18.169  19.125  10.526
   24PET     H3  690  17.954  19.029  10.465
   24PET     C3  691  17.958  18.942  10.795
   24PET     H2  692  17.899  18.890  10.871
   24PET     C2  693  18.082  18.997  10.830
   24PET     H1  694  18.118  18.988  10.933
   24PET     C1  695  18.160  19.062  10.734
   24PET     C7  696  18.293  19.115  10.772
   24PET     O3  697  18.339  19.108  10.884
   24PET     O4  698  18.353  19.171  10.664
   24PET    C10  699  18.482  19.228  10.684
   24PET     H8  700  18.530  19.234  10.585
   24PET     H9  701  18.544  19.161  10.745
   24PET    C11  702  18.472  19.367  10.745
   24PET    H10  703  18.573  19.407  10.761
   24PET    H11  704  18.423  19.362  10.843
   24PET    C12  705  18.393  19.463  10.657
   24PET    H13  706  18.390  19.562  10.702
   24PET    H14  707  18.290  19.428  10.644
   25PET     C9  708  18.454  19.478  10.517
   25PET     H6  709  18.456  19.381  10.467
   25PET     H7  710  18.555  19.517  10.525
   25PET     O2  711  18.372  19.569  10.444
   25PET     C8  712  18.242  19.532  10.432
   25PET     O1  713  18.191  19.431  10.477
   25PET     C4  714  18.168  19.638  10.358
   25PET     C5  715  18.233  19.752  10.309
   25PET     C6  716  18.161  19.852  10.243
   25PET     H4  717  18.215  19.939  10.207
   25PET     H3  718  18.340  19.765  10.321
   25PET     C3  719  18.029  19.624  10.339
   25PET     H2  720  17.977  19.536  10.376
   25PET     C2  721  17.957  19.724  10.273
   25PET     H1  722  17.850  19.713  10.259
   25PET     C1  723  18.023  19.839  10.226
   25PET     C7  724  17.943  19.946  10.161
   25PET     O3  725  17.823  19.940  10.142
   25PET     O4  726  18.024  20.049  10.127
   25PET    C10  727  17.963  20.161  10.062
   25PET     H8  728  18.031  20.246  10.074
   25PET     H9  729  17.869  20.187  10.111
   25PET    C11  730  17.942  20.133   9.913
   25PET    H10  731  17.893  20.220   9.867
   25PET    H11  732  17.875  20.047   9.900
   25PET    C12  733  18.073  20.104   9.841
   25PET    H13  734  18.054  20.087   9.734
   25PET    H14  735  18.121  20.014   9.881
   26PET     C9  736  18.174  20.219   9.852
   26PET     H6  737  18.197  20.237   9.958
   26PET     H7  738  18.131  20.309   9.809
   26PET     O2  739  18.291  20.180   9.782
   26PET     C8  740  18.349  20.066   9.825
   26PET     O1  741  18.311  19.995   9.917
   26PET     C4  742  18.468  20.036   9.740
   26PET     C5  743  18.507  20.122   9.636
   26PET     C6  744  18.615  20.090   9.555
   26PET     H4  745  18.642  20.158   9.475
   26PET     H3  746  18.453  20.214   9.616
   26PET     C3  747  18.541  19.918   9.763
   26PET     H2  748  18.512  19.851   9.843
   26PET     C2  749  18.650  19.886   9.681
   26PET     H1  750  18.705  19.794   9.699
   26PET     C1  751  18.687  19.971   9.576
   26PET     C7  752  18.800  19.932   9.488
   26PET     O3  753  18.866  19.831   9.502
   26PET     O4  754  18.816  20.026   9.391
   26PET    C10  755  18.922  20.004   9.298
   26PET     H8  756  18.899  20.064   9.209
   26PET     H9  757  18.923  19.899   9.265
   26PET    C11  758  19.057  20.046   9.356
   26PET    H10  759  19.136  20.026   9.283
   26PET    H11  760  19.079  19.987   9.446
   26PET    C12  761  19.059  20.193   9.395
   26PET    H13  762  19.157  20.220   9.434
   26PET    H14  763  18.985  20.215   9.472
   27PET     C9  764  19.029  20.286   9.276
   27PET     H6  765  18.930  20.263   9.236
   27PET     H7  766  19.104  20.271   9.198
   27PET     O2  767  19.034  20.420   9.324
   27PET     C8  768  18.948  20.448   9.424
   27PET     O1  769  18.869  20.371   9.476
   27PET     C4  770  18.966  20.590   9.467
   27PET     C5  771  19.059  20.673   9.402
   27PET     C6  772  19.078  20.804   9.446
   27PET     H4  773  19.151  20.866   9.395
   27PET     H3  774  19.118  20.638   9.318
   27PET     C3  775  18.891  20.640   9.574
   27PET     H2  776  18.819  20.576   9.625
   27PET     C2  777  18.910  20.771   9.618
   27PET     H1  778  18.852  20.809   9.702
   27PET     C1  779  19.005  20.854   9.555
   27PET     C7  780  19.027  20.991   9.607
   27PET     O3  781  18.966  21.039   9.700
   27PET     O4  782  19.124  21.052   9.534
   27PET    C10  783  19.157  21.186   9.571
   27PET     H8  784  19.257  21.206   9.531
   27PET     H9  785  19.164  21.195   9.680
   27PET    C11  786  19.057  21.285   9.512
   27PET    H10  787  19.084  21.387   9.544
   27PET    H11  788  18.956  21.264   9.551
   27PET    C12  789  19.052  21.279   9.361
   27PET    H13  790  18.981  21.352   9.322
   27PET    H14  791  19.020  21.180   9.326
   28PET     C9  792  19.188  21.307   9.296
   28PET     H6  793  19.261  21.233   9.330
   28PET     H7  794  19.222  21.407   9.324
   28PET     O2  795  19.171  21.298   9.154
   28PET     C8  796  19.125  21.179   9.110
   28PET     O1  797  19.097  21.082   9.177
   28PET     C4  798  19.108  21.185   8.962
   28PET     C5  799  19.143  21.301   8.890
   28PET     C6  800  19.122  21.306   8.752
   28PET     H4  801  19.149  21.398   8.699
   28PET     H3  802  19.184  21.388   8.939
   28PET     C3  803  19.056  21.075   8.894
   28PET     H2  804  19.029  20.984   8.948
   28PET     C2  805  19.035  21.081   8.755
   28PET     H1  806  18.994  20.994   8.703
   28PET     C1  807  19.067  21.197   8.684
   28PET     C7  808  19.041  21.202   8.538
   28PET     O3  809  18.994  21.110   8.474
   28PET     O4  810  19.075  21.324   8.490
   28PET    C10  811  19.056  21.345   8.349
   28PET     H8  812  19.053  21.454   8.334
   28PET     H9  813  18.959  21.306   8.318
   28PET    C11  814  19.171  21.285   8.269
   28PET    H10  815  19.152  21.301   8.162
   28PET    H11  816  19.175  21.176   8.285
   28PET    C12  817  19.306  21.344   8.307
   28PET    H13  818  19.385  21.300   8.245
   28PET    H14  819  19.330  21.324   8.412
   29PET     C9  820  19.311  21.496   8.287
   29PET     H6  821  19.234  21.544   8.349
   29PET     H7  822  19.292  21.520   8.182
   29PET     O2  823  19.441  21.540   8.325
   29PET     C8  824  19.476  21.511   8.453
   29PET     O1  825  19.408  21.452   8.535
   29PET     C4  826  19.615  21.559   8.478
   29PET     C5  827  19.687  21.627   8.379
   29PET     C6  828  19.818  21.667   8.402
   29PET     H4  829  19.872  21.718   8.323
   29PET     H3  830  19.643  21.648   8.281
   29PET     C3  831  19.675  21.534   8.602
   29PET     H2  832  19.619  21.482   8.680
   29PET     C2  833  19.806  21.575   8.626
   29PET     H1  834  19.852  21.554   8.722
   29PET     C1  835  19.879  21.640   8.525
   29PET     C7  836  20.021  21.678   8.552
   29PET     O3  837  20.078  21.658   8.657
   29PET     O4  838  20.073  21.736   8.441
   29PET    C10  839  20.209  21.779   8.450
   29PET     H8  840  20.246  21.789   8.347
   29PET     H9  841  20.271  21.703   8.498
   29PET    C11  842  20.220  21.914   8.521
   29PET    H10  843  20.325  21.943   8.527
   29PET    H11  844  20.182  21.905   8.623
   29PET    C12  845  20.141  22.023   8.450
   29PET    H13  846  20.153  22.118   8.502
   29PET    H14  847  20.034  21.999   8.446
   30PET     C9  848  20.187  22.044   8.305
   30PET     H6  849  20.174  21.951   8.248
   30PET     H7  850  20.293  22.073   8.304
   30PET     O2  851  20.107  22.148   8.249
   30PET     C8  852  19.974  22.124   8.250
   30PET     O1  853  19.918  22.025   8.293
   30PET     C4  854  19.903  22.242   8.192
   30PET     C5  855  19.973  22.353   8.144
   30PET     C6  856  19.905  22.463   8.094
   30PET     H4  857  19.963  22.548   8.058
   30PET     H3  858  20.082  22.355   8.145
   30PET     C3  859  19.762  22.242   8.189
   30PET     H2  860  19.706  22.156   8.225
   30PET     C2  861  19.694  22.353   8.139
   30PET     H1  862  19.585  22.353   8.137
   30PET     C1  863  19.765  22.465   8.093
   30PET     C7  864  19.689  22.584   8.045
   30PET     O3  865  19.568  22.590   8.040
   30PET     O4  866  19.776  22.681   8.009
   30PET    C10  867  19.720  22.803   7.959
   30PET     H8  868  19.797  22.880   7.970
   30PET     H9  869  19.635  22.834   8.022
   30PET    C11  870  19.680  22.789   7.813
   30PET    H10  871  19.635  22.883   7.779
   30PET    H11  872  19.604  22.711   7.802
   30PET    C12  873  19.798  22.754   7.724
   30PET    H13  874  19.766  22.747   7.619
   30PET    H14  875  19.841  22.657   7.752
   31SOL     OW  876   0.088   1.801   0.927
   31SOL    HW1  877   0.046   1.715   0.900
   31SOL    HW2  878   0.182   1.804   0.893
   32SOL     OW  879   0.671   0.464   4.993
   32SOL    HW1  880   0.637   0.375   4.963
   32SOL    HW2  881   0.697   0.518   4.913
   33SOL     OW  882   1.493   1.767  10.269
   33SOL    HW1  883   1.526   1.831  10.200
   33SOL    HW2  884   1.559   1.761  10.344
   34SOL     OW  885   1.759   1.747  16.051
   34SOL    HW1  886   1.820   1.777  15.978
   34SOL    HW2  887   1.721   1.658  16.029
   35SOL     OW  888   0.807   0.605  18.224
   35SOL    HW1  889   0.760   0.602  18.313
   35SOL    HW2  890   0.756   0.550  18.158
   36SOL     OW  891   0.935   0.236  22.825
   36SOL    HW1  892   0.887   0.277  22.747
   36SOL    HW2  893   1.034   0.234  22.806
   37SOL     OW  894   1.032   2.411   7.464
   37SOL    HW1  895   0.991   2.493   7.425
   37SOL    HW2  896   1.096   2.437   7.537
   38SOL     OW  897   0.915   1.951  12.574
   38SOL    HW1  898   0.940   1.931  12.479
   38SOL    HW2  899   0.987   2.007  12.616
   39SOL     OW  900   1.450   3.082  12.805
   39SOL    HW1  901   1.441   3.072  12.904
   39SOL    HW2  902   1.546   3.075  12.779
   40SOL     OW  903   1.068   3.195  13.883
   40SOL    HW1  904   1.075   3.111  13.828
   40SOL    HW2  905   1.130   3.264  13.847
   41SOL     OW  906   1.194   3.474  13.065
   41SOL    HW1  907   1.200   3.381  13.102
   41SOL    HW2  908   1.135   3.474  12.985
   42SOL     OW  909   1.795   2.928  17.632
   42SOL    HW1  910   1.733   2.913  17.556
   42SOL    HW2  911   1.743   2.939  17.717
   43SOL     OW  912   1.351   2.452  23.778
   43SOL    HW1  913   1.379   2.409  23.863
   43SOL    HW2  914   1.376   2.548  23.779
   44SOL     OW  915   0.461   4.990   7.313
   44SOL    HW1  916   0.411   4.991   7.227
   44SOL    HW2  917   0.398   4.972   7.389
   45SOL     OW  918   1.400   3.831   9.736
   45SOL    HW1  919   1.376   3.794   9.646
   45SOL    HW2  920   1.499   3.847   9.740
   46SOL     OW  921   0.594   4.469  15.548
   46SOL    HW1  922   0.644   4.554  15.529
   46SOL    HW2  923   0.506   4.471  15.500
   47SOL     OW  924   0.249   5.509  18.000
   47SOL    HW1  925   0.306   5.444  18.050
   47SOL    HW2  926   0.233   5.476  17.907
   48SOL     OW  927   0.561   3.946  19.768
   48SOL    HW1  928   0.599   3.862  19.805
   48SOL    HW2  929   0.473   3.965  19.812
   49SOL     OW  930   0.830   4.997  23.767
   49SOL    HW1  931   0.825   5.030  23.862
   49SOL    HW2  932   0.744   5.016  23.721
   50SOL     OW  933   0.390   5.465  25.767
   50SOL    HW1  934   0.299   5.506  25.765
   50SOL    HW2  935   0.383   5.371  25.799
   51SOL     OW  936   0.539   5.650   4.236
   51SOL    HW1  937   0.458   5.651   4.294
   51SOL    HW2  938   0.542   5.733   4.181
   52SOL     OW  939   1.857   6.419   4.101
   52SOL    HW1  940   1.899   6.355   4.165
   52SOL    HW2  941   1.819   6.368   4.023
   53SOL     OW  942   1.076   6.269   8.912
   53SOL    HW1  943   0.996   6.208   8.915
   53SOL    HW2  944   1.157   6.216   8.888
   54SOL     OW  945   0.888   7.100  10.505
   54SOL    HW1  946   0.865   7.075  10.411
   54SOL    HW2  947   0.949   7.031  10.544
   55SOL     OW  948   0.122   6.229  19.184
   55SOL    HW1  949   0.077   6.141  19.201
   55SOL    HW2  950   0.121   6.283  19.268
   56SOL     OW  951   1.281   5.931  23.289
   56SOL    HW1  952   1.195   5.881  23.276
   56SOL    HW2  953   1.343   5.877  23.345
   57SOL     OW  954   1.657   6.190  23.551
   57SOL    HW1  955   1.619   6.121  23.613
   57SOL    HW2  956   1.739   6.154  23.507
   58SOL     OW  957   1.160   5.793  27.546
   58SOL    HW1  958   1.160   5.857  27.623
   58SOL    HW2  959   1.188   5.841  27.463
   59SOL     OW  960   0.040   6.130  27.183
   59SOL    HW1  961   0.125   6.097  27.142
   59SOL    HW2  962   0.053   6.145  27.281
   60SOL     OW  963   1.303   8.286   1.904
   60SOL    HW1  964   1.337   8.193   1.919
   60SOL    HW2  965   1.321   8.313   1.809
   61SOL     OW  966   1.041   8.149   9.739
   61SOL    HW1  967   1.067   8.145   9.835
   61SOL    HW2  968   0.956   8.098   9.725
   62SOL     OW  969   0.130   9.242  13.023
   62SOL    HW1  970   0.089   9.168  13.076
   62SOL    HW2  971   0.194   9.293  13.081
   63SOL     OW  972   0.859   8.822  26.085
   63SOL    HW1  973   0.813   8.837  26.173
   63SOL    HW2  974   0.903   8.907  26.055
   64SOL     OW  975   1.001   9.344   8.602
   64SOL    HW1  976   0.938   9.272   8.571
   64SOL    HW2  977   1.094   9.308   8.602
   65SOL     OW  978   0.040   9.854  19.735
   65SOL    HW1  979   0.125   9.821  19.694
   65SOL    HW2  980   0.053   9.869  19.833
   66SOL     OW  981   1.674  10.193  19.875
   66SOL    HW1  982   1.647  10.104  19.838
   66SOL    HW2  983   1.675  10.261  19.802
   67SOL     OW  984   0.402  10.061  22.081
   67SOL    HW1  985   0.470  10.116  22.034
   67SOL    HW2  986   0.442   9.973  22.108
   68SOL     OW  987   1.650  11.030  21.877
   68SOL    HW1  988   1.703  11.040  21.793
   68SOL    HW2  989   1.623  11.120  21.911
   69SOL     OW  990   1.183  12.507   0.119
   69SOL    HW1  991   1.084  12.496   0.121
   69SOL    HW2  992   1.217  12.522   0.212
   70SOL     OW  993   0.598  11.901   3.994
   70SOL    HW1  994   0.622  11.970   3.926
   70SOL    HW2  995   0.520  11.934   4.048
   71SOL     OW  996   0.973  12.062   5.296
   71SOL    HW1  997   1.019  11.978   5.267
   71SOL    HW2  998   0.917  12.096   5.221
   72SOL     OW  999   1.638  12.271   4.803
   72SOL    HW1 1000   1.643  12.352   4.862
   72SOL    HW2 1001   1.552  12.273   4.752
   73SOL     OW 1002   1.017  11.211   6.339
   73SOL    HW1 1003   0.945  11.216   6.270
   73SOL    HW2 1004   0.993  11.142   6.408
   74SOL     OW 1005   0.935  11.408   7.928
   74SOL    HW1 1006   0.887  11.449   7.850
   74SOL    HW2 1007   1.034  11.406   7.909
   75SOL     OW 1008   0.672  12.563   9.072
   75SOL    HW1 1009   0.594  12.513   9.110
   75SOL    HW2 1010   0.669  12.658   9.103
   76SOL     OW 1011   0.686  12.333  12.975
   76SOL    HW1 1012   0.746  12.412  12.989
   76SOL    HW2 1013   0.600  12.364  12.934
   77SOL     OW 1014   0.076  11.983  11.961
   77SOL    HW1 1015   0.175  11.971  11.970
   77SOL    HW2 1016   0.052  12.078  11.982
   78SOL     OW 1017   0.768  12.316  15.920
   78SOL    HW1 1018   0.690  12.333  15.980
   78SOL    HW2 1019   0.802  12.403  15.884
   79SOL     OW 1020   1.362  14.178   6.131
   79SOL    HW1 1021   1.445  14.149   6.083
   79SOL    HW2 1022   1.313  14.245   6.075
   80SOL     OW 1023   1.351  13.624  12.605
   80SOL    HW1 1024   1.379  13.581  12.690
   80SOL    HW2 1025   1.376  13.720  12.606
   81SOL     OW 1026   0.130  14.855  22.054
   81SOL    HW1 1027   0.120  14.840  22.153
   81SOL    HW2 1028   0.044  14.891  22.018
   82SOL     OW 1029   1.622  13.401  24.581
   82SOL    HW1 1030   1.624  13.325  24.645
   82SOL    HW2 1031   1.574  13.478  24.621
   83SOL     OW 1032   0.240  15.988   2.748
   83SOL    HW1 1033   0.254  15.904   2.800
   83SOL    HW2 1034   0.185  16.052   2.803
   84SOL     OW 1035   0.768  16.041  14.057
   84SOL    HW1 1036   0.690  16.058  14.117
   84SOL    HW2 1037   0.802  16.128  14.021
   85SOL     OW 1038   1.622  15.263  17.133
   85SOL    HW1 1039   1.624  15.187  17.197
   85SOL    HW2 1040   1.574  15.340  17.173
   86SOL     OW 1041   0.076  15.707  21.272
   86SOL    HW1 1042   0.175  15.695  21.281
   86SOL    HW2 1043   0.052  15.802  21.293
   87SOL     OW 1044   0.781  15.160  24.094
   87SOL    HW1 1045   0.848  15.099  24.137
   87SOL    HW2 1046   0.708  15.179  24.159
   88SOL     OW 1047   0.922  15.399  25.106
   88SOL    HW1 1048   0.897  15.390  25.010
   88SOL    HW2 1049   0.970  15.317  25.137
   89SOL     OW 1050   0.255  16.245  24.497
   89SOL    HW1 1051   0.159  16.246  24.470
   89SOL    HW2 1052   0.267  16.298  24.581
   90SOL     OW 1053   0.122  17.402  15.459
   90SOL    HW1 1054   0.077  17.314  15.476
   90SOL    HW2 1055   0.121  17.456  15.543
   91SOL     OW 1056   0.189  17.279  16.619
   91SOL    HW1 1057   0.248  17.239  16.549
   91SOL    HW2 1058   0.131  17.350  16.578
   92SOL     OW 1059   1.632  18.136  24.288
   92SOL    HW1 1060   1.600  18.230  24.278
   92SOL    HW2 1061   1.556  18.073  24.276
   93SOL     OW 1062   1.594  18.735   1.480
   93SOL    HW1 1063   1.576  18.802   1.408
   93SOL    HW2 1064   1.591  18.781   1.569
   94SOL     OW 1065   0.606  19.585   7.571
   94SOL    HW1 1066   0.613  19.669   7.517
   94SOL    HW2 1067   0.652  19.598   7.659
   95SOL     OW 1068   0.807  19.226  10.775
   95SOL    HW1 1069   0.760  19.223  10.864
   95SOL    HW2 1070   0.756  19.171  10.709
   96SOL     OW 1071   1.857  19.454  11.549
   96SOL    HW1 1072   1.899  19.390  11.613
   96SOL    HW2 1073   1.819  19.403  11.471
   97SOL     OW 1074   0.079  19.861  11.825
   97SOL    HW1 1075   0.078  19.814  11.913
   97SOL    HW2 1076   0.161  19.833  11.774
   98SOL     OW 1077   0.916  19.531  13.325
   98SOL    HW1 1078   0.979  19.569  13.257
   98SOL    HW2 1079   0.956  19.448  13.364
   99SOL     OW 1080   1.076  19.304  16.361
   99SOL    HW1 1081   0.996  19.243  16.364
   99SOL    HW2 1082   1.157  19.251  16.337
  100SOL     OW 1083   1.754  21.706   5.312
  100SOL    HW1 1084   1.845  21.667   5.299
  100SOL    HW2 1085   1.762  21.802   5.336
  101SOL     OW 1086   1.719  21.068   7.417
  101SOL    HW1 1087   1.693  21.157   7.381
  101SOL    HW2 1088   1.717  21.000   7.344
  102SOL     OW 1089   0.768  21.627  10.333
  102SOL    HW1 1090   0.690  21.644  10.393
  102SOL    HW2 1091   0.802  21.714  10.297
  103SOL     OW 1092   0.705  21.533  20.851
  103SOL    HW1 1093   0.691  21.540  20.950
  103SOL    HW2 1094   0.789  21.482  20.833
  104SOL     OW 1095   1.002  23.141   8.686
  104SOL    HW1 1096   1.043  23.109   8.772
  104SOL    HW2 1097   0.906  23.114   8.683
  105SOL     OW 1098   1.227  23.895  21.989
  105SOL    HW1 1099   1.233  23.818  22.053
  105SOL    HW2 1100   1.175  23.869  21.909
  106SOL     OW 1101   0.991  24.617   8.690
  106SOL    HW1 1102   0.914  24.651   8.744
  106SOL    HW2 1103   0.957  24.566   8.611
  107SOL     OW 1104   0.064  25.771  16.228
  107SOL    HW1 1105   0.018  25.853  16.194
  107SOL    HW2 1106   0.162  25.790  16.237
  108SOL     OW 1107   0.812  27.655   8.135
  108SOL    HW1 1108   0.844  27.665   8.041
  108SOL    HW2 1109   0.733  27.593   8.137
  109SOL     OW 1110   1.227  27.619  12.678
  109SOL    HW1 1111   1.233  27.542  12.742
  109SOL    HW2 1112   1.175  27.593  12.598
  110SOL     OW 1113   0.037  27.379  12.454
  110SOL    HW1 1114   0.090  27.330  12.522
  110SOL    HW2 1115   0.059  27.477  12.459
  111SOL     OW 1116   0.815  26.641  13.359
  111SOL    HW1 1117   0.822  26.552  13.313
  111SOL    HW2 1118   0.721  26.675  13.351
  112SOL     OW 1119   1.638  27.168  19.700
  112SOL    HW1 1120   1.643  27.249  19.759
  112SOL    HW2 1121   1.552  27.170  19.649
  113SOL     OW 1122   1.083  27.053  20.570
  113SOL    HW1 1123   1.060  27.106  20.488
  113SOL    HW2 1124   1.164  26.997  20.551
  114SOL     OW 1125   0.875  27.715  28.268
  114SOL    HW1 1126   0.798  27.680  28.214
  114SOL    HW2 1127   0.843  27.786  28.330
  115SOL     OW 1128   1.400  28.038   9.736
  115SOL    HW1 1129   1.376  28.001   9.646
  115SOL    HW2 1130   1.499  28.054   9.740
  116SOL     OW 1131   1.841  28.106  23.308
  116SOL    HW1 1132   1.880  28.021  23.272
  116SOL    HW2 1133   1.743  28.108  23.289
  117SOL     OW 1134   0.815  28.503  26.394
  117SOL    HW1 1135   0.822  28.414  26.348
  117SOL    HW2 1136   0.721  28.537  26.386
  118SOL     OW 1137   2.401   0.064   4.236
  118SOL    HW1 1138   2.320   0.065   4.294
  118SOL    HW2 1139   2.404   0.147   4.181
  119SOL     OW 1140   3.000   0.380   7.264
  119SOL    HW1 1141   2.955   0.443   7.328
  119SOL    HW2 1142   3.093   0.411   7.247
  120SOL     OW 1143   2.435   0.870  17.788
  120SOL    HW1 1144   2.479   0.959  17.779
  120SOL    HW2 1145   2.372   0.870  17.865
  121SOL     OW 1146   3.526   1.280  19.278
  121SOL    HW1 1147   3.625   1.288  19.292
  121SOL    HW2 1148   3.481   1.364  19.309
  122SOL     OW 1149   2.534   1.616  18.775
  122SOL    HW1 1150   2.543   1.626  18.676
  122SOL    HW2 1151   2.494   1.527  18.796
  123SOL     OW 1152   3.476   1.292  23.634
  123SOL    HW1 1153   3.536   1.295  23.714
  123SOL    HW2 1154   3.401   1.356  23.647
  124SOL     OW 1155   2.272   0.813  25.458
  124SOL    HW1 1156   2.358   0.825  25.508
  124SOL    HW2 1157   2.230   0.726  25.485
  125SOL     OW 1158   2.482   3.648   1.439
  125SOL    HW1 1159   2.390   3.631   1.474
  125SOL    HW2 1160   2.510   3.740   1.465
  126SOL     OW 1161   3.049   3.654   5.340
  126SOL    HW1 1162   3.073   3.714   5.264
  126SOL    HW2 1163   3.056   3.559   5.310
  127SOL     OW 1164   2.389   2.118   4.052
  127SOL    HW1 1165   2.416   2.059   3.977
  127SOL    HW2 1166   2.389   2.213   4.021
  128SOL     OW 1167   3.000   2.242  22.161
  128SOL    HW1 1168   2.955   2.305  22.225
  128SOL    HW2 1169   3.093   2.273  22.144
  129SOL     OW 1170   2.778   2.772  24.498
  129SOL    HW1 1171   2.841   2.810  24.430
  129SOL    HW2 1172   2.818   2.689  24.537
  130SOL     OW 1173   1.950   5.525   0.927
  130SOL    HW1 1174   1.908   5.439   0.900
  130SOL    HW2 1175   2.044   5.528   0.893
  131SOL     OW 1176   3.465   4.171  13.771
  131SOL    HW1 1177   3.391   4.217  13.721
  131SOL    HW2 1178   3.516   4.239  13.824
  132SOL     OW 1179   2.665   5.126  19.545
  132SOL    HW1 1180   2.755   5.140  19.503
  132SOL    HW2 1181   2.594   5.128  19.474
  133SOL     OW 1182   2.842   5.297  20.321
  133SOL    HW1 1183   2.822   5.341  20.233
  133SOL    HW2 1184   2.881   5.206  20.305
  134SOL     OW 1185   2.252   5.465  20.181
  134SOL    HW1 1186   2.161   5.506  20.179
  134SOL    HW2 1187   2.245   5.371  20.213
  135SOL     OW 1188   3.155   4.952  25.630
  135SOL    HW1 1189   3.192   4.879  25.572
  135SOL    HW2 1190   3.207   4.957  25.715
  136SOL     OW 1191   3.438   5.386  24.514
  136SOL    HW1 1192   3.527   5.432  24.517
  136SOL    HW2 1193   3.417   5.362  24.419
  137SOL     OW 1194   2.750   7.100   8.643
  137SOL    HW1 1195   2.727   7.075   8.549
  137SOL    HW2 1196   2.811   7.031   8.682
  138SOL     OW 1197   3.494   6.963  14.977
  138SOL    HW1 1198   3.462   7.057  14.967
  138SOL    HW2 1199   3.418   6.900  14.965
  139SOL     OW 1200   3.328   6.176  15.889
  139SOL    HW1 1201   3.298   6.081  15.896
  139SOL    HW2 1202   3.401   6.192  15.955
  140SOL     OW 1203   3.529   7.300  24.779
  140SOL    HW1 1204   3.488   7.277  24.691
  140SOL    HW2 1205   3.511   7.226  24.844
  141SOL     OW 1206   2.300   7.840   1.499
  141SOL    HW1 1207   2.382   7.784   1.508
  141SOL    HW2 1208   2.219   7.782   1.503
  142SOL     OW 1209   3.484   7.815   4.098
  142SOL    HW1 1210   3.486   7.739   4.162
  142SOL    HW2 1211   3.436   7.892   4.138
  143SOL     OW 1212   2.632   8.778   5.887
  143SOL    HW1 1213   2.586   8.691   5.904
  143SOL    HW2 1214   2.723   8.775   5.928
  144SOL     OW 1215   2.567   8.498   7.816
  144SOL    HW1 1216   2.553   8.505   7.915
  144SOL    HW2 1217   2.651   8.447   7.798
  145SOL     OW 1218   2.792  10.988   5.189
  145SOL    HW1 1219   2.768  10.970   5.094
  145SOL    HW2 1220   2.822  11.082   5.199
  146SOL     OW 1221   2.997  10.013  21.200
  146SOL    HW1 1222   3.054  10.091  21.175
  146SOL    HW2 1223   2.937  10.039  21.276
  147SOL     OW 1224   2.665  10.712  26.993
  147SOL    HW1 1225   2.755  10.726  26.951
  147SOL    HW2 1226   2.594  10.714  26.922
  148SOL     OW 1227   3.114  12.520   5.974
  148SOL    HW1 1228   3.164  12.597   6.014
  148SOL    HW2 1229   3.019  12.522   6.006
  149SOL     OW 1230   2.412  11.368  10.195
  149SOL    HW1 1231   2.407  11.363  10.295
  149SOL    HW2 1232   2.414  11.464  10.166
  150SOL     OW 1233   2.216  12.682  12.501
  150SOL    HW1 1234   2.195  12.638  12.414
  150SOL    HW2 1235   2.313  12.708  12.504
  151SOL     OW 1236   2.669  11.777  14.499
  151SOL    HW1 1237   2.622  11.774  14.588
  151SOL    HW2 1238   2.618  11.722  14.433
  152SOL     OW 1239   2.853  11.582  14.276
  152SOL    HW1 1240   2.776  11.616  14.330
  152SOL    HW2 1241   2.819  11.531  14.197
  153SOL     OW 1242   2.973  14.229   6.686
  153SOL    HW1 1243   2.933  14.273   6.767
  153SOL    HW2 1244   2.932  14.266   6.603
  154SOL     OW 1245   2.092  13.662   7.561
  154SOL    HW1 1246   1.999  13.660   7.598
  154SOL    HW2 1247   2.093  13.623   7.469
  155SOL     OW 1248   3.209  14.093  12.406
  155SOL    HW1 1249   3.233  14.030  12.332
  155SOL    HW2 1250   3.119  14.133  12.388
  156SOL     OW 1251   1.901  14.111  11.472
  156SOL    HW1 1252   2.000  14.100  11.463
  156SOL    HW2 1253   1.861  14.025  11.504
  157SOL     OW 1254   2.102  14.125  25.093
  157SOL    HW1 1255   2.116  14.041  25.145
  157SOL    HW2 1256   2.047  14.189  25.148
  158SOL     OW 1257   3.136  15.282  10.572
  158SOL    HW1 1258   3.157  15.356  10.636
  158SOL    HW2 1259   3.047  15.299  10.529
  159SOL     OW 1260   2.842  16.013  18.478
  159SOL    HW1 1261   2.743  16.019  18.488
  159SOL    HW2 1262   2.865  15.933  18.422
  160SOL     OW 1263   3.134  16.342  25.349
  160SOL    HW1 1264   3.181  16.355  25.436
  160SOL    HW2 1265   3.068  16.268  25.358
  161SOL     OW 1266   3.087  17.084  19.070
  161SOL    HW1 1267   3.152  17.010  19.059
  161SOL    HW2 1268   3.107  17.134  19.154
  162SOL     OW 1269   2.973  17.954  27.169
  162SOL    HW1 1270   2.933  17.998  27.250
  162SOL    HW2 1271   2.932  17.991  27.086
  163SOL     OW 1272   3.000  19.001   5.402
  163SOL    HW1 1273   2.955  19.064   5.466
  163SOL    HW2 1274   3.093  19.032   5.385
  164SOL     OW 1275   2.903  19.322   6.015
  164SOL    HW1 1276   2.929  19.318   6.111
  164SOL    HW2 1277   2.818  19.271   6.001
  165SOL     OW 1278   3.512  20.341  12.566
  165SOL    HW1 1279   3.565  20.351  12.482
  165SOL    HW2 1280   3.485  20.431  12.600
  166SOL     OW 1281   2.216  20.131  18.088
  166SOL    HW1 1282   2.195  20.087  18.001
  166SOL    HW2 1283   2.313  20.157  18.091
  167SOL     OW 1284   2.272  21.296   8.699
  167SOL    HW1 1285   2.358  21.308   8.749
  167SOL    HW2 1286   2.230  21.209   8.726
  168SOL     OW 1287   2.435  21.353  17.788
  168SOL    HW1 1288   2.479  21.442  17.779
  168SOL    HW2 1289   2.372  21.353  17.865
  169SOL     OW 1290   1.901  21.560  17.059
  169SOL    HW1 1291   2.000  21.549  17.050
  169SOL    HW2 1292   1.861  21.474  17.091
  170SOL     OW 1293   2.938  21.166  20.085
  170SOL    HW1 1294   2.858  21.105  20.088
  170SOL    HW2 1295   3.019  21.113  20.061
  171SOL     OW 1296   2.475  21.325  21.914
  171SOL    HW1 1297   2.531  21.406  21.897
  171SOL    HW2 1298   2.534  21.245  21.917
  172SOL     OW 1299   2.534  20.686  27.558
  172SOL    HW1 1300   2.624  20.670  27.518
  172SOL    HW2 1301   2.542  20.691  27.657
  173SOL     OW 1302   2.727  22.693   0.195
  173SOL    HW1 1303   2.786  22.756   0.146
  173SOL    HW2 1304   2.746  22.599   0.166
  174SOL     OW 1305   1.992  24.139  13.023
  174SOL    HW1 1306   1.951  24.065  13.076
  174SOL    HW2 1307   2.056  24.190  13.081
  175SOL     OW 1308   2.938  23.028  21.947
  175SOL    HW1 1309   2.858  22.967  21.950
  175SOL    HW2 1310   3.019  22.975  21.923
  176SOL     OW 1311   2.669  22.950  25.672
  176SOL    HW1 1312   2.622  22.947  25.761
  176SOL    HW2 1313   2.618  22.895  25.606
  177SOL     OW 1314   2.879  22.384  24.960
  177SOL    HW1 1315   2.807  22.389  24.891
  177SOL    HW2 1316   2.855  22.315  25.029
  178SOL     OW 1317   2.632  23.675  24.508
  178SOL    HW1 1318   2.586  23.588  24.525
  178SOL    HW2 1319   2.723  23.672  24.549
  179SOL     OW 1320   2.366  25.775   0.910
  179SOL    HW1 1321   2.432  25.849   0.919
  179SOL    HW2 1322   2.410  25.696   0.868
  180SOL     OW 1323   1.945  25.465  27.091
  180SOL    HW1 1324   1.940  25.464  27.191
  180SOL    HW2 1325   1.862  25.424  27.053
  181SOL     OW 1326   2.021  27.206   3.328
  181SOL    HW1 1327   2.043  27.145   3.404
  181SOL    HW2 1328   2.031  27.157   3.242
  182SOL     OW 1329   3.322  27.574   8.787
  182SOL    HW1 1330   3.346  27.668   8.813
  182SOL    HW2 1331   3.306  27.520   8.869
  183SOL     OW 1332   2.366  27.637  23.255
  183SOL    HW1 1333   2.432  27.711  23.264
  183SOL    HW2 1334   2.410  27.558  23.213
  184SOL     OW 1335   3.214  27.983   3.892
  184SOL    HW1 1336   3.249  27.942   3.808
  184SOL    HW2 1337   3.124  27.945   3.912
  185SOL     OW 1338   5.279   1.511  15.599
  185SOL    HW1 1339   5.222   1.495  15.680
  185SOL    HW2 1340   5.220   1.521  15.519
  186SOL     OW 1341   5.084   0.862  25.252
  186SOL    HW1 1342   5.009   0.862  25.186
  186SOL    HW2 1343   5.121   0.770  25.261
  187SOL     OW 1344   4.800   2.545  25.671
  187SOL    HW1 1345   4.720   2.484  25.674
  187SOL    HW2 1346   4.881   2.492  25.647
  188SOL     OW 1347   4.114   3.603  25.767
  188SOL    HW1 1348   4.023   3.644  25.765
  188SOL    HW2 1349   4.107   3.509  25.799
  189SOL     OW 1350   4.951   5.274   1.506
  189SOL    HW1 1351   4.957   5.197   1.570
  189SOL    HW2 1352   4.899   5.248   1.426
  190SOL     OW 1353   4.212   5.109   0.174
  190SOL    HW1 1354   4.125   5.094   0.221
  190SOL    HW2 1355   4.195   5.135   0.079
  191SOL     OW 1356   4.918   5.336   3.755
  191SOL    HW1 1357   4.924   5.243   3.792
  191SOL    HW2 1358   4.859   5.336   3.675
  192SOL     OW 1359   3.829   4.737   5.450
  192SOL    HW1 1360   3.752   4.704   5.504
  192SOL    HW2 1361   3.914   4.707   5.492
  193SOL     OW 1362   3.955   5.437   9.793
  193SOL    HW1 1363   3.989   5.514   9.847
  193SOL    HW2 1364   3.999   5.437   9.703
  194SOL     OW 1365   4.338   3.846   9.427
  194SOL    HW1 1366   4.436   3.824   9.434
  194SOL    HW2 1367   4.307   3.829   9.334
  195SOL     OW 1368   5.148   5.800   1.112
  195SOL    HW1 1369   5.200   5.735   1.167
  195SOL    HW2 1370   5.099   5.863   1.173
  196SOL     OW 1371   4.395   6.050   4.993
  196SOL    HW1 1372   4.361   5.961   4.963
  196SOL    HW2 1373   4.421   6.104   4.913
  197SOL     OW 1374   4.183   6.738  10.051
  197SOL    HW1 1375   4.112   6.711  10.116
  197SOL    HW2 1376   4.157   6.710   9.958
  198SOL     OW 1377   4.907   6.921   9.429
  198SOL    HW1 1378   4.808   6.910   9.431
  198SOL    HW2 1379   4.941   6.936   9.522
  199SOL     OW 1380   3.800   6.397  13.823
  199SOL    HW1 1381   3.899   6.385  13.832
  199SOL    HW2 1382   3.776   6.492  13.844
  200SOL     OW 1383   4.765   6.287  17.188
  200SOL    HW1 1384   4.791   6.283  17.284
  200SOL    HW2 1385   4.680   6.236  17.174
  201SOL     OW 1386   5.118   6.055  25.881
  201SOL    HW1 1387   5.098   6.098  25.969
  201SOL    HW2 1388   5.196   5.993  25.890
  202SOL     OW 1389   4.788   6.933  25.547
  202SOL    HW1 1390   4.708   6.910  25.602
  202SOL    HW2 1391   4.871   6.907  25.596
  203SOL     OW 1392   4.725   7.482   4.878
  203SOL    HW1 1393   4.662   7.410   4.847
  203SOL    HW2 1394   4.818   7.446   4.878
  204SOL     OW 1395   4.212   8.833  15.070
  204SOL    HW1 1396   4.125   8.818  15.117
  204SOL    HW2 1397   4.195   8.859  14.975
  205SOL     OW 1398   4.654   9.126  25.672
  205SOL    HW1 1399   4.630   9.108  25.577
  205SOL    HW2 1400   4.684   9.220  25.682
  206SOL     OW 1401   4.031   7.661  27.300
  206SOL    HW1 1402   4.008   7.698  27.390
  206SOL    HW2 1403   4.001   7.566  27.294
  207SOL     OW 1404   5.306   8.087  28.403
  207SOL    HW1 1405   5.275   8.148  28.476
  207SOL    HW2 1406   5.356   8.139  28.334
  208SOL     OW 1407   5.429  10.797   8.552
  208SOL    HW1 1408   5.336  10.772   8.525
  208SOL    HW2 1409   5.455  10.747   8.634
  209SOL     OW 1410   4.747  10.076  17.725
  209SOL    HW1 1411   4.762  10.097  17.821
  209SOL    HW2 1412   4.717   9.981  17.716
  210SOL     OW 1413   4.096  12.460  25.697
  210SOL    HW1 1414   4.083  12.553  25.663
  210SOL    HW2 1415   4.012  12.408  25.684
  211SOL     OW 1416   4.664  12.870  26.973
  211SOL    HW1 1417   4.744  12.813  26.994
  211SOL    HW2 1418   4.615  12.830  26.896
  212SOL     OW 1419   4.285  13.256   3.009
  212SOL    HW1 1420   4.323  13.172   3.046
  212SOL    HW2 1421   4.197  13.275   3.053
  213SOL     OW 1422   5.454  13.968   5.241
  213SOL    HW1 1423   5.492  14.059   5.256
  213SOL    HW2 1424   5.446  13.951   5.142
  214SOL     OW 1425   4.732  16.353   0.477
  214SOL    HW1 1426   4.686  16.425   0.425
  214SOL    HW2 1427   4.728  16.373   0.575
  215SOL     OW 1428   5.118  15.365  12.846
  215SOL    HW1 1429   5.098  15.408  12.934
  215SOL    HW2 1430   5.196  15.303  12.855
  216SOL     OW 1431   5.433  15.281  18.140
  216SOL    HW1 1432   5.506  15.350  18.144
  216SOL    HW2 1433   5.461  15.206  18.081
  217SOL     OW 1434   4.074  15.794  26.011
  217SOL    HW1 1435   4.150  15.838  26.059
  217SOL    HW2 1436   4.109  15.747  25.929
  218SOL     OW 1437   5.306  17.398   4.196
  218SOL    HW1 1438   5.275  17.459   4.269
  218SOL    HW2 1439   5.356  17.450   4.127
  219SOL     OW 1440   4.412  18.421  22.199
  219SOL    HW1 1441   4.356  18.502  22.208
  219SOL    HW2 1442   4.464  18.425  22.113
  220SOL     OW 1443   5.374  18.479  21.877
  220SOL    HW1 1444   5.427  18.489  21.793
  220SOL    HW2 1445   5.347  18.569  21.911
  221SOL     OW 1446   4.183  19.773   2.603
  221SOL    HW1 1447   4.112  19.746   2.668
  221SOL    HW2 1448   4.157  19.745   2.510
  222SOL     OW 1449   5.318  18.735  23.825
  222SOL    HW1 1450   5.300  18.802  23.753
  222SOL    HW2 1451   5.315  18.781  23.914
  223SOL     OW 1452   4.704  19.737  24.064
  223SOL    HW1 1453   4.605  19.743  24.074
  223SOL    HW2 1454   4.727  19.657  24.008
  224SOL     OW 1455   4.297  21.353   8.477
  224SOL    HW1 1456   4.341  21.442   8.468
  224SOL    HW2 1457   4.234  21.353   8.554
  225SOL     OW 1458   4.290  21.020  10.175
  225SOL    HW1 1459   4.302  21.086  10.101
  225SOL    HW2 1460   4.336  21.054  10.258
  226SOL     OW 1461   4.396  20.686  10.799
  226SOL    HW1 1462   4.486  20.670  10.759
  226SOL    HW2 1463   4.404  20.691  10.898
  227SOL     OW 1464   4.162  20.875  21.982
  227SOL    HW1 1465   4.244  20.819  21.991
  227SOL    HW2 1466   4.081  20.817  21.986
  228SOL     OW 1467   5.381  21.087  21.689
  228SOL    HW1 1468   5.343  21.018  21.751
  228SOL    HW2 1469   5.463  21.051  21.645
  229SOL     OW 1470   4.907  21.818  22.464
  229SOL    HW1 1471   4.808  21.807  22.466
  229SOL    HW2 1472   4.941  21.833  22.557
  230SOL     OW 1473   5.346  20.850  28.305
  230SOL    HW1 1474   5.348  20.774  28.369
  230SOL    HW2 1475   5.298  20.927  28.345
  231SOL     OW 1476   4.664  24.043   4.628
  231SOL    HW1 1477   4.744  23.986   4.649
  231SOL    HW2 1478   4.615  24.003   4.551
  232SOL     OW 1479   3.751  23.941   5.703
  232SOL    HW1 1480   3.732  23.845   5.724
  232SOL    HW2 1481   3.718  23.999   5.778
  233SOL     OW 1482   4.395  22.809  19.890
  233SOL    HW1 1483   4.361  22.720  19.860
  233SOL    HW2 1484   4.421  22.863  19.810
  234SOL     OW 1485   5.190  25.624   6.539
  234SOL    HW1 1486   5.131  25.630   6.619
  234SOL    HW2 1487   5.175  25.536   6.493
  235SOL     OW 1488   5.190  24.797  19.613
  235SOL    HW1 1489   5.160  24.702  19.620
  235SOL    HW2 1490   5.263  24.813  19.679
  236SOL     OW 1491   4.045  25.150  22.587
  236SOL    HW1 1492   4.127  25.189  22.545
  236SOL    HW2 1493   4.018  25.068  22.538
  237SOL     OW 1494   3.829  25.220  24.071
  237SOL    HW1 1495   3.752  25.187  24.125
  237SOL    HW2 1496   3.914  25.190  24.113
  238SOL     OW 1497   4.976  27.800   1.128
  238SOL    HW1 1498   5.060  27.805   1.074
  238SOL    HW2 1499   4.953  27.704   1.146
  239SOL     OW 1500   4.185  27.335   5.451
  239SOL    HW1 1501   4.135  27.336   5.365
  239SOL    HW2 1502   4.122  27.317   5.527
  240SOL     OW 1503   4.664  27.767   8.352
  240SOL    HW1 1504   4.744  27.710   8.373
  240SOL    HW2 1505   4.615  27.727   8.275
  241SOL     OW 1506   5.362  27.168  12.251
  241SOL    HW1 1507   5.367  27.249  12.310
  241SOL    HW2 1508   5.276  27.170  12.200
  242SOL     OW 1509   3.800  26.880  15.685
  242SOL    HW1 1510   3.899  26.868  15.694
  242SOL    HW2 1511   3.776  26.975  15.706
  243SOL     OW 1512   3.926  26.354  18.257
  243SOL    HW1 1513   3.846  26.414  18.244
  243SOL    HW2 1514   3.916  26.305  18.343
  244SOL     OW 1515   5.398  26.952  18.013
  244SOL    HW1 1516   5.371  26.863  17.976
  244SOL    HW2 1517   5.399  27.020  17.940
  245SOL     OW 1518   5.004  26.996  23.017
  245SOL    HW1 1519   5.064  26.915  23.019
  245SOL    HW2 1520   5.044  27.065  22.957
  246SOL     OW 1521   5.075  26.659  25.640
  246SOL    HW1 1522   5.103  26.616  25.725
  246SOL    HW2 1523   5.100  26.755  25.641
  247SOL     OW 1524   4.995  27.866  24.798
  247SOL    HW1 1525   5.039  27.930  24.734
  247SOL    HW2 1526   4.945  27.918  24.868
  248SOL     OW 1527   4.106  26.769  26.549
  248SOL    HW1 1528   4.151  26.679  26.546
  248SOL    HW2 1529   4.012  26.758  26.582
  249SOL     OW 1530   4.041  28.182  18.560
  249SOL    HW1 1531   4.112  28.253  18.566
  249SOL    HW2 1532   3.953  28.221  18.588
  250SOL     OW 1533   4.725  27.965  17.913
  250SOL    HW1 1534   4.662  27.893  17.882
  250SOL    HW2 1535   4.818  27.929  17.913
  251SOL     OW 1536   3.802  28.487  23.731
  251SOL    HW1 1537   3.894  28.486  23.690
  251SOL    HW2 1538   3.796  28.561  23.798
  252SOL     OW 1539   6.074   1.385   3.898
  252SOL    HW1 1540   5.987   1.370   3.945
  252SOL    HW2 1541   6.057   1.411   3.803
  253SOL     OW 1542   6.697   1.195   6.686
  253SOL    HW1 1543   6.657   1.239   6.767
  253SOL    HW2 1544   6.656   1.232   6.603
  254SOL     OW 1545   7.236   1.720  12.566
  254SOL    HW1 1546   7.289   1.730  12.482
  254SOL    HW2 1547   7.209   1.810  12.600
  255SOL     OW 1548   7.036   1.220  16.530
  255SOL    HW1 1549   7.027   1.210  16.629
  255SOL    HW2 1550   7.132   1.213  16.504
  256SOL     OW 1551   6.180   0.745  17.411
  256SOL    HW1 1552   6.230   0.830  17.392
  256SOL    HW2 1553   6.092   0.747  17.363
  257SOL     OW 1554   5.903   0.547  23.625
  257SOL    HW1 1555   5.941   0.488  23.697
  257SOL    HW2 1556   5.943   0.521  23.537
  258SOL     OW 1557   6.625   1.098  24.903
  258SOL    HW1 1558   6.555   1.051  24.957
  258SOL    HW2 1559   6.684   1.030  24.860
  259SOL     OW 1560   7.218   3.239   3.805
  259SOL    HW1 1561   7.186   3.333   3.795
  259SOL    HW2 1562   7.142   3.176   3.793
  260SOL     OW 1563   6.516   3.540   8.913
  260SOL    HW1 1564   6.492   3.522   8.818
  260SOL    HW2 1565   6.546   3.634   8.923
  261SOL     OW 1566   7.345   3.609   8.602
  261SOL    HW1 1567   7.406   3.639   8.529
  261SOL    HW2 1568   7.307   3.520   8.580
  262SOL     OW 1569   6.367   2.126  12.921
  262SOL    HW1 1570   6.434   2.065  12.964
  262SOL    HW2 1571   6.294   2.145  12.986
  263SOL     OW 1572   5.674   3.663  12.099
  263SOL    HW1 1573   5.632   3.577  12.072
  263SOL    HW2 1574   5.768   3.666  12.065
  264SOL     OW 1575   6.206   3.648  25.646
  264SOL    HW1 1576   6.114   3.631  25.681
  264SOL    HW2 1577   6.234   3.740  25.672
  265SOL     OW 1578   6.948   3.006  26.614
  265SOL    HW1 1579   7.031   2.977  26.566
  265SOL    HW2 1580   6.899   3.073  26.558
  266SOL     OW 1581   6.200   1.984  26.186
  266SOL    HW1 1582   6.298   1.962  26.193
  266SOL    HW2 1583   6.169   1.967  26.093
  267SOL     OW 1584   7.260   4.607   4.978
  267SOL    HW1 1585   7.233   4.518   4.941
  267SOL    HW2 1586   7.261   4.675   4.905
  268SOL     OW 1587   6.813   5.274  10.816
  268SOL    HW1 1588   6.819   5.197  10.880
  268SOL    HW2 1589   6.761   5.248  10.736
  269SOL     OW 1590   6.180   4.469   9.962
  269SOL    HW1 1591   6.230   4.554   9.943
  269SOL    HW2 1592   6.092   4.471   9.914
  270SOL     OW 1593   7.227   4.832  11.604
  270SOL    HW1 1594   7.313   4.834  11.552
  270SOL    HW2 1595   7.241   4.879  11.692
  271SOL     OW 1596   6.938   3.776  11.340
  271SOL    HW1 1597   6.973   3.735  11.256
  271SOL    HW2 1598   6.848   3.738  11.360
  272SOL     OW 1599   6.627   4.425  17.188
  272SOL    HW1 1600   6.653   4.421  17.284
  272SOL    HW2 1601   6.542   4.374  17.174
  273SOL     OW 1602   6.889   4.562  22.387
  273SOL    HW1 1603   6.923   4.469  22.402
  273SOL    HW2 1604   6.907   4.589  22.292
  274SOL     OW 1605   6.980   6.055   1.674
  274SOL    HW1 1606   6.960   6.098   1.762
  274SOL    HW2 1607   7.058   5.993   1.683
  275SOL     OW 1608   7.312   5.721   6.109
  275SOL    HW1 1609   7.385   5.704   6.042
  275SOL    HW2 1610   7.281   5.634   6.147
  276SOL     OW 1611   6.147   5.808   8.595
  276SOL    HW1 1612   6.185   5.724   8.632
  276SOL    HW2 1613   6.059   5.827   8.639
  277SOL     OW 1614   5.625   6.663   7.748
  277SOL    HW1 1615   5.724   6.652   7.739
  277SOL    HW2 1616   5.585   6.577   7.780
  278SOL     OW 1617   6.047   6.852  12.899
  278SOL    HW1 1618   5.997   6.853  12.813
  278SOL    HW2 1619   5.984   6.834  12.975
  279SOL     OW 1620   5.817   7.299  19.104
  279SOL    HW1 1621   5.851   7.376  19.158
  279SOL    HW2 1622   5.861   7.299  19.014
  280SOL     OW 1623   6.976   6.161  26.147
  280SOL    HW1 1624   6.922   6.140  26.228
  280SOL    HW2 1625   7.067   6.120  26.156
  281SOL     OW 1626   7.015   6.759  28.798
  281SOL    HW1 1627   6.960   6.675  28.791
  281SOL    HW2 1628   7.041   6.788  28.706
  282SOL     OW 1629   5.925   7.957   2.868
  282SOL    HW1 1630   5.873   7.874   2.851
  282SOL    HW2 1631   6.002   7.962   2.804
  283SOL     OW 1632   6.866   8.375  17.431
  283SOL    HW1 1633   6.926   8.294  17.433
  283SOL    HW2 1634   6.906   8.444  17.371
  284SOL     OW 1635   7.079  11.077   0.959
  284SOL    HW1 1636   7.112  11.141   0.890
  284SOL    HW2 1637   7.145  11.071   1.034
  285SOL     OW 1638   7.046  10.815   6.925
  285SOL    HW1 1639   7.070  10.909   6.951
  285SOL    HW2 1640   7.030  10.761   7.007
  286SOL     OW 1641   6.393   9.915  12.637
  286SOL    HW1 1642   6.346   9.912  12.726
  286SOL    HW2 1643   6.342   9.860  12.571
  287SOL     OW 1644   6.451   9.658  16.954
  287SOL    HW1 1645   6.510   9.721  16.905
  287SOL    HW2 1646   6.470   9.564  16.925
  288SOL     OW 1647   6.047  10.576  18.486
  288SOL    HW1 1648   5.997  10.577  18.400
  288SOL    HW2 1649   5.984  10.558  18.562
  289SOL     OW 1650   5.835  11.095  18.000
  289SOL    HW1 1651   5.892  11.030  18.050
  289SOL    HW2 1652   5.819  11.062  17.907
  290SOL     OW 1653   6.858  12.617   3.004
  290SOL    HW1 1654   6.905  12.630   3.091
  290SOL    HW2 1655   6.792  12.543   3.013
  291SOL     OW 1656   6.136  11.368   4.609
  291SOL    HW1 1657   6.131  11.363   4.709
  291SOL    HW2 1658   6.138  11.464   4.580
  292SOL     OW 1659   5.953  12.272   7.949
  292SOL    HW1 1660   5.946  12.355   7.893
  292SOL    HW2 1661   5.957  12.192   7.889
  293SOL     OW 1662   7.345  12.919  12.326
  293SOL    HW1 1663   7.406  12.949  12.253
  293SOL    HW2 1664   7.307  12.830  12.304
  294SOL     OW 1665   6.625  12.270  11.868
  294SOL    HW1 1666   6.555  12.223  11.922
  294SOL    HW2 1667   6.684  12.202  11.825
  295SOL     OW 1668   7.345  12.919  16.051
  295SOL    HW1 1669   7.406  12.949  15.978
  295SOL    HW2 1670   7.307  12.830  16.029
  296SOL     OW 1671   6.813  12.742  17.552
  296SOL    HW1 1672   6.834  12.816  17.487
  296SOL    HW2 1673   6.881  12.742  17.625
  297SOL     OW 1674   7.250  12.452  23.002
  297SOL    HW1 1675   7.349  12.460  23.016
  297SOL    HW2 1676   7.205  12.536  23.033
  298SOL     OW 1677   7.275  12.094  28.543
  298SOL    HW1 1678   7.370  12.065  28.551
  298SOL    HW2 1679   7.267  12.159  28.468
  299SOL     OW 1680   5.669  14.292   8.470
  299SOL    HW1 1681   5.664  14.291   8.570
  299SOL    HW2 1682   5.586  14.251   8.432
  300SOL     OW 1683   6.395  13.038   9.812
  300SOL    HW1 1684   6.435  13.129   9.803
  300SOL    HW2 1685   6.295  13.046   9.818
  301SOL     OW 1686   7.079  14.801  13.993
  301SOL    HW1 1687   7.112  14.865  13.924
  301SOL    HW2 1688   7.145  14.795  14.068
  302SOL     OW 1689   5.775  15.416  11.032
  302SOL    HW1 1690   5.834  15.376  10.962
  302SOL    HW2 1691   5.717  15.487  10.991
  303SOL     OW 1692   6.627  15.597  11.601
  303SOL    HW1 1693   6.653  15.593  11.697
  303SOL    HW2 1694   6.542  15.546  11.587
  304SOL     OW 1695   7.036  16.117  12.805
  304SOL    HW1 1696   7.027  16.107  12.904
  304SOL    HW2 1697   7.132  16.110  12.779
  305SOL     OW 1698   7.305  15.481  18.590
  305SOL    HW1 1699   7.279  15.570  18.554
  305SOL    HW2 1700   7.303  15.413  18.517
  306SOL     OW 1701   6.354  16.041  21.506
  306SOL    HW1 1702   6.276  16.058  21.566
  306SOL    HW2 1703   6.388  16.128  21.470
  307SOL     OW 1704   6.247  18.549   0.953
  307SOL    HW1 1705   6.201  18.637   0.940
  307SOL    HW2 1706   6.346  18.561   0.946
  308SOL     OW 1707   6.858  18.204   3.004
  308SOL    HW1 1708   6.905  18.217   3.091
  308SOL    HW2 1709   6.792  18.130   3.013
  309SOL     OW 1710   6.697  17.954   4.824
  309SOL    HW1 1711   6.657  17.998   4.905
  309SOL    HW2 1712   6.656  17.991   4.741
  310SOL     OW 1713   5.775  17.279   5.446
  310SOL    HW1 1714   5.834  17.239   5.376
  310SOL    HW2 1715   5.717  17.350   5.405
  311SOL     OW 1716   7.316  17.693   8.965
  311SOL    HW1 1717   7.354  17.784   8.980
  311SOL    HW2 1718   7.308  17.676   8.866
  312SOL     OW 1719   5.937  18.560  12.025
  312SOL    HW1 1720   5.987  18.474  12.031
  312SOL    HW2 1721   6.002  18.637  12.022
  313SOL     OW 1722   6.398  18.345  13.721
  313SOL    HW1 1723   6.430  18.355  13.627
  313SOL    HW2 1724   6.319  18.283  13.723
  314SOL     OW 1725   7.079  18.526  15.856
  314SOL    HW1 1726   7.112  18.590  15.787
  314SOL    HW2 1727   7.145  18.520  15.931
  315SOL     OW 1728   6.955  17.709  24.005
  315SOL    HW1 1729   6.994  17.798  24.025
  315SOL    HW2 1730   6.965  17.689  23.908
  316SOL     OW 1731   7.224  19.720  14.113
  316SOL    HW1 1732   7.229  19.801  14.172
  316SOL    HW2 1733   7.138  19.722  14.062
  317SOL     OW 1734   6.258  18.824  18.248
  317SOL    HW1 1735   6.348  18.808  18.208
  317SOL    HW2 1736   6.266  18.829  18.347
  318SOL     OW 1737   6.713  21.824   3.552
  318SOL    HW1 1738   6.760  21.824   3.640
  318SOL    HW2 1739   6.665  21.737   3.541
  319SOL     OW 1740   6.948  21.627  21.028
  319SOL    HW1 1741   7.031  21.598  20.980
  319SOL    HW2 1742   6.899  21.694  20.972
  320SOL     OW 1743   7.410  20.675  21.710
  320SOL    HW1 1744   7.406  20.585  21.754
  320SOL    HW2 1745   7.413  20.664  21.611
  321SOL     OW 1746   6.271  23.357   9.975
  321SOL    HW1 1747   6.340  23.341  10.045
  321SOL    HW2 1748   6.198  23.414  10.013
  322SOL     OW 1749   7.046  23.850  14.373
  322SOL    HW1 1750   7.070  23.944  14.399
  322SOL    HW2 1751   7.030  23.796  14.455
  323SOL     OW 1752   7.316  25.141   8.965
  323SOL    HW1 1753   7.354  25.232   8.980
  323SOL    HW2 1754   7.308  25.124   8.866
  324SOL     OW 1755   6.976  24.782   9.388
  324SOL    HW1 1756   6.922  24.761   9.469
  324SOL    HW2 1757   7.067  24.741   9.397
  325SOL     OW 1758   6.858  25.652  17.901
  325SOL    HW1 1759   6.905  25.665  17.988
  325SOL    HW2 1760   6.792  25.578  17.910
  326SOL     OW 1761   5.988  24.958  22.081
  326SOL    HW1 1762   6.056  25.013  22.034
  326SOL    HW2 1763   6.028  24.870  22.108
  327SOL     OW 1764   7.178  27.698   3.487
  327SOL    HW1 1765   7.205  27.732   3.397
  327SOL    HW2 1766   7.257  27.660   3.533
  328SOL     OW 1767   5.907  27.012   9.552
  328SOL    HW1 1768   5.989  27.051   9.510
  328SOL    HW2 1769   5.880  26.930   9.503
  329SOL     OW 1770   5.807  27.383  26.051
  329SOL    HW1 1771   5.742  27.310  26.030
  329SOL    HW2 1772   5.811  27.397  26.149
  330SOL     OW 1773   5.849  26.395  26.789
  330SOL    HW1 1774   5.770  26.446  26.755
  330SOL    HW2 1775   5.840  26.380  26.887
  331SOL     OW 1776   7.936   1.385  13.208
  331SOL    HW1 1777   7.849   1.370  13.255
  331SOL    HW2 1778   7.919   1.411  13.113
  332SOL     OW 1779   8.722   0.386  16.159
  332SOL    HW1 1780   8.743   0.460  16.223
  332SOL    HW2 1781   8.633   0.403  16.116
  333SOL     OW 1782   7.745   1.897  11.343
  333SOL    HW1 1783   7.794   1.981  11.322
  333SOL    HW2 1784   7.807   1.832  11.388
  334SOL     OW 1785   7.488   2.406  14.148
  334SOL    HW1 1786   7.573   2.373  14.107
  334SOL    HW2 1787   7.501   2.421  14.246
  335SOL     OW 1788   9.115   5.438   4.296
  335SOL    HW1 1789   9.074   5.415   4.208
  335SOL    HW2 1790   9.097   5.364   4.361
  336SOL     OW 1791   8.370   4.227  17.658
  336SOL    HW1 1792   8.345   4.218  17.562
  336SOL    HW2 1793   8.418   4.145  17.689
  337SOL     OW 1794   8.066   5.291  18.043
  337SOL    HW1 1795   8.061   5.373  18.100
  337SOL    HW2 1796   8.155   5.288  17.998
  338SOL     OW 1797   7.487   4.801  22.645
  338SOL    HW1 1798   7.586   4.790  22.636
  338SOL    HW2 1799   7.447   4.715  22.677
  339SOL     OW 1800   8.229   5.850   1.749
  339SOL    HW1 1801   8.296   5.789   1.792
  339SOL    HW2 1802   8.156   5.869   1.814
  340SOL     OW 1803   9.040   7.215   5.349
  340SOL    HW1 1804   9.067   7.249   5.259
  340SOL    HW2 1805   9.119   7.177   5.395
  341SOL     OW 1806   8.456   7.042  17.236
  341SOL    HW1 1807   8.410   7.114  17.184
  341SOL    HW2 1808   8.452   7.062  17.334
  342SOL     OW 1809   8.251   6.988  21.407
  342SOL    HW1 1810   8.341   7.002  21.365
  342SOL    HW2 1811   8.180   6.990  21.336
  343SOL     OW 1812   7.876   6.010  21.003
  343SOL    HW1 1813   7.906   5.938  20.941
  343SOL    HW2 1814   7.837   5.970  21.086
  344SOL     OW 1815   8.260   7.172  23.032
  344SOL    HW1 1816   8.292   7.182  22.938
  344SOL    HW2 1817   8.181   7.110  23.034
  345SOL     OW 1818   7.802   7.096  27.398
  345SOL    HW1 1819   7.781   7.052  27.311
  345SOL    HW2 1820   7.899   7.122  27.401
  346SOL     OW 1821   8.531   8.432  20.570
  346SOL    HW1 1822   8.508   8.485  20.488
  346SOL    HW2 1823   8.612   8.376  20.551
  347SOL     OW 1824   8.336   8.962  27.264
  347SOL    HW1 1825   8.313   8.937  27.170
  347SOL    HW2 1826   8.397   8.893  27.303
  348SOL     OW 1827   7.838   9.189  27.629
  348SOL    HW1 1828   7.747   9.230  27.627
  348SOL    HW2 1829   7.831   9.095  27.661
  349SOL     OW 1830   9.003  10.821   0.703
  349SOL    HW1 1831   8.946  10.805   0.784
  349SOL    HW2 1832   8.944  10.831   0.623
  350SOL     OW 1833   7.952  10.878   6.496
  350SOL    HW1 1834   8.018  10.952   6.505
  350SOL    HW2 1835   7.996  10.799   6.454
  351SOL     OW 1836   7.907  10.462  21.224
  351SOL    HW1 1837   7.836  10.435  21.289
  351SOL    HW2 1838   7.881  10.434  21.131
  352SOL     OW 1839   9.070  11.539   4.098
  352SOL    HW1 1840   9.072  11.463   4.162
  352SOL    HW2 1841   9.022  11.616   4.138
  353SOL     OW 1842   7.456  12.498   3.924
  353SOL    HW1 1843   7.363  12.519   3.893
  353SOL    HW2 1844   7.466  12.399   3.937
  354SOL     OW 1845   8.817  12.122   5.384
  354SOL    HW1 1846   8.856  12.211   5.404
  354SOL    HW2 1847   8.827  12.102   5.287
  355SOL     OW 1848   7.520  11.338   5.904
  355SOL    HW1 1849   7.503  11.421   5.850
  355SOL    HW2 1850   7.610  11.301   5.882
  356SOL     OW 1851   8.583  11.875   8.165
  356SOL    HW1 1852   8.640  11.953   8.140
  356SOL    HW2 1853   8.523  11.901   8.241
  357SOL     OW 1854   7.907  12.324   8.189
  357SOL    HW1 1855   7.836  12.297   8.254
  357SOL    HW2 1856   7.881  12.296   8.096
  358SOL     OW 1857   9.174  11.307  11.695
  358SOL    HW1 1858   9.247  11.290  11.628
  358SOL    HW2 1859   9.143  11.220  11.733
  359SOL     OW 1860   7.523  11.517  18.654
  359SOL    HW1 1861   7.431  11.489  18.625
  359SOL    HW2 1862   7.554  11.594  18.598
  360SOL     OW 1863   9.042  11.286  21.963
  360SOL    HW1 1864   9.024  11.353  21.891
  360SOL    HW2 1865   9.039  11.332  22.052
  361SOL     OW 1866   8.842  11.641  22.157
  361SOL    HW1 1867   8.822  11.684  22.245
  361SOL    HW2 1868   8.920  11.579  22.166
  362SOL     OW 1869   7.876  13.458   6.106
  362SOL    HW1 1870   7.906  13.386   6.044
  362SOL    HW2 1871   7.837  13.418   6.189
  363SOL     OW 1872   7.526  13.590   8.834
  363SOL    HW1 1873   7.618  13.589   8.793
  363SOL    HW2 1874   7.520  13.664   8.901
  364SOL     OW 1875   8.836  14.607  11.649
  364SOL    HW1 1876   8.903  14.619  11.575
  364SOL    HW2 1877   8.796  14.696  11.672
  365SOL     OW 1878   9.178  13.968  12.689
  365SOL    HW1 1879   9.216  14.059  12.704
  365SOL    HW2 1880   9.170  13.951  12.590
  366SOL     OW 1881   8.364  13.944  20.774
  366SOL    HW1 1882   8.427  13.982  20.706
  366SOL    HW2 1883   8.404  13.861  20.813
  367SOL     OW 1884   8.461  13.139  24.115
  367SOL    HW1 1885   8.467  13.224  24.063
  367SOL    HW2 1886   8.493  13.063  24.058
  368SOL     OW 1887   8.134  16.058   1.803
  368SOL    HW1 1888   8.194  16.137   1.817
  368SOL    HW2 1889   8.048  16.089   1.762
  369SOL     OW 1890   8.038  16.384  19.112
  369SOL    HW1 1891   8.080  16.326  19.042
  369SOL    HW2 1892   7.994  16.463  19.068
  370SOL     OW 1893   9.225  17.101  14.676
  370SOL    HW1 1894   9.208  17.132  14.582
  370SOL    HW2 1895   9.141  17.064  14.714
  371SOL     OW 1896   8.336  18.273  17.954
  371SOL    HW1 1897   8.313  18.248  17.860
  371SOL    HW2 1898   8.397  18.204  17.993
  372SOL     OW 1899   9.174  16.894  21.006
  372SOL    HW1 1900   9.247  16.877  20.939
  372SOL    HW2 1901   9.143  16.807  21.044
  373SOL     OW 1902   8.336  20.135  17.954
  373SOL    HW1 1903   8.313  20.110  17.860
  373SOL    HW2 1904   8.397  20.066  17.993
  374SOL     OW 1905   8.164  19.186  18.467
  374SOL    HW1 1906   8.183  19.251  18.541
  374SOL    HW2 1907   8.224  19.106  18.476
  375SOL     OW 1908   7.755  20.546   2.480
  375SOL    HW1 1909   7.744  20.640   2.513
  375SOL    HW2 1910   7.750  20.483   2.557
  376SOL     OW 1911   9.202  21.706   5.312
  376SOL    HW1 1912   9.293  21.667   5.299
  376SOL    HW2 1913   9.210  21.802   5.336
  377SOL     OW 1914   8.914  21.073  17.751
  377SOL    HW1 1915   8.884  20.978  17.758
  377SOL    HW2 1916   8.987  21.089  17.817
  378SOL     OW 1917   8.941  24.112   4.683
  378SOL    HW1 1918   8.974  24.176   4.614
  378SOL    HW2 1919   9.007  24.106   4.758
  379SOL     OW 1920   8.449  22.379   8.602
  379SOL    HW1 1921   8.386  22.307   8.571
  379SOL    HW2 1922   8.542  22.343   8.602
  380SOL     OW 1923   8.516  23.678  19.470
  380SOL    HW1 1924   8.523  23.594  19.415
  380SOL    HW2 1925   8.578  23.747  19.434
  381SOL     OW 1926   8.642  23.957  18.652
  381SOL    HW1 1927   8.648  23.864  18.689
  381SOL    HW2 1928   8.583  23.957  18.572
  382SOL     OW 1929   8.307  23.301  23.206
  382SOL    HW1 1930   8.361  23.232  23.254
  382SOL    HW2 1931   8.275  23.370  23.272
  383SOL     OW 1932   8.428  23.918  27.769
  383SOL    HW1 1933   8.408  23.962  27.681
  383SOL    HW2 1934   8.467  23.827  27.753
  384SOL     OW 1935   7.536  26.008  19.548
  384SOL    HW1 1936   7.494  25.922  19.521
  384SOL    HW2 1937   7.630  26.011  19.514
  385SOL     OW 1938   8.524  24.890  25.671
  385SOL    HW1 1939   8.444  24.829  25.674
  385SOL    HW2 1940   8.605  24.837  25.647
  386SOL     OW 1941   9.035  26.848   7.256
  386SOL    HW1 1942   8.943  26.886   7.251
  386SOL    HW2 1943   9.095  26.895   7.191
  387SOL     OW 1944   8.973  27.068   9.500
  387SOL    HW1 1945   8.910  26.992   9.513
  387SOL    HW2 1946   9.021  27.086   9.586
  388SOL     OW 1947   8.817  27.019  14.694
  388SOL    HW1 1948   8.856  27.108  14.714
  388SOL    HW2 1949   8.827  26.999  14.597
  389SOL     OW 1950   8.046  26.798  20.753
  389SOL    HW1 1951   8.070  26.867  20.685
  389SOL    HW2 1952   7.968  26.831  20.807
  390SOL     OW 1953   9.105  28.535  21.689
  390SOL    HW1 1954   9.067  28.466  21.751
  390SOL    HW2 1955   9.187  28.499  21.645
  391SOL     OW 1956  10.857   0.222   1.729
  391SOL    HW1 1957  10.852   0.259   1.821
  391SOL    HW2 1958  10.785   0.153   1.717
  392SOL     OW 1959   9.814   0.050  11.050
  392SOL    HW1 1960   9.772  -0.007  10.980
  392SOL    HW2 1961   9.748   0.119  11.082
  393SOL     OW 1962   9.329   0.368  24.854
  393SOL    HW1 1963   9.247   0.411  24.893
  393SOL    HW2 1964   9.301   0.295  24.791
  394SOL     OW 1965  10.760   1.220  27.702
  394SOL    HW1 1966  10.751   1.210  27.801
  394SOL    HW2 1967  10.856   1.213  27.676
  395SOL     OW 1968  10.974   3.142   0.657
  395SOL    HW1 1969  11.073   3.150   0.671
  395SOL    HW2 1970  10.929   3.226   0.688
  396SOL     OW 1971   9.876   2.399   4.589
  396SOL    HW1 1972   9.888   2.465   4.515
  396SOL    HW2 1973   9.922   2.433   4.672
  397SOL     OW 1974  10.903   2.083   4.606
  397SOL    HW1 1975  10.819   2.082   4.660
  397SOL    HW2 1976  10.905   2.166   4.550
  398SOL     OW 1977  10.026   2.427  24.053
  398SOL    HW1 1978  10.045   2.492  24.127
  398SOL    HW2 1979  10.086   2.347  24.062
  399SOL     OW 1980  10.232   2.365  25.106
  399SOL    HW1 1981  10.207   2.356  25.010
  399SOL    HW2 1982  10.280   2.283  25.137
  400SOL     OW 1983  11.038   4.659   5.578
  400SOL    HW1 1984  10.992   4.652   5.489
  400SOL    HW2 1985  10.976   4.703   5.644
  401SOL     OW 1986   9.541   5.437  11.655
  401SOL    HW1 1987   9.575   5.514  11.709
  401SOL    HW2 1988   9.585   5.437  11.565
  402SOL     OW 1989  10.232   4.227  17.658
  402SOL    HW1 1990  10.207   4.218  17.562
  402SOL    HW2 1991  10.280   4.145  17.689
  403SOL     OW 1992  10.169   4.680  19.482
  403SOL    HW1 1993  10.223   4.611  19.530
  403SOL    HW2 1994  10.137   4.749  19.548
  404SOL     OW 1995  10.913   4.171  21.220
  404SOL    HW1 1996  10.839   4.217  21.170
  404SOL    HW2 1997  10.964   4.239  21.273
  405SOL     OW 1998  10.960   5.444  25.601
  405SOL    HW1 1999  11.013   5.454  25.517
  405SOL    HW2 2000  10.933   5.534  25.635
  406SOL     OW 2001   9.347   5.034  27.351
  406SOL    HW1 2002   9.400   4.985  27.419
  406SOL    HW2 2003   9.369   5.132  27.356
  407SOL     OW 2004   9.512   5.871  16.395
  407SOL    HW1 2005   9.432   5.931  16.382
  407SOL    HW2 2006   9.502   5.822  16.481
  408SOL     OW 2007   9.664   7.096  27.398
  408SOL    HW1 2008   9.643   7.052  27.311
  408SOL    HW2 2009   9.761   7.122  27.401
  409SOL     OW 2010  10.591   7.793   8.392
  409SOL    HW1 2011  10.505   7.743   8.379
  409SOL    HW2 2012  10.653   7.739   8.448
  410SOL     OW 2013  11.064   8.671  18.347
  410SOL    HW1 2014  11.155   8.632  18.334
  410SOL    HW2 2015  11.072   8.767  18.371
  411SOL     OW 2016  10.613  10.148  16.801
  411SOL    HW1 2017  10.647  10.055  16.816
  411SOL    HW2 2018  10.631  10.175  16.706
  412SOL     OW 2019   9.998  10.972  22.199
  412SOL    HW1 2020   9.942  11.053  22.208
  412SOL    HW2 2021  10.050  10.976  22.113
  413SOL     OW 2022   9.769  10.462  24.948
  413SOL    HW1 2023   9.698  10.435  25.013
  413SOL    HW2 2024   9.743  10.434  24.855
  414SOL     OW 2025  10.562  12.903  17.887
  414SOL    HW1 2026  10.646  12.908  17.833
  414SOL    HW2 2027  10.539  12.807  17.905
  415SOL     OW 2028   9.774  12.915  22.668
  415SOL    HW1 2029   9.807  12.954  22.754
  415SOL    HW2 2030   9.850  12.908  22.603
  416SOL     OW 2031  10.042  13.668  15.961
  416SOL    HW1 2032  10.101  13.642  15.885
  416SOL    HW2 2033  10.014  13.764  15.950
  417SOL     OW 2034  10.857  13.256  24.074
  417SOL    HW1 2035  10.852  13.293  24.166
  417SOL    HW2 2036  10.785  13.187  24.062
  418SOL     OW 2037  10.590  13.961  26.741
  418SOL    HW1 2038  10.650  13.880  26.743
  418SOL    HW2 2039  10.630  14.030  26.681
  419SOL     OW 2040  10.169  14.408  27.947
  419SOL    HW1 2041  10.123  14.423  28.035
  419SOL    HW2 2042  10.213  14.493  27.917
  420SOL     OW 2043   9.541  16.610   4.207
  420SOL    HW1 2044   9.575  16.687   4.261
  420SOL    HW2 2045   9.585  16.610   4.117
  421SOL     OW 2046   9.507  15.873  16.161
  421SOL    HW1 2047   9.596  15.828  16.147
  421SOL    HW2 2048   9.434  15.808  16.142
  422SOL     OW 2049  10.612  15.751  24.516
  422SOL    HW1 2050  10.526  15.720  24.558
  422SOL    HW2 2051  10.608  15.737  24.417
  423SOL     OW 2052   9.565  18.107  11.462
  423SOL    HW1 2053   9.469  18.108  11.435
  423SOL    HW2 2054   9.577  18.160  11.546
  424SOL     OW 2055  10.537  18.329  21.276
  424SOL    HW1 2056  10.558  18.403  21.211
  424SOL    HW2 2057  10.605  18.329  21.349
  425SOL     OW 2058  10.612  17.614  28.240
  425SOL    HW1 2059  10.526  17.583  28.282
  425SOL    HW2 2060  10.608  17.600  28.141
  426SOL     OW 2061   9.350  19.165   1.114
  426SOL    HW1 2062   9.435  19.132   1.073
  426SOL    HW2 2063   9.363  19.180   1.212
  427SOL     OW 2064   9.814  18.671  11.050
  427SOL    HW1 2065   9.772  18.614  10.980
  427SOL    HW2 2066   9.748  18.740  11.082
  428SOL     OW 2067  10.951  19.729  13.466
  428SOL    HW1 2068  11.037  19.731  13.414
  428SOL    HW2 2069  10.965  19.776  13.554
  429SOL     OW 2070  10.333  19.387  21.449
  429SOL    HW1 2071  10.348  19.408  21.545
  429SOL    HW2 2072  10.303  19.292  21.440
  430SOL     OW 2073  10.662  20.535   5.754
  430SOL    HW1 2074  10.697  20.494   5.670
  430SOL    HW2 2075  10.572  20.497   5.774
  431SOL     OW 2076   9.774  22.226  15.219
  431SOL    HW1 2077   9.807  22.265  15.305
  431SOL    HW2 2078   9.850  22.219  15.154
  432SOL     OW 2079   9.329  20.851  17.406
  432SOL    HW1 2080   9.247  20.894  17.445
  432SOL    HW2 2081   9.301  20.778  17.343
  433SOL     OW 2082  10.582  23.790   3.004
  433SOL    HW1 2083  10.629  23.803   3.091
  433SOL    HW2 2084  10.516  23.716   3.013
  434SOL     OW 2085   9.900  23.832  20.974
  434SOL    HW1 2086   9.942  23.774  20.904
  434SOL    HW2 2087   9.856  23.911  20.930
  435SOL     OW 2088   9.627  22.596  26.008
  435SOL    HW1 2089   9.698  22.667  26.014
  435SOL    HW2 2090   9.539  22.635  26.036
  436SOL     OW 2091  11.169  25.725  16.502
  436SOL    HW1 2092  11.183  25.752  16.407
  436SOL    HW2 2093  11.252  25.747  16.555
  437SOL     OW 2094   9.562  25.771  16.641
  437SOL    HW1 2095   9.532  25.828  16.717
  437SOL    HW2 2096   9.555  25.674  16.667
  438SOL     OW 2097  10.612  25.062  15.205
  438SOL    HW1 2098  10.526  25.031  15.247
  438SOL    HW2 2099  10.608  25.048  15.106
  439SOL     OW 2100  10.897  24.986  20.291
  439SOL    HW1 2101  10.805  25.024  20.286
  439SOL    HW2 2102  10.957  25.033  20.226
  440SOL     OW 2103   9.712  24.958  27.667
  440SOL    HW1 2104   9.780  25.013  27.620
  440SOL    HW2 2105   9.752  24.870  27.694
  441SOL     OW 2106  10.770  27.574   1.339
  441SOL    HW1 2107  10.794  27.668   1.365
  441SOL    HW2 2108  10.754  27.520   1.421
  442SOL     OW 2109  10.318  27.525   7.925
  442SOL    HW1 2110  10.272  27.597   7.873
  442SOL    HW2 2111  10.314  27.545   8.023
  443SOL     OW 2112  11.038  27.004   9.302
  443SOL    HW1 2113  10.992  26.997   9.213
  443SOL    HW2 2114  10.976  27.048   9.368
  444SOL     OW 2115  10.312  26.865   8.686
  444SOL    HW1 2116  10.353  26.833   8.772
  444SOL    HW2 2117  10.216  26.838   8.683
  445SOL     OW 2118  10.581  27.866  15.487
  445SOL    HW1 2119  10.625  27.930  15.423
  445SOL    HW2 2120  10.531  27.918  15.557
  446SOL     OW 2121  11.029  26.654  22.314
  446SOL    HW1 2122  11.003  26.743  22.278
  446SOL    HW2 2123  11.027  26.586  22.241
  447SOL     OW 2124  12.472   0.453   0.691
  447SOL    HW1 2125  12.413   0.533   0.695
  447SOL    HW2 2126  12.487   0.418   0.784
  448SOL     OW 2127  12.786   1.292   3.151
  448SOL    HW1 2128  12.846   1.295   3.231
  448SOL    HW2 2129  12.711   1.356   3.164
  449SOL     OW 2130  12.601   1.173   4.591
  449SOL    HW1 2131  12.546   1.089   4.584
  449SOL    HW2 2132  12.627   1.202   4.499
  450SOL     OW 2133  11.412   1.091  10.196
  450SOL    HW1 2134  11.426   1.007  10.248
  450SOL    HW2 2135  11.357   1.155  10.251
  451SOL     OW 2136  12.060   1.514  12.367
  451SOL    HW1 2137  12.037   1.489  12.273
  451SOL    HW2 2138  12.121   1.445  12.406
  452SOL     OW 2139  11.397   0.275  15.893
  452SOL    HW1 2140  11.432   0.258  15.985
  452SOL    HW2 2141  11.309   0.230  15.881
  453SOL     OW 2142  12.836   1.280  15.553
  453SOL    HW1 2143  12.935   1.288  15.567
  453SOL    HW2 2144  12.791   1.364  15.584
  454SOL     OW 2145  12.186   2.098   8.419
  454SOL    HW1 2146  12.178   2.062   8.326
  454SOL    HW2 2147  12.184   2.022   8.484
  455SOL     OW 2148  11.676   1.912  11.050
  455SOL    HW1 2149  11.634   1.855  10.980
  455SOL    HW2 2150  11.610   1.981  11.082
  456SOL     OW 2151  12.898   1.997   9.833
  456SOL    HW1 2152  12.971   1.980   9.766
  456SOL    HW2 2153  12.867   1.910   9.871
  457SOL     OW 2154  11.833   3.652  10.263
  457SOL    HW1 2155  11.787   3.740  10.250
  457SOL    HW2 2156  11.932   3.664  10.256
  458SOL     OW 2157  12.612   2.718  12.570
  458SOL    HW1 2158  12.555   2.770  12.507
  458SOL    HW2 2159  12.708   2.730  12.546
  459SOL     OW 2160  12.236   3.209  16.237
  459SOL    HW1 2161  12.156   3.186  16.292
  459SOL    HW2 2162  12.319   3.183  16.286
  460SOL     OW 2163  11.633   3.128  20.348
  460SOL    HW1 2164  11.583   3.129  20.262
  460SOL    HW2 2165  11.570   3.110  20.424
  461SOL     OW 2166  11.738   2.399  21.348
  461SOL    HW1 2167  11.750   2.465  21.274
  461SOL    HW2 2168  11.784   2.433  21.431
  462SOL     OW 2169  12.047   3.508  20.820
  462SOL    HW1 2170  11.970   3.473  20.766
  462SOL    HW2 2171  12.015   3.579  20.882
  463SOL     OW 2172  12.107   3.960   4.204
  463SOL    HW1 2173  12.059   4.001   4.126
  463SOL    HW2 2174  12.206   3.958   4.185
  464SOL     OW 2175  12.236   5.071  19.961
  464SOL    HW1 2176  12.156   5.048  20.016
  464SOL    HW2 2177  12.319   5.045  20.010
  465SOL     OW 2178  11.427   6.934   4.014
  465SOL    HW1 2179  11.331   6.935   3.987
  465SOL    HW2 2180  11.439   6.987   4.098
  466SOL     OW 2181  11.940   6.730   6.609
  466SOL    HW1 2182  11.862   6.747   6.669
  466SOL    HW2 2183  11.974   6.817   6.573
  467SOL     OW 2184  12.424   7.317   6.714
  467SOL    HW1 2185  12.508   7.322   6.660
  467SOL    HW2 2186  12.401   7.221   6.732
  468SOL     OW 2187  11.402   6.214   9.423
  468SOL    HW1 2188  11.309   6.212   9.460
  468SOL    HW2 2189  11.403   6.175   9.331
  469SOL     OW 2190  11.786   5.708   9.427
  469SOL    HW1 2191  11.884   5.686   9.434
  469SOL    HW2 2192  11.755   5.691   9.334
  470SOL     OW 2193  12.107   5.822  11.652
  470SOL    HW1 2194  12.059   5.863  11.574
  470SOL    HW2 2195  12.206   5.820  11.633
  471SOL     OW 2196  11.762   7.073  17.250
  471SOL    HW1 2197  11.804   7.015  17.180
  471SOL    HW2 2198  11.718   7.152  17.206
  472SOL     OW 2199  12.022   6.384  22.306
  472SOL    HW1 2200  12.018   6.460  22.371
  472SOL    HW2 2201  12.044   6.420  22.215
  473SOL     OW 2202  12.748   7.248  20.790
  473SOL    HW1 2203  12.837   7.294  20.793
  473SOL    HW2 2204  12.727   7.224  20.695
  474SOL     OW 2205  11.582   6.399  23.596
  474SOL    HW1 2206  11.668   6.411  23.646
  474SOL    HW2 2207  11.540   6.312  23.623
  475SOL     OW 2208  12.465   6.814  25.630
  475SOL    HW1 2209  12.502   6.741  25.572
  475SOL    HW2 2210  12.517   6.819  25.715
  476SOL     OW 2211  12.031   8.822   9.326
  476SOL    HW1 2212  11.985   8.837   9.414
  476SOL    HW2 2213  12.075   8.907   9.296
  477SOL     OW 2214  12.638   8.038  21.475
  477SOL    HW1 2215  12.608   7.943  21.482
  477SOL    HW2 2216  12.711   8.054  21.541
  478SOL     OW 2217  11.260  11.111  13.961
  478SOL    HW1 2218  11.218  11.025  13.934
  478SOL    HW2 2219  11.354  11.114  13.927
  479SOL     OW 2220  12.475  10.148  16.801
  479SOL    HW1 2221  12.509  10.055  16.816
  479SOL    HW2 2222  12.493  10.175  16.706
  480SOL     OW 2223  12.399  10.880  19.414
  480SOL    HW1 2224  12.420  10.954  19.349
  480SOL    HW2 2225  12.467  10.880  19.487
  481SOL     OW 2226  12.102  10.988  21.948
  481SOL    HW1 2227  12.078  10.970  21.853
  481SOL    HW2 2228  12.132  11.082  21.958
  482SOL     OW 2229  11.511  11.681   4.730
  482SOL    HW1 2230  11.459  11.598   4.713
  482SOL    HW2 2231  11.588  11.686   4.666
  483SOL     OW 2232  12.622  12.392   5.357
  483SOL    HW1 2233  12.613  12.382   5.456
  483SOL    HW2 2234  12.718  12.385   5.331
  484SOL     OW 2235  12.475  12.010  24.249
  484SOL    HW1 2236  12.509  11.917  24.264
  484SOL    HW2 2237  12.493  12.037  24.154
  485SOL     OW 2238  11.833  12.962  25.160
  485SOL    HW1 2239  11.787  13.050  25.147
  485SOL    HW2 2240  11.932  12.974  25.153
  486SOL     OW 2241  11.984  14.620   2.549
  486SOL    HW1 2242  12.016  14.630   2.455
  486SOL    HW2 2243  11.905  14.558   2.551
  487SOL     OW 2244  12.031  14.408   3.740
  487SOL    HW1 2245  11.985  14.423   3.828
  487SOL    HW2 2246  12.075  14.493   3.710
  488SOL     OW 2247  11.676  13.084  18.499
  488SOL    HW1 2248  11.634  13.027  18.429
  488SOL    HW2 2249  11.610  13.153  18.531
  489SOL     OW 2250  11.251  16.137   2.515
  489SOL    HW1 2251  11.250  16.090   2.603
  489SOL    HW2 2252  11.333  16.109   2.464
  490SOL     OW 2253  12.240  16.230   6.435
  490SOL    HW1 2254  12.247  16.146   6.380
  490SOL    HW2 2255  12.302  16.299   6.399
  491SOL     OW 2256  11.544  16.185   7.076
  491SOL    HW1 2257  11.531  16.278   7.042
  491SOL    HW2 2258  11.460  16.133   7.063
  492SOL     OW 2259  12.786  16.189   6.875
  492SOL    HW1 2260  12.846  16.192   6.955
  492SOL    HW2 2261  12.711  16.253   6.888
  493SOL     OW 2262  12.846  15.779  14.288
  493SOL    HW1 2263  12.819  15.690  14.251
  493SOL    HW2 2264  12.847  15.847  14.215
  494SOL     OW 2265  12.902  15.831  16.414
  494SOL    HW1 2266  12.940  15.922  16.429
  494SOL    HW2 2267  12.894  15.814  16.315
  495SOL     OW 2268  11.302  16.691  18.610
  495SOL    HW1 2269  11.261  16.617  18.663
  495SOL    HW2 2270  11.366  16.742  18.668
  496SOL     OW 2271  11.180  16.223  20.683
  496SOL    HW1 2272  11.087  16.244  20.652
  496SOL    HW2 2273  11.190  16.124  20.696
  497SOL     OW 2274  11.582  15.709  23.596
  497SOL    HW1 2275  11.668  15.721  23.646
  497SOL    HW2 2276  11.540  15.622  23.623
  498SOL     OW 2277  12.727  18.270   6.289
  498SOL    HW1 2278  12.670  18.254   6.370
  498SOL    HW2 2279  12.668  18.280   6.209
  499SOL     OW 2280  11.770  17.488   5.856
  499SOL    HW1 2281  11.794  17.557   5.788
  499SOL    HW2 2282  11.692  17.521   5.910
  500SOL     OW 2283  11.285  17.496   9.045
  500SOL    HW1 2284  11.373  17.483   9.090
  500SOL    HW2 2285  11.272  17.593   9.023
  501SOL     OW 2286  12.474  17.614   7.757
  501SOL    HW1 2287  12.388  17.583   7.799
  501SOL    HW2 2288  12.470  17.600   7.658
  502SOL     OW 2289  11.860  18.421  14.750
  502SOL    HW1 2290  11.804  18.502  14.759
  502SOL    HW2 2291  11.912  18.425  14.664
  503SOL     OW 2292  12.523  17.349  23.778
  503SOL    HW1 2293  12.551  17.306  23.863
  503SOL    HW2 2294  12.548  17.445  23.779
  504SOL     OW 2295  12.031  19.995   1.878
  504SOL    HW1 2296  11.985  20.010   1.966
  504SOL    HW2 2297  12.075  20.080   1.848
  505SOL     OW 2298  12.727  20.132  10.013
  505SOL    HW1 2299  12.670  20.116  10.094
  505SOL    HW2 2300  12.668  20.142   9.933
  506SOL     OW 2301  12.248  19.304  10.774
  506SOL    HW1 2302  12.168  19.243  10.777
  506SOL    HW2 2303  12.329  19.251  10.750
  507SOL     OW 2304  12.765  18.842  17.641
  507SOL    HW1 2305  12.681  18.841  17.695
  507SOL    HW2 2306  12.767  18.925  17.585
  508SOL     OW 2307  11.741  19.896  23.510
  508SOL    HW1 2308  11.648  19.889  23.473
  508SOL    HW2 2309  11.752  19.985  23.554
  509SOL     OW 2310  12.519  21.542   1.234
  509SOL    HW1 2311  12.543  21.479   1.160
  509SOL    HW2 2312  12.429  21.582   1.216
  510SOL     OW 2313  12.031  21.857  16.775
  510SOL    HW1 2314  11.985  21.872  16.863
  510SOL    HW2 2315  12.075  21.942  16.745
  511SOL     OW 2316  12.088  23.255  11.463
  511SOL    HW1 2317  12.151  23.293  11.395
  511SOL    HW2 2318  12.128  23.172  11.502
  512SOL     OW 2319  11.402  22.973  22.458
  512SOL    HW1 2320  11.309  22.971  22.495
  512SOL    HW2 2321  11.403  22.934  22.366
  513SOL     OW 2322  11.539  23.445  22.846
  513SOL    HW1 2323  11.532  23.528  22.790
  513SOL    HW2 2324  11.543  23.365  22.786
  514SOL     OW 2325  12.399  25.777  15.689
  514SOL    HW1 2326  12.420  25.851  15.624
  514SOL    HW2 2327  12.467  25.777  15.762
  515SOL     OW 2328  11.844  26.272  12.661
  515SOL    HW1 2329  11.934  26.256  12.621
  515SOL    HW2 2330  11.852  26.277  12.760
  516SOL     OW 2331  11.904  26.703  15.961
  516SOL    HW1 2332  11.963  26.677  15.885
  516SOL    HW2 2333  11.876  26.799  15.950
  517SOL     OW 2334  11.645  26.569  15.087
  517SOL    HW1 2335  11.706  26.649  15.091
  517SOL    HW2 2336  11.550  26.600  15.094
  518SOL     OW 2337  11.645  26.569  20.674
  518SOL    HW1 2338  11.706  26.649  20.678
  518SOL    HW2 2339  11.550  26.600  20.681
  519SOL     OW 2340  11.511  28.440  15.903
  519SOL    HW1 2341  11.459  28.357  15.886
  519SOL    HW2 2342  11.588  28.445  15.839
  520SOL     OW 2343  14.492   0.735   4.452
  520SOL    HW1 2344  14.487   0.670   4.527
  520SOL    HW2 2345  14.572   0.794   4.465
  521SOL     OW 2346  13.705   0.464  10.579
  521SOL    HW1 2347  13.671   0.375  10.549
  521SOL    HW2 2348  13.731   0.518  10.499
  522SOL     OW 2349  14.527   3.629   8.407
  522SOL    HW1 2350  14.560   3.693   8.338
  522SOL    HW2 2351  14.593   3.623   8.482
  523SOL     OW 2352  14.169   4.427  10.027
  523SOL    HW1 2353  14.226   4.505  10.002
  523SOL    HW2 2354  14.109   4.453  10.103
  524SOL     OW 2355  13.283   5.509  18.000
  524SOL    HW1 2356  13.340   5.444  18.050
  524SOL    HW2 2357  13.267   5.476  17.907
  525SOL     OW 2358  14.424   4.299  18.699
  525SOL    HW1 2359  14.370   4.278  18.780
  525SOL    HW2 2360  14.515   4.258  18.708
  526SOL     OW 2361  14.042   7.042   0.477
  526SOL    HW1 2362  13.996   7.114   0.425
  526SOL    HW2 2363  14.038   7.062   0.575
  527SOL     OW 2364  13.900   6.040   0.642
  527SOL    HW1 2365  13.868   6.112   0.580
  527SOL    HW2 2366  13.924   5.959   0.589
  528SOL     OW 2367  14.701   7.300   2.434
  528SOL    HW1 2368  14.660   7.277   2.346
  528SOL    HW2 2369  14.683   7.226   2.499
  529SOL     OW 2370  14.396   6.730   6.131
  529SOL    HW1 2371  14.479   6.701   6.083
  529SOL    HW2 2372  14.347   6.797   6.075
  530SOL     OW 2373  14.145   7.362   5.823
  530SOL    HW1 2374  14.085   7.300   5.873
  530SOL    HW2 2375  14.176   7.318   5.738
  531SOL     OW 2376  14.616   6.225  11.644
  531SOL    HW1 2377  14.585   6.286  11.717
  531SOL    HW2 2378  14.666   6.277  11.575
  532SOL     OW 2379  14.110   6.269  25.671
  532SOL    HW1 2380  14.030   6.208  25.674
  532SOL    HW2 2381  14.191   6.216  25.647
  533SOL     OW 2382  14.858   5.778  27.296
  533SOL    HW1 2383  14.854   5.688  27.340
  533SOL    HW2 2384  14.861   5.767  27.197
  534SOL     OW 2385  14.172   7.828  22.161
  534SOL    HW1 2386  14.127   7.891  22.225
  534SOL    HW2 2387  14.265   7.859  22.144
  535SOL     OW 2388  13.856  10.312  16.269
  535SOL    HW1 2389  13.896  10.311  16.177
  535SOL    HW2 2390  13.866  10.404  16.309
  536SOL     OW 2391  13.964  10.988  20.086
  536SOL    HW1 2392  13.940  10.970  19.991
  536SOL    HW2 2393  13.994  11.082  20.096
  537SOL     OW 2394  13.264  10.744  22.883
  537SOL    HW1 2395  13.238  10.840  22.883
  537SOL    HW2 2396  13.193  10.690  22.928
  538SOL     OW 2397  13.117  10.568  27.091
  538SOL    HW1 2398  13.112  10.567  27.191
  538SOL    HW2 2399  13.034  10.527  27.053
  539SOL     OW 2400  14.145  12.948   5.823
  539SOL    HW1 2401  14.085  12.886   5.873
  539SOL    HW2 2402  14.176  12.904   5.738
  540SOL     OW 2403  14.117  12.156   9.397
  540SOL    HW1 2404  14.094  12.209   9.315
  540SOL    HW2 2405  14.198  12.100   9.378
  541SOL     OW 2406  14.394  12.034  12.217
  541SOL    HW1 2407  14.319  12.034  12.151
  541SOL    HW2 2408  14.431  11.942  12.226
  542SOL     OW 2409  13.416  11.872  13.514
  542SOL    HW1 2410  13.461  11.782  13.511
  542SOL    HW2 2411  13.322  11.861  13.547
  543SOL     OW 2412  14.308  11.558  18.021
  543SOL    HW1 2413  14.329  11.632  18.085
  543SOL    HW2 2414  14.219  11.575  17.978
  544SOL     OW 2415  14.428  11.641  22.157
  544SOL    HW1 2416  14.408  11.684  22.245
  544SOL    HW2 2417  14.506  11.579  22.166
  545SOL     OW 2418  14.637  11.619  23.082
  545SOL    HW1 2419  14.563  11.665  23.032
  545SOL    HW2 2420  14.688  11.687  23.135
  546SOL     OW 2421  13.236  13.319  20.119
  546SOL    HW1 2422  13.156  13.379  20.106
  546SOL    HW2 2423  13.226  13.270  20.205
  547SOL     OW 2424  14.500  13.624  23.337
  547SOL    HW1 2425  14.470  13.529  23.344
  547SOL    HW2 2426  14.573  13.640  23.403
  548SOL     OW 2427  14.829  14.100  26.942
  548SOL    HW1 2428  14.767  14.085  26.866
  548SOL    HW2 2429  14.777  14.111  27.027
  549SOL     OW 2430  14.308  15.282   1.262
  549SOL    HW1 2431  14.329  15.356   1.326
  549SOL    HW2 2432  14.219  15.299   1.219
  550SOL     OW 2433  14.243  15.421   2.137
  550SOL    HW1 2434  14.256  15.337   2.191
  550SOL    HW2 2435  14.214  15.495   2.197
  551SOL     OW 2436  14.762  15.832  13.026
  551SOL    HW1 2437  14.716  15.825  12.937
  551SOL    HW2 2438  14.700  15.876  13.092
  552SOL     OW 2439  14.424  17.334   9.388
  552SOL    HW1 2440  14.370  17.313   9.469
  552SOL    HW2 2441  14.515  17.293   9.397
  553SOL     OW 2442  13.584  16.955  21.368
  553SOL    HW1 2443  13.579  16.950  21.468
  553SOL    HW2 2444  13.586  17.051  21.339
  554SOL     OW 2445  14.500  20.038  12.125
  554SOL    HW1 2446  14.441  20.044  12.205
  554SOL    HW2 2447  14.485  19.950  12.079
  555SOL     OW 2448  14.581  18.843  18.488
  555SOL    HW1 2449  14.576  18.880  18.580
  555SOL    HW2 2450  14.509  18.774  18.476
  556SOL     OW 2451  14.014  22.056  12.872
  556SOL    HW1 2452  13.994  22.100  12.784
  556SOL    HW2 2453  14.053  21.965  12.856
  557SOL     OW 2454  13.654  22.269  14.473
  557SOL    HW1 2455  13.562  22.252  14.508
  557SOL    HW2 2456  13.682  22.361  14.499
  558SOL     OW 2457  14.492  21.218  15.624
  558SOL    HW1 2458  14.487  21.153  15.699
  558SOL    HW2 2459  14.572  21.277  15.637
  559SOL     OW 2460  14.422  22.056  17.236
  559SOL    HW1 2461  14.489  22.068  17.162
  559SOL    HW2 2462  14.382  22.145  17.259
  560SOL     OW 2463  14.500  22.935   4.716
  560SOL    HW1 2464  14.470  22.840   4.723
  560SOL    HW2 2465  14.573  22.951   4.782
  561SOL     OW 2466  13.373  22.854  10.316
  561SOL    HW1 2467  13.321  22.771  10.299
  561SOL    HW2 2468  13.450  22.859  10.252
  562SOL     OW 2469  13.507  22.845  15.087
  562SOL    HW1 2470  13.568  22.925  15.091
  562SOL    HW2 2471  13.412  22.876  15.094
  563SOL     OW 2472  14.684  24.065  18.153
  563SOL    HW1 2473  14.737  24.075  18.069
  563SOL    HW2 2474  14.657  24.155  18.187
  564SOL     OW 2475  14.075  23.046  22.774
  564SOL    HW1 2476  14.101  23.042  22.870
  564SOL    HW2 2477  13.990  22.995  22.760
  565SOL     OW 2478  13.522  25.592  11.346
  565SOL    HW1 2479  13.435  25.577  11.393
  565SOL    HW2 2480  13.505  25.618  11.251
  566SOL     OW 2481  13.706  25.823  15.050
  566SOL    HW1 2482  13.715  25.833  14.951
  566SOL    HW2 2483  13.666  25.734  15.071
  567SOL     OW 2484  13.110  25.018  17.548
  567SOL    HW1 2485  13.209  25.006  17.557
  567SOL    HW2 2486  13.086  25.113  17.569
  568SOL     OW 2487  13.255  25.521  24.189
  568SOL    HW1 2488  13.190  25.448  24.168
  568SOL    HW2 2489  13.259  25.535  24.287
  569SOL     OW 2490  14.286  25.555  26.457
  569SOL    HW1 2491  14.336  25.632  26.497
  569SOL    HW2 2492  14.191  25.557  26.489
  570SOL     OW 2493  14.066  26.618   5.602
  570SOL    HW1 2494  14.025  26.700   5.563
  570SOL    HW2 2495  14.130  26.644   5.675
  571SOL     OW 2496  14.014  27.185  16.616
  571SOL    HW1 2497  13.915  27.191  16.626
  571SOL    HW2 2498  14.037  27.105  16.560
  572SOL     OW 2499  14.057  26.835  15.863
  572SOL    HW1 2500  14.072  26.856  15.959
  572SOL    HW2 2501  14.027  26.740  15.854
  573SOL     OW 2502  14.259  26.394  15.345
  573SOL    HW1 2503  14.324  26.320  15.334
  573SOL    HW2 2504  14.279  26.444  15.429
  574SOL     OW 2505  14.500  27.486  19.574
  574SOL    HW1 2506  14.441  27.492  19.654
  574SOL    HW2 2507  14.485  27.398  19.528
  575SOL     OW 2508  13.264  27.503  22.883
  575SOL    HW1 2509  13.238  27.599  22.883
  575SOL    HW2 2510  13.193  27.449  22.928
  576SOL     OW 2511  13.849  28.503  11.497
  576SOL    HW1 2512  13.856  28.414  11.451
  576SOL    HW2 2513  13.755  28.537  11.489
  577SOL     OW 2514  15.711   0.572   9.635
  577SOL    HW1 2515  15.718   0.483   9.589
  577SOL    HW2 2516  15.617   0.606   9.627
  578SOL     OW 2517  15.905   1.456  13.511
  578SOL    HW1 2518  15.859   1.528  13.459
  578SOL    HW2 2519  15.901   1.476  13.609
  579SOL     OW 2520  15.423   2.118   5.914
  579SOL    HW1 2521  15.450   2.059   5.839
  579SOL    HW2 2522  15.423   2.213   5.883
  580SOL     OW 2523  16.331   3.050  13.075
  580SOL    HW1 2524  16.363   2.974  13.132
  580SOL    HW2 2525  16.239   3.077  13.105
  581SOL     OW 2526  15.510   1.984  26.186
  581SOL    HW1 2527  15.608   1.962  26.193
  581SOL    HW2 2528  15.479   1.967  26.093
  582SOL     OW 2529  16.692   6.652   4.597
  582SOL    HW1 2530  16.630   6.637   4.521
  582SOL    HW2 2531  16.640   6.663   4.682
  583SOL     OW 2532  16.024   6.927  16.587
  583SOL    HW1 2533  16.071   6.927  16.675
  583SOL    HW2 2534  15.976   6.840  16.576
  584SOL     OW 2535  15.306   6.399  16.148
  584SOL    HW1 2536  15.392   6.411  16.198
  584SOL    HW2 2537  15.264   6.312  16.175
  585SOL     OW 2538  16.625   6.521  16.751
  585SOL    HW1 2539  16.579   6.514  16.662
  585SOL    HW2 2540  16.563   6.565  16.817
  586SOL     OW 2541  15.581   6.598  19.286
  586SOL    HW1 2542  15.650   6.582  19.356
  586SOL    HW2 2543  15.508   6.655  19.324
  587SOL     OW 2544  14.974   6.142  25.593
  587SOL    HW1 2545  15.066   6.141  25.552
  587SOL    HW2 2546  14.968   6.216  25.660
  588SOL     OW 2547  15.026   9.269   1.571
  588SOL    HW1 2548  15.016   9.254   1.670
  588SOL    HW2 2549  14.940   9.305   1.535
  589SOL     OW 2550  15.755   8.404   8.309
  589SOL    HW1 2551  15.809   8.335   8.357
  589SOL    HW2 2552  15.723   8.473   8.375
  590SOL     OW 2553  15.568   8.839  10.934
  590SOL    HW1 2554  15.490   8.789  10.972
  590SOL    HW2 2555  15.565   8.934  10.965
  591SOL     OW 2556  16.651   8.671  14.622
  591SOL    HW1 2557  16.742   8.632  14.609
  591SOL    HW2 2558  16.659   8.767  14.646
  592SOL     OW 2559  15.581   8.460  15.561
  592SOL    HW1 2560  15.650   8.444  15.631
  592SOL    HW2 2561  15.508   8.517  15.599
  593SOL     OW 2562  15.837   9.146  19.525
  593SOL    HW1 2563  15.917   9.089  19.546
  593SOL    HW2 2564  15.788   9.106  19.448
  594SOL     OW 2565  16.500   7.895  24.944
  594SOL    HW1 2566  16.426   7.941  24.894
  594SOL    HW2 2567  16.551   7.963  24.997
  595SOL     OW 2568  14.933  10.620  27.351
  595SOL    HW1 2569  14.986  10.571  27.419
  595SOL    HW2 2570  14.955  10.718  27.356
  596SOL     OW 2571  15.509  12.014  10.741
  596SOL    HW1 2572  15.565  12.095  10.724
  596SOL    HW2 2573  15.568  11.934  10.744
  597SOL     OW 2574  16.124  12.722  21.989
  597SOL    HW1 2575  16.130  12.645  22.053
  597SOL    HW2 2576  16.072  12.696  21.909
  598SOL     OW 2577  15.708  12.758  24.894
  598SOL    HW1 2578  15.740  12.768  24.800
  598SOL    HW2 2579  15.629  12.696  24.896
  599SOL     OW 2580  16.355  13.769   6.314
  599SOL    HW1 2581  16.350  13.704   6.389
  599SOL    HW2 2582  16.435  13.828   6.327
  600SOL     OW 2583  15.298  13.785  10.908
  600SOL    HW1 2584  15.366  13.840  10.861
  600SOL    HW2 2585  15.338  13.697  10.935
  601SOL     OW 2586  16.564  14.748  13.606
  601SOL    HW1 2587  16.523  14.725  13.518
  601SOL    HW2 2588  16.546  14.674  13.671
  602SOL     OW 2589  16.032  13.737  15.613
  602SOL    HW1 2590  16.089  13.815  15.588
  602SOL    HW2 2591  15.972  13.763  15.689
  603SOL     OW 2592  16.297  13.141  20.909
  603SOL    HW1 2593  16.273  13.104  20.819
  603SOL    HW2 2594  16.396  13.157  20.913
  604SOL     OW 2595  16.535  14.133  23.424
  604SOL    HW1 2596  16.540  14.214  23.483
  604SOL    HW2 2597  16.449  14.135  23.373
  605SOL     OW 2598  16.149  16.245   0.388
  605SOL    HW1 2599  16.199  16.322   0.428
  605SOL    HW2 2600  16.054  16.247   0.420
  606SOL     OW 2601  15.213  15.147  22.284
  606SOL    HW1 2602  15.284  15.218  22.290
  606SOL    HW2 2603  15.125  15.186  22.312
  607SOL     OW 2604  16.739  16.664  22.704
  607SOL    HW1 2605  16.793  16.635  22.784
  607SOL    HW2 2606  16.769  16.754  22.675
  608SOL     OW 2607  16.627  17.693   5.241
  608SOL    HW1 2608  16.665  17.784   5.256
  608SOL    HW2 2609  16.619  17.676   5.142
  609SOL     OW 2610  16.473  18.421  11.479
  609SOL    HW1 2611  16.562  18.467  11.482
  609SOL    HW2 2612  16.452  18.397  11.384
  610SOL     OW 2613  15.494  17.488  15.166
  610SOL    HW1 2614  15.518  17.557  15.098
  610SOL    HW2 2615  15.416  17.521  15.220
  611SOL     OW 2616  15.247  18.560  25.060
  611SOL    HW1 2617  15.297  18.474  25.066
  611SOL    HW2 2618  15.312  18.637  25.057
  612SOL     OW 2619  15.664  19.765   4.747
  612SOL    HW1 2620  15.586  19.782   4.807
  612SOL    HW2 2621  15.698  19.852   4.711
  613SOL     OW 2622  15.703  19.226   5.189
  613SOL    HW1 2623  15.656  19.223   5.278
  613SOL    HW2 2624  15.652  19.171   5.123
  614SOL     OW 2625  15.494  19.350  11.442
  614SOL    HW1 2626  15.518  19.419  11.374
  614SOL    HW2 2627  15.416  19.383  11.496
  615SOL     OW 2628  15.026  20.415  14.885
  615SOL    HW1 2629  14.985  20.341  14.938
  615SOL    HW2 2630  15.090  20.466  14.943
  616SOL     OW 2631  16.035  19.001  16.575
  616SOL    HW1 2632  15.990  19.064  16.639
  616SOL    HW2 2633  16.128  19.032  16.558
  617SOL     OW 2634  15.018  19.264  17.322
  617SOL    HW1 2635  14.973  19.176  17.339
  617SOL    HW2 2636  15.017  19.318  17.406
  618SOL     OW 2637  15.462  19.158  23.210
  618SOL    HW1 2638  15.474  19.224  23.136
  618SOL    HW2 2639  15.508  19.192  23.293
  619SOL     OW 2640  15.213  21.030   6.866
  619SOL    HW1 2641  15.251  20.971   6.938
  619SOL    HW2 2642  15.253  21.004   6.778
  620SOL     OW 2643  14.915  20.851  15.543
  620SOL    HW1 2644  14.833  20.894  15.582
  620SOL    HW2 2645  14.887  20.778  15.480
  621SOL     OW 2646  15.826  22.161  21.948
  621SOL    HW1 2647  15.802  22.143  21.853
  621SOL    HW2 2648  15.856  22.255  21.958
  622SOL     OW 2649  16.200  21.321  24.249
  622SOL    HW1 2650  16.234  21.228  24.264
  622SOL    HW2 2651  16.218  21.348  24.154
  623SOL     OW 2652  15.357  23.611   5.451
  623SOL    HW1 2653  15.307  23.612   5.365
  623SOL    HW2 2654  15.294  23.593   5.527
  624SOL     OW 2655  15.708  23.931   8.135
  624SOL    HW1 2656  15.740  23.941   8.041
  624SOL    HW2 2657  15.629  23.869   8.137
  625SOL     OW 2658  16.149  23.693   9.698
  625SOL    HW1 2659  16.199  23.770   9.738
  625SOL    HW2 2660  16.054  23.695   9.730
  626SOL     OW 2661  15.465  23.620  21.648
  626SOL    HW1 2662  15.372  23.613  21.611
  626SOL    HW2 2663  15.476  23.709  21.692
  627SOL     OW 2664  16.602  23.832  21.587
  627SOL    HW1 2665  16.509  23.807  21.560
  627SOL    HW2 2666  16.628  23.782  21.669
  628SOL     OW 2667  16.571  23.228  23.599
  628SOL    HW1 2668  16.544  23.139  23.562
  628SOL    HW2 2669  16.572  23.296  23.526
  629SOL     OW 2670  16.347  23.565  27.702
  629SOL    HW1 2671  16.338  23.555  27.801
  629SOL    HW2 2672  16.443  23.558  27.676
  630SOL     OW 2673  16.571  25.090   8.702
  630SOL    HW1 2674  16.544  25.001   8.665
  630SOL    HW2 2675  16.572  25.158   8.629
  631SOL     OW 2676  16.484  24.986  10.980
  631SOL    HW1 2677  16.392  25.024  10.975
  631SOL    HW2 2678  16.544  25.033  10.915
  632SOL     OW 2679  16.489  25.836  14.659
  632SOL    HW1 2680  16.516  25.870  14.569
  632SOL    HW2 2681  16.568  25.798  14.705
  633SOL     OW 2682  15.502  25.171  15.019
  633SOL    HW1 2683  15.509  25.255  14.965
  633SOL    HW2 2684  15.548  25.184  15.107
  634SOL     OW 2685  15.355  25.359  15.637
  634SOL    HW1 2686  15.284  25.332  15.702
  634SOL    HW2 2687  15.329  25.331  15.544
  635SOL     OW 2688  14.960  25.771  16.228
  635SOL    HW1 2689  14.914  25.853  16.194
  635SOL    HW2 2690  15.058  25.790  16.237
  636SOL     OW 2691  15.677  24.471  20.370
  636SOL    HW1 2692  15.744  24.410  20.413
  636SOL    HW2 2693  15.604  24.490  20.435
  637SOL     OW 2694  15.718  25.209  19.993
  637SOL    HW1 2695  15.758  25.208  19.901
  637SOL    HW2 2696  15.728  25.301  20.033
  638SOL     OW 2697  16.479  24.846  20.955
  638SOL    HW1 2698  16.448  24.907  21.028
  638SOL    HW2 2699  16.529  24.898  20.886
  639SOL     OW 2700  15.018  26.712  26.632
  639SOL    HW1 2701  14.973  26.624  26.649
  639SOL    HW2 2702  15.017  26.766  26.716
  640SOL     OW 2703  16.057  28.138  21.960
  640SOL    HW1 2704  16.057  28.202  22.037
  640SOL    HW2 2705  16.085  28.186  21.877
  641SOL     OW 2706  16.989   0.628  13.147
  641SOL    HW1 2707  16.896   0.626  13.184
  641SOL    HW2 2708  16.990   0.589  13.055
  642SOL     OW 2709  17.609   0.798  14.857
  642SOL    HW1 2710  17.605   0.874  14.922
  642SOL    HW2 2711  17.631   0.834  14.766
  643SOL     OW 2712  18.487   0.935  18.613
  643SOL    HW1 2713  18.441   0.928  18.524
  643SOL    HW2 2714  18.425   0.979  18.679
  644SOL     OW 2715  16.999   1.091  25.093
  644SOL    HW1 2716  17.013   1.007  25.145
  644SOL    HW2 2717  16.944   1.155  25.148
  645SOL     OW 2718  17.263   1.568  25.117
  645SOL    HW1 2719  17.329   1.642  25.126
  645SOL    HW2 2720  17.307   1.489  25.075
  646SOL     OW 2721  18.031   1.445  27.211
  646SOL    HW1 2722  18.078   1.458  27.298
  646SOL    HW2 2723  17.965   1.371  27.220
  647SOL     OW 2724  17.078   2.672  10.259
  647SOL    HW1 2725  17.171   2.708  10.264
  647SOL    HW2 2726  17.072   2.587  10.311
  648SOL     OW 2727  18.062   2.700  18.663
  648SOL    HW1 2728  18.096   2.607  18.678
  648SOL    HW2 2729  18.080   2.727  18.568
  649SOL     OW 2730  17.379   3.648  27.508
  649SOL    HW1 2731  17.287   3.631  27.543
  649SOL    HW2 2732  17.407   3.740  27.534
  650SOL     OW 2733  17.373   3.846   7.565
  650SOL    HW1 2734  17.471   3.824   7.572
  650SOL    HW2 2735  17.342   3.829   7.472
  651SOL     OW 2736  17.353   4.469  13.686
  651SOL    HW1 2737  17.403   4.554  13.667
  651SOL    HW2 2738  17.265   4.471  13.638
  652SOL     OW 2739  17.529   5.054  22.646
  652SOL    HW1 2740  17.483   4.967  22.663
  652SOL    HW2 2741  17.620   5.051  22.687
  653SOL     OW 2742  17.056   5.621   9.481
  653SOL    HW1 2743  17.105   5.705   9.460
  653SOL    HW2 2744  17.118   5.556   9.526
  654SOL     OW 2745  18.381   5.953  15.270
  654SOL    HW1 2746  18.383   5.877  15.334
  654SOL    HW2 2747  18.333   6.030  15.310
  655SOL     OW 2748  18.433   6.469  16.151
  655SOL    HW1 2749  18.406   6.380  16.114
  655SOL    HW2 2750  18.434   6.537  16.078
  656SOL     OW 2751  17.823   6.933  18.099
  656SOL    HW1 2752  17.743   6.910  18.154
  656SOL    HW2 2753  17.906   6.907  18.148
  657SOL     OW 2754  17.870   6.781  27.169
  657SOL    HW1 2755  17.830   6.825  27.250
  657SOL    HW2 2756  17.829   6.818  27.086
  658SOL     OW 2757  16.990   9.161   9.793
  658SOL    HW1 2758  17.024   9.238   9.847
  658SOL    HW2 2759  17.034   9.161   9.703
  659SOL     OW 2760  17.444   8.460  11.837
  659SOL    HW1 2761  17.513   8.444  11.907
  659SOL    HW2 2762  17.371   8.517  11.875
  660SOL     OW 2763  17.800   8.149  22.774
  660SOL    HW1 2764  17.826   8.145  22.870
  660SOL    HW2 2765  17.715   8.098  22.760
  661SOL     OW 2766  17.218   8.600  23.086
  661SOL    HW1 2767  17.147   8.573  23.151
  661SOL    HW2 2768  17.192   8.572  22.993
  662SOL     OW 2769  18.400  10.418   0.432
  662SOL    HW1 2770  18.486  10.420   0.380
  662SOL    HW2 2771  18.414  10.465   0.520
  663SOL     OW 2772  17.161  10.061  10.908
  663SOL    HW1 2773  17.229  10.116  10.861
  663SOL    HW2 2774  17.201   9.973  10.935
  664SOL     OW 2775  17.767  10.766  11.649
  664SOL    HW1 2776  17.721  10.838  11.597
  664SOL    HW2 2777  17.763  10.786  11.747
  665SOL     OW 2778  16.989  10.744  17.297
  665SOL    HW1 2779  16.963  10.840  17.297
  665SOL    HW2 2780  16.918  10.690  17.342
  666SOL     OW 2781  17.618  10.266  17.620
  666SOL    HW1 2782  17.672  10.197  17.668
  666SOL    HW2 2783  17.586  10.335  17.686
  667SOL     OW 2784  17.014  10.658  20.773
  667SOL    HW1 2785  16.918  10.659  20.746
  667SOL    HW2 2786  17.026  10.711  20.857
  668SOL     OW 2787  18.381   9.677  26.443
  668SOL    HW1 2788  18.383   9.601  26.507
  668SOL    HW2 2789  18.333   9.754  26.483
  669SOL     OW 2790  16.989  11.800   0.113
  669SOL    HW1 2791  16.896  11.798   0.150
  669SOL    HW2 2792  16.990  11.761   0.021
  670SOL     OW 2793  16.956  12.148   4.988
  670SOL    HW1 2794  17.045  12.103   4.974
  670SOL    HW2 2795  16.883  12.083   4.969
  671SOL     OW 2796  17.647  12.686  16.092
  671SOL    HW1 2797  17.624  12.661  15.998
  671SOL    HW2 2798  17.708  12.617  16.131
  672SOL     OW 2799  17.098  11.681  15.903
  672SOL    HW1 2800  17.046  11.598  15.886
  672SOL    HW2 2801  17.175  11.686  15.839
  673SOL     OW 2802  17.986  12.742  21.276
  673SOL    HW1 2803  18.007  12.816  21.211
  673SOL    HW2 2804  18.054  12.742  21.349
  674SOL     OW 2805  18.225  11.762  27.061
  674SOL    HW1 2806  18.195  11.667  27.068
  674SOL    HW2 2807  18.298  11.778  27.127
  675SOL     OW 2808  18.400  14.142  11.604
  675SOL    HW1 2809  18.486  14.144  11.552
  675SOL    HW2 2810  18.414  14.189  11.692
  676SOL     OW 2811  18.381  13.401  13.408
  676SOL    HW1 2812  18.383  13.325  13.472
  676SOL    HW2 2813  18.333  13.478  13.448
  677SOL     OW 2814  18.464  14.521  14.138
  677SOL    HW1 2815  18.371  14.496  14.111
  677SOL    HW2 2816  18.490  14.471  14.220
  678SOL     OW 2817  18.554  14.100  23.218
  678SOL    HW1 2818  18.492  14.085  23.142
  678SOL    HW2 2819  18.502  14.111  23.303
  679SOL     OW 2820  17.377  14.601  23.629
  679SOL    HW1 2821  17.372  14.683  23.686
  679SOL    HW2 2822  17.466  14.598  23.584
  680SOL     OW 2823  18.487  15.832   5.578
  680SOL    HW1 2824  18.441  15.825   5.489
  680SOL    HW2 2825  18.425  15.876   5.644
  681SOL     OW 2826  18.153  15.365  10.984
  681SOL    HW1 2827  18.133  15.408  11.072
  681SOL    HW2 2828  18.231  15.303  10.993
  682SOL     OW 2829  18.263  18.366   0.044
  682SOL    HW1 2830  18.171  18.403   0.051
  682SOL    HW2 2831  18.301  18.386  -0.046
  683SOL     OW 2832  18.039  17.686  17.431
  683SOL    HW1 2833  18.099  17.605  17.433
  683SOL    HW2 2834  18.079  17.755  17.371
  684SOL     OW 2835  18.040  18.966   0.944
  684SOL    HW1 2836  17.954  18.916   0.931
  684SOL    HW2 2837  18.102  18.912   1.000
  685SOL     OW 2838  17.581  21.485   1.372
  685SOL    HW1 2839  17.621  21.484   1.280
  685SOL    HW2 2840  17.591  21.577   1.412
  686SOL     OW 2841  18.381  20.850  13.408
  686SOL    HW1 2842  18.383  20.774  13.472
  686SOL    HW2 2843  18.333  20.927  13.448
  687SOL     OW 2844  16.864  21.496  18.485
  687SOL    HW1 2845  16.787  21.463  18.539
  687SOL    HW2 2846  16.949  21.466  18.527
  688SOL     OW 2847  18.448  21.405  21.095
  688SOL    HW1 2848  18.543  21.376  21.103
  688SOL    HW2 2849  18.440  21.470  21.020
  689SOL     OW 2850  18.299  20.757  28.056
  689SOL    HW1 2851  18.238  20.682  28.079
  689SOL    HW2 2852  18.321  20.809  28.139
  690SOL     OW 2853  18.352  22.566   2.744
  690SOL    HW1 2854  18.268  22.565   2.798
  690SOL    HW2 2855  18.354  22.649   2.688
  691SOL     OW 2856  16.881  22.988   9.873
  691SOL    HW1 2857  16.836  22.900   9.890
  691SOL    HW2 2858  16.880  23.042   9.957
  692SOL     OW 2859  18.423  23.625  24.864
  692SOL    HW1 2860  18.522  23.633  24.878
  692SOL    HW2 2861  18.378  23.709  24.895
  693SOL     OW 2862  17.464  25.257  15.264
  693SOL    HW1 2863  17.450  25.264  15.363
  693SOL    HW2 2864  17.548  25.206  15.246
  694SOL     OW 2865  17.919  24.414  25.684
  694SOL    HW1 2866  17.919  24.478  25.761
  694SOL    HW2 2867  17.947  24.462  25.601
  695SOL     OW 2868  18.252  27.836   0.959
  695SOL    HW1 2869  18.285  27.900   0.890
  695SOL    HW2 2870  18.318  27.830   1.034
  696SOL     OW 2871  17.689  27.747   5.189
  696SOL    HW1 2872  17.665  27.729   5.094
  696SOL    HW2 2873  17.719  27.841   5.199
  697SOL     OW 2874  17.618  27.025   4.585
  697SOL    HW1 2875  17.672  26.956   4.633
  697SOL    HW2 2876  17.586  27.094   4.651
  698SOL     OW 2877  16.918  27.206   7.052
  698SOL    HW1 2878  16.940  27.145   7.128
  698SOL    HW2 2879  16.928  27.157   6.966
  699SOL     OW 2880  17.739  27.642   9.148
  699SOL    HW1 2881  17.719  27.686   9.060
  699SOL    HW2 2882  17.778  27.551   9.132
  700SOL     OW 2883  17.078  26.879  13.983
  700SOL    HW1 2884  17.171  26.915  13.988
  700SOL    HW2 2885  17.072  26.794  14.035
  701SOL     OW 2886  18.110  26.659  16.330
  701SOL    HW1 2887  18.138  26.616  16.415
  701SOL    HW2 2888  18.135  26.755  16.331
  702SOL     OW 2889  18.030  27.866  21.074
  702SOL    HW1 2890  18.074  27.930  21.010
  702SOL    HW2 2891  17.980  27.918  21.144
  703SOL     OW 2892  17.760  27.965  16.051
  703SOL    HW1 2893  17.697  27.893  16.020
  703SOL    HW2 2894  17.853  27.929  16.051
  704SOL     OW 2895  19.082   1.266   1.727
  704SOL    HW1 2896  19.032   1.267   1.641
  704SOL    HW2 2897  19.019   1.248   1.803
  705SOL     OW 2898  20.213   1.629   9.073
  705SOL    HW1 2899  20.240   1.663   8.983
  705SOL    HW2 2900  20.292   1.591   9.119
  706SOL     OW 2901  19.924   0.838   7.490
  706SOL    HW1 2902  19.958   0.745   7.505
  706SOL    HW2 2903  19.942   0.865   7.395
  707SOL     OW 2904  19.662   0.701  13.463
  707SOL    HW1 2905  19.688   0.697  13.559
  707SOL    HW2 2906  19.577   0.650  13.449
  708SOL     OW 2907  19.895   0.386  16.159
  708SOL    HW1 2908  19.916   0.460  16.223
  708SOL    HW2 2909  19.806   0.403  16.116
  709SOL     OW 2910  20.208   0.779  18.429
  709SOL    HW1 2911  20.116   0.817  18.424
  709SOL    HW2 2912  20.268   0.826  18.364
  710SOL     OW 2913  20.347   1.997   0.523
  710SOL    HW1 2914  20.420   1.980   0.456
  710SOL    HW2 2915  20.316   1.910   0.561
  711SOL     OW 2916  18.851   2.490   7.561
  711SOL    HW1 2917  18.758   2.488   7.598
  711SOL    HW2 2918  18.852   2.451   7.469
  712SOL     OW 2919  19.480   5.098  14.912
  712SOL    HW1 2920  19.434   5.113  15.000
  712SOL    HW2 2921  19.524   5.183  14.882
  713SOL     OW 2922  18.852   5.437  22.828
  713SOL    HW1 2923  18.886   5.514  22.882
  713SOL    HW2 2924  18.896   5.437  22.738
  714SOL     OW 2925  19.815   5.336  22.376
  714SOL    HW1 2926  19.821   5.243  22.413
  714SOL    HW2 2927  19.756   5.336  22.296
  715SOL     OW 2928  18.697   6.397   0.789
  715SOL    HW1 2929  18.796   6.385   0.798
  715SOL    HW2 2930  18.673   6.492   0.810
  716SOL     OW 2931  19.031   6.399   3.113
  716SOL    HW1 2932  19.117   6.411   3.163
  716SOL    HW2 2933  18.989   6.312   3.140
  717SOL     OW 2934  20.375   6.809   7.174
  717SOL    HW1 2935  20.466   6.770   7.161
  717SOL    HW2 2936  20.383   6.905   7.198
  718SOL     OW 2937  19.215   6.331   6.238
  718SOL    HW1 2938  19.265   6.416   6.219
  718SOL    HW2 2939  19.127   6.333   6.190
  719SOL     OW 2940  18.842   6.900  22.327
  719SOL    HW1 2941  18.777   6.827  22.306
  719SOL    HW2 2942  18.846   6.914  22.425
  720SOL     OW 2943  20.146   8.447   0.190
  720SOL    HW1 2944  20.083   8.371   0.203
  720SOL    HW2 2945  20.194   8.465   0.276
  721SOL     OW 2946  19.219   8.177   0.270
  721SOL    HW1 2947  19.243   8.246   0.202
  721SOL    HW2 2948  19.141   8.210   0.324
  722SOL     OW 2949  20.480   8.966  10.915
  722SOL    HW1 2950  20.494   8.993  10.820
  722SOL    HW2 2951  20.563   8.988  10.968
  723SOL     OW 2952  18.697   8.259  15.685
  723SOL    HW1 2953  18.796   8.247  15.694
  723SOL    HW2 2954  18.673   8.354  15.706
  724SOL     OW 2955  18.823   7.733  25.705
  724SOL    HW1 2956  18.743   7.793  25.692
  724SOL    HW2 2957  18.813   7.684  25.791
  725SOL     OW 2958  19.638   9.349   6.339
  725SOL    HW1 2959  19.566   9.354   6.270
  725SOL    HW2 2960  19.614   9.280   6.408
  726SOL     OW 2961  19.171   9.506  10.195
  726SOL    HW1 2962  19.166   9.501  10.295
  726SOL    HW2 2963  19.173   9.602  10.166
  727SOL     OW 2964  19.443  10.312  25.579
  727SOL    HW1 2965  19.483  10.311  25.487
  727SOL    HW2 2966  19.453  10.404  25.619
  728SOL     OW 2967  19.873  11.041  27.197
  728SOL    HW1 2968  19.957  11.046  27.143
  728SOL    HW2 2969  19.850  10.945  27.215
  729SOL     OW 2970  18.846  11.447   0.996
  729SOL    HW1 2971  18.881  11.430   1.088
  729SOL    HW2 2972  18.758  11.402   0.984
  730SOL     OW 2973  19.983  12.316   0.545
  730SOL    HW1 2974  20.066  12.287   0.497
  730SOL    HW2 2975  19.934  12.383   0.489
  731SOL     OW 2976  19.241  12.958  18.198
  731SOL    HW1 2977  19.149  12.941  18.233
  731SOL    HW2 2978  19.269  13.050  18.224
  732SOL     OW 2979  20.203  11.811  19.093
  732SOL    HW1 2980  20.172  11.872  19.166
  732SOL    HW2 2981  20.253  11.863  19.024
  733SOL     OW 2982  19.551  12.850  27.534
  733SOL    HW1 2983  19.527  12.832  27.439
  733SOL    HW2 2984  19.581  12.944  27.544
  734SOL     OW 2985  20.259  14.133   4.803
  734SOL    HW1 2986  20.264  14.214   4.862
  734SOL    HW2 2987  20.173  14.135   4.752
  735SOL     OW 2988  20.071  14.254  10.943
  735SOL    HW1 2989  20.062  14.244  11.042
  735SOL    HW2 2990  20.167  14.247  10.917
  736SOL     OW 2991  20.045  13.248  10.422
  736SOL    HW1 2992  20.097  13.183  10.477
  736SOL    HW2 2993  19.996  13.311  10.483
  737SOL     OW 2994  18.696  13.379  11.205
  737SOL    HW1 2995  18.604  13.351  11.176
  737SOL    HW2 2996  18.727  13.456  11.149
  738SOL     OW 2997  19.125  14.946   3.602
  738SOL    HW1 2998  19.083  14.889   3.532
  738SOL    HW2 2999  19.059  15.015   3.634
  739SOL     OW 3000  18.842  16.211   3.706
  739SOL    HW1 3001  18.777  16.138   3.685
  739SOL    HW2 3002  18.846  16.225   3.804
  740SOL     OW 3003  19.187  15.433  10.175
  740SOL    HW1 3004  19.199  15.499  10.101
  740SOL    HW2 3005  19.233  15.467  10.258
  741SOL     OW 3006  20.376  15.503  16.990
  741SOL    HW1 3007  20.364  15.490  16.891
  741SOL    HW2 3008  20.346  15.422  17.039
  742SOL     OW 3009  19.402  15.160  20.370
  742SOL    HW1 3010  19.469  15.099  20.413
  742SOL    HW2 3011  19.329  15.179  20.435
  743SOL     OW 3012  19.873  16.628  21.611
  743SOL    HW1 3013  19.957  16.633  21.557
  743SOL    HW2 3014  19.850  16.532  21.629
  744SOL     OW 3015  18.940  17.569   8.397
  744SOL    HW1 3016  19.033  17.605   8.402
  744SOL    HW2 3017  18.934  17.484   8.449
  745SOL     OW 3018  20.011  17.334  11.250
  745SOL    HW1 3019  19.957  17.313  11.331
  745SOL    HW2 3020  20.102  17.293  11.259
  746SOL     OW 3021  19.537  17.669  26.360
  746SOL    HW1 3022  19.600  17.707  26.292
  746SOL    HW2 3023  19.577  17.586  26.399
  747SOL     OW 3024  19.556  18.857   2.342
  747SOL    HW1 3025  19.508  18.898   2.264
  747SOL    HW2 3026  19.655  18.855   2.323
  748SOL     OW 3027  19.601  19.737   7.305
  748SOL    HW1 3028  19.502  19.743   7.315
  748SOL    HW2 3029  19.624  19.657   7.249
  749SOL     OW 3030  20.009  20.194   6.063
  749SOL    HW1 3031  20.076  20.206   5.989
  749SOL    HW2 3032  19.969  20.283   6.086
  750SOL     OW 3033  19.428  19.226  10.775
  750SOL    HW1 3034  19.381  19.223  10.864
  750SOL    HW2 3035  19.377  19.171  10.709
  751SOL     OW 3036  19.893  20.066  16.039
  751SOL    HW1 3037  19.940  20.079  16.126
  751SOL    HW2 3038  19.827  19.992  16.048
  752SOL     OW 3039  20.146  19.620  16.949
  752SOL    HW1 3040  20.083  19.544  16.962
  752SOL    HW2 3041  20.194  19.638  17.035
  753SOL     OW 3042  19.023  19.372  25.805
  753SOL    HW1 3043  19.091  19.427  25.758
  753SOL    HW2 3044  19.063  19.284  25.832
  754SOL     OW 3045  19.219  19.350  28.201
  754SOL    HW1 3046  19.243  19.419  28.133
  754SOL    HW2 3047  19.141  19.383  28.255
  755SOL     OW 3048  20.349  21.418   7.440
  755SOL    HW1 3049  20.303  21.411   7.351
  755SOL    HW2 3050  20.287  21.462   7.506
  756SOL     OW 3051  18.696  20.828   7.481
  756SOL    HW1 3052  18.604  20.800   7.452
  756SOL    HW2 3053  18.727  20.905   7.425
  757SOL     OW 3054  18.942  21.426  15.138
  757SOL    HW1 3055  19.024  21.465  15.096
  757SOL    HW2 3056  18.915  21.344  15.089
  758SOL     OW 3057  20.213  22.112  23.970
  758SOL    HW1 3058  20.240  22.146  23.880
  758SOL    HW2 3059  20.292  22.074  24.016
  759SOL     OW 3060  20.349  23.280   7.440
  759SOL    HW1 3061  20.303  23.273   7.351
  759SOL    HW2 3062  20.287  23.324   7.506
  760SOL     OW 3063  19.756  23.048   8.165
  760SOL    HW1 3064  19.813  23.126   8.140
  760SOL    HW2 3065  19.696  23.074   8.241
  761SOL     OW 3066  19.059  22.737  12.671
  761SOL    HW1 3067  19.141  22.681  12.680
  761SOL    HW2 3068  18.978  22.679  12.675
  762SOL     OW 3069  18.726  23.358  12.898
  762SOL    HW1 3070  18.649  23.325  12.952
  762SOL    HW2 3071  18.811  23.328  12.940
  763SOL     OW 3072  18.988  25.307   7.949
  763SOL    HW1 3073  18.981  25.390   7.893
  763SOL    HW2 3074  18.992  25.227   7.889
  764SOL     OW 3075  19.487  26.523   0.642
  764SOL    HW1 3076  19.455  26.595   0.580
  764SOL    HW2 3077  19.511  26.442   0.589
  765SOL     OW 3078  19.509  27.583  19.816
  765SOL    HW1 3079  19.486  27.558  19.722
  765SOL    HW2 3080  19.570  27.514  19.855
  766SOL     OW 3081  19.389  27.213  23.368
  766SOL    HW1 3082  19.311  27.230  23.428
  766SOL    HW2 3083  19.423  27.300  23.332
  767SOL     OW 3084  19.536  26.158  23.747
  767SOL    HW1 3085  19.561  26.138  23.652
  767SOL    HW2 3086  19.608  26.214  23.789
  768SOL     OW 3087  19.486  28.279  26.264
  768SOL    HW1 3088  19.545  28.342  26.215
  768SOL    HW2 3089  19.505  28.185  26.235
  769SOL     OW 3090  21.474   0.410   1.242
  769SOL    HW1 3091  21.397   0.444   1.296
  769SOL    HW2 3092  21.440   0.359   1.163
  770SOL     OW 3093  21.500   0.039  10.063
  770SOL    HW1 3094  21.428   0.044   9.994
  770SOL    HW2 3095  21.476  -0.030  10.132
  771SOL     OW 3096  20.800   0.251  14.835
  771SOL    HW1 3097  20.871   0.322  14.841
  771SOL    HW2 3098  20.712   0.290  14.863
  772SOL     OW 3099  21.594   1.776  24.444
  772SOL    HW1 3100  21.534   1.714  24.494
  772SOL    HW2 3101  21.625   1.732  24.359
  773SOL     OW 3102  21.907   2.076   6.698
  773SOL    HW1 3103  21.959   2.011   6.753
  773SOL    HW2 3104  21.858   2.139   6.759
  774SOL     OW 3105  21.474   2.272   8.690
  774SOL    HW1 3106  21.397   2.306   8.744
  774SOL    HW2 3107  21.440   2.221   8.611
  775SOL     OW 3108  21.566   2.846  24.294
  775SOL    HW1 3109  21.543   2.899  24.212
  775SOL    HW2 3110  21.647   2.790  24.275
  776SOL     OW 3111  22.115   5.101   5.667
  776SOL    HW1 3112  22.083   5.195   5.657
  776SOL    HW2 3113  22.039   5.038   5.655
  777SOL     OW 3114  21.708   4.049  19.070
  777SOL    HW1 3115  21.773   3.975  19.059
  777SOL    HW2 3116  21.728   4.099  19.154
  778SOL     OW 3117  21.456   4.614  22.055
  778SOL    HW1 3118  21.502   4.530  22.026
  778SOL    HW2 3119  21.400   4.648  21.980
  779SOL     OW 3120  21.522   4.822  24.903
  779SOL    HW1 3121  21.452   4.775  24.957
  779SOL    HW2 3122  21.581   4.754  24.860
  780SOL     OW 3123  21.423   5.422  26.973
  780SOL    HW1 3124  21.503   5.365  26.994
  780SOL    HW2 3125  21.374   5.382  26.896
  781SOL     OW 3126  21.101   5.291  27.353
  781SOL    HW1 3127  21.096   5.373  27.410
  781SOL    HW2 3128  21.190   5.288  27.308
  782SOL     OW 3129  21.547   6.933   3.202
  782SOL    HW1 3130  21.467   6.910   3.257
  782SOL    HW2 3131  21.630   6.907   3.251
  783SOL     OW 3132  21.551   8.781   4.573
  783SOL    HW1 3133  21.558   8.697   4.518
  783SOL    HW2 3134  21.613   8.850   4.537
  784SOL     OW 3135  21.708   7.773  13.483
  784SOL    HW1 3136  21.773   7.699  13.472
  784SOL    HW2 3137  21.728   7.823  13.567
  785SOL     OW 3138  20.680   8.424  18.023
  785SOL    HW1 3139  20.769   8.379  18.009
  785SOL    HW2 3140  20.607   8.359  18.004
  786SOL     OW 3141  21.551   8.781  21.332
  786SOL    HW1 3142  21.558   8.697  21.277
  786SOL    HW2 3143  21.613   8.850  21.296
  787SOL     OW 3144  21.677   9.060  24.238
  787SOL    HW1 3145  21.683   8.967  24.275
  787SOL    HW2 3146  21.618   9.060  24.158
  788SOL     OW 3147  21.484   9.344  10.464
  788SOL    HW1 3148  21.421   9.272  10.433
  788SOL    HW2 3149  21.577   9.308  10.464
  789SOL     OW 3150  21.834  11.762   1.433
  789SOL    HW1 3151  21.862  11.719   1.518
  789SOL    HW2 3152  21.859  11.858   1.434
  790SOL     OW 3153  21.456  12.062  10.882
  790SOL    HW1 3154  21.502  11.978  10.853
  790SOL    HW2 3155  21.400  12.096  10.807
  791SOL     OW 3156  21.710  12.722  10.816
  791SOL    HW1 3157  21.716  12.645  10.880
  791SOL    HW2 3158  21.658  12.696  10.736
  792SOL     OW 3159  20.885  11.923  22.081
  792SOL    HW1 3160  20.953  11.978  22.034
  792SOL    HW2 3161  20.925  11.835  22.108
  793SOL     OW 3162  21.907  13.248   8.560
  793SOL    HW1 3163  21.959  13.183   8.615
  793SOL    HW2 3164  21.858  13.311   8.621
  794SOL     OW 3165  22.121  14.133  10.389
  794SOL    HW1 3166  22.126  14.214  10.448
  794SOL    HW2 3167  22.035  14.135  10.338
  795SOL     OW 3168  21.077  13.779  11.824
  795SOL    HW1 3169  21.127  13.864  11.805
  795SOL    HW2 3170  20.989  13.781  11.776
  796SOL     OW 3171  22.278  14.100  15.769
  796SOL    HW1 3172  22.216  14.085  15.693
  796SOL    HW2 3173  22.226  14.111  15.854
  797SOL     OW 3174  21.883  13.141  17.185
  797SOL    HW1 3175  21.859  13.104  17.095
  797SOL    HW2 3176  21.982  13.157  17.189
  798SOL     OW 3177  20.562  14.274  19.274
  798SOL    HW1 3178  20.561  14.227  19.362
  798SOL    HW2 3179  20.644  14.246  19.223
  799SOL     OW 3180  21.883  15.003   7.874
  799SOL    HW1 3181  21.859  14.966   7.784
  799SOL    HW2 3182  21.982  15.019   7.878
  800SOL     OW 3183  21.835  16.811   2.030
  800SOL    HW1 3184  21.870  16.770   1.946
  800SOL    HW2 3185  21.745  16.773   2.050
  801SOL     OW 3186  22.121  17.858  10.389
  801SOL    HW1 3187  22.126  17.939  10.448
  801SOL    HW2 3188  22.035  17.860  10.338
  802SOL     OW 3189  20.558  17.104  24.240
  802SOL    HW1 3190  20.466  17.076  24.211
  802SOL    HW2 3191  20.589  17.181  24.184
  803SOL     OW 3192  20.672  19.141   1.722
  803SOL    HW1 3193  20.731  19.101   1.652
  803SOL    HW2 3194  20.614  19.212   1.681
  804SOL     OW 3195  21.052  19.896  12.337
  804SOL    HW1 3196  20.959  19.889  12.300
  804SOL    HW2 3197  21.063  19.985  12.381
  805SOL     OW 3198  22.340  19.454  11.549
  805SOL    HW1 3199  22.382  19.390  11.613
  805SOL    HW2 3200  22.302  19.403  11.471
  806SOL     OW 3201  21.155  20.237  11.326
  806SOL    HW1 3202  21.164  20.247  11.227
  806SOL    HW2 3203  21.115  20.148  11.347
  807SOL     OW 3204  20.704  19.935  14.878
  807SOL    HW1 3205  20.639  19.862  14.857
  807SOL    HW2 3206  20.708  19.949  14.976
  808SOL     OW 3207  22.211  19.556  18.613
  808SOL    HW1 3208  22.165  19.549  18.524
  808SOL    HW2 3209  22.149  19.600  18.679
  809SOL     OW 3210  20.562  19.861  21.136
  809SOL    HW1 3211  20.561  19.814  21.224
  809SOL    HW2 3212  20.644  19.833  21.085
  810SOL     OW 3213  21.907  18.835  25.319
  810SOL    HW1 3214  21.959  18.770  25.374
  810SOL    HW2 3215  21.858  18.898  25.380
  811SOL     OW 3216  21.559  19.304  27.533
  811SOL    HW1 3217  21.479  19.243  27.536
  811SOL    HW2 3218  21.640  19.251  27.509
  812SOL     OW 3219  21.763  19.548  26.741
  812SOL    HW1 3220  21.823  19.467  26.743
  812SOL    HW2 3221  21.803  19.617  26.681
  813SOL     OW 3222  22.023  20.757   1.987
  813SOL    HW1 3223  21.962  20.682   2.010
  813SOL    HW2 3224  22.045  20.809   2.070
  814SOL     OW 3225  22.213  21.417   3.379
  814SOL    HW1 3226  22.251  21.508   3.394
  814SOL    HW2 3227  22.205  21.400   3.280
  815SOL     OW 3228  22.150  22.197   6.158
  815SOL    HW1 3229  22.109  22.174   6.070
  815SOL    HW2 3230  22.132  22.123   6.223
  816SOL     OW 3231  21.056  21.353   6.615
  816SOL    HW1 3232  21.100  21.442   6.606
  816SOL    HW2 3233  20.993  21.353   6.692
  817SOL     OW 3234  21.188  21.533   7.816
  817SOL    HW1 3235  21.174  21.540   7.915
  817SOL    HW2 3236  21.272  21.482   7.798
  818SOL     OW 3237  21.496  20.588  25.977
  818SOL    HW1 3238  21.502  20.673  25.925
  818SOL    HW2 3239  21.528  20.512  25.920
  819SOL     OW 3240  21.500  22.384   2.615
  819SOL    HW1 3241  21.428  22.389   2.546
  819SOL    HW2 3242  21.476  22.315   2.684
  820SOL     OW 3243  21.418  22.581   4.204
  820SOL    HW1 3244  21.370  22.622   4.126
  820SOL    HW2 3245  21.517  22.579   4.185
  821SOL     OW 3246  21.333  23.143  12.995
  821SOL    HW1 3247  21.329  23.219  13.060
  821SOL    HW2 3248  21.355  23.179  12.904
  822SOL     OW 3249  22.237  23.568  18.347
  822SOL    HW1 3250  22.328  23.529  18.334
  822SOL    HW2 3251  22.245  23.664  18.371
  823SOL     OW 3252  21.621  24.587   5.402
  823SOL    HW1 3253  21.576  24.650   5.466
  823SOL    HW2 3254  21.714  24.618   5.385
  824SOL     OW 3255  21.188  25.257   9.678
  824SOL    HW1 3256  21.174  25.264   9.777
  824SOL    HW2 3257  21.272  25.206   9.660
  825SOL     OW 3258  20.873  25.948  27.629
  825SOL    HW1 3259  20.782  25.989  27.627
  825SOL    HW2 3260  20.866  25.854  27.661
  826SOL     OW 3261  22.342  27.587   7.191
  826SOL    HW1 3262  22.356  27.614   7.096
  826SOL    HW2 3263  22.425  27.609   7.244
  827SOL     OW 3264  20.987  27.981  22.223
  827SOL    HW1 3265  20.945  27.924  22.153
  827SOL    HW2 3266  20.921  28.050  22.255
  828SOL     OW 3267  20.555  28.097  20.801
  828SOL    HW1 3268  20.538  28.180  20.747
  828SOL    HW2 3269  20.645  28.060  20.779
  829SOL     OW 3270  21.097  28.053  22.462
  829SOL    HW1 3271  21.195  28.031  22.469
  829SOL    HW2 3272  21.066  28.036  22.369
  830SOL     OW 3273  22.428   1.258  21.505
  830SOL    HW1 3274  22.423   1.257  21.605
  830SOL    HW2 3275  22.345   1.217  21.467
  831SOL     OW 3276  23.017   3.478   9.464
  831SOL    HW1 3277  23.026   3.488   9.365
  831SOL    HW2 3278  22.977   3.389   9.485
  832SOL     OW 3279  23.325   3.435  18.459
  832SOL    HW1 3280  23.305   3.479  18.371
  832SOL    HW2 3281  23.364   3.344  18.443
  833SOL     OW 3282  22.783   2.254  20.120
  833SOL    HW1 3283  22.865   2.198  20.129
  833SOL    HW2 3284  22.702   2.196  20.124
  834SOL     OW 3285  22.712   2.962  20.984
  834SOL    HW1 3286  22.705   3.045  20.928
  834SOL    HW2 3287  22.716   2.882  20.924
  835SOL     OW 3288  22.809   3.605  28.254
  835SOL    HW1 3289  22.842   3.644  28.340
  835SOL    HW2 3290  22.885   3.598  28.189
  836SOL     OW 3291  23.033   5.386   7.302
  836SOL    HW1 3292  22.977   5.467   7.311
  836SOL    HW2 3293  23.085   5.390   7.216
  837SOL     OW 3294  23.280   3.960   7.928
  837SOL    HW1 3295  23.232   4.001   7.850
  837SOL    HW2 3296  23.379   3.958   7.909
  838SOL     OW 3297  22.712   4.824   9.811
  838SOL    HW1 3298  22.705   4.907   9.755
  838SOL    HW2 3299  22.716   4.744   9.751
  839SOL     OW 3300  23.384   4.822  15.592
  839SOL    HW1 3301  23.314   4.775  15.646
  839SOL    HW2 3302  23.443   4.754  15.549
  840SOL     OW 3303  22.712   4.824  17.260
  840SOL    HW1 3304  22.705   4.907  17.204
  840SOL    HW2 3305  22.716   4.744  17.200
  841SOL     OW 3306  22.951   6.550   7.571
  841SOL    HW1 3307  22.958   6.634   7.517
  841SOL    HW2 3308  22.997   6.563   7.659
  842SOL     OW 3309  22.652   5.649   9.928
  842SOL    HW1 3310  22.641   5.743   9.961
  842SOL    HW2 3311  22.647   5.586  10.005
  843SOL     OW 3312  23.285   7.284  12.076
  843SOL    HW1 3313  23.365   7.227  12.097
  843SOL    HW2 3314  23.236   7.244  11.999
  844SOL     OW 3315  22.680   7.021  21.544
  844SOL    HW1 3316  22.602   6.990  21.491
  844SOL    HW2 3317  22.738   7.079  21.487
  845SOL     OW 3318  23.017   7.202  20.637
  845SOL    HW1 3319  23.026   7.212  20.538
  845SOL    HW2 3320  22.977   7.113  20.658
  846SOL     OW 3321  23.714   8.398  20.281
  846SOL    HW1 3322  23.753   8.487  20.301
  846SOL    HW2 3323  23.724   8.378  20.184
  847SOL     OW 3324  22.433   9.249  21.410
  847SOL    HW1 3325  22.391   9.163  21.383
  847SOL    HW2 3326  22.527   9.252  21.376
  848SOL     OW 3327  22.918   8.318  27.098
  848SOL    HW1 3328  22.962   8.407  27.089
  848SOL    HW2 3329  22.855   8.318  27.175
  849SOL     OW 3330  23.647  10.165   2.171
  849SOL    HW1 3331  23.561  10.134   2.213
  849SOL    HW2 3332  23.643  10.151   2.072
  850SOL     OW 3333  24.019  10.193   3.116
  850SOL    HW1 3334  23.992  10.104   3.079
  850SOL    HW2 3335  24.020  10.261   3.043
  851SOL     OW 3336  24.204  10.828   5.329
  851SOL    HW1 3337  24.218  10.855   5.234
  851SOL    HW2 3338  24.287  10.850   5.382
  852SOL     OW 3339  23.714  10.260  22.143
  852SOL    HW1 3340  23.753  10.349  22.163
  852SOL    HW2 3341  23.724  10.240  22.046
  853SOL     OW 3342  23.113  10.454  25.230
  853SOL    HW1 3343  23.035  10.471  25.290
  853SOL    HW2 3344  23.147  10.541  25.194
  854SOL     OW 3345  23.017  10.701  25.831
  854SOL    HW1 3346  22.939  10.651  25.869
  854SOL    HW2 3347  23.014  10.796  25.862
  855SOL     OW 3348  23.932  11.951  10.980
  855SOL    HW1 3349  23.840  11.989  10.975
  855SOL    HW2 3350  23.992  11.998  10.915
  856SOL     OW 3351  22.755  11.985  14.285
  856SOL    HW1 3352  22.841  11.997  14.335
  856SOL    HW2 3353  22.713  11.898  14.312
  857SOL     OW 3354  23.774  12.345  15.763
  857SOL    HW1 3355  23.719  12.261  15.756
  857SOL    HW2 3356  23.800  12.374  15.671
  858SOL     OW 3357  23.472  14.375   3.552
  858SOL    HW1 3358  23.519  14.375   3.640
  858SOL    HW2 3359  23.424  14.288   3.541
  859SOL     OW 3360  23.692  14.093   4.958
  859SOL    HW1 3361  23.716  14.030   4.884
  859SOL    HW2 3362  23.602  14.133   4.940
  860SOL     OW 3363  22.421  13.845   6.375
  860SOL    HW1 3364  22.520  13.833   6.384
  860SOL    HW2 3365  22.397  13.940   6.396
  861SOL     OW 3366  23.626  13.379  15.841
  861SOL    HW1 3367  23.540  13.329  15.828
  861SOL    HW2 3368  23.688  13.325  15.897
  862SOL     OW 3369  22.818  13.534  18.812
  862SOL    HW1 3370  22.879  13.614  18.816
  862SOL    HW2 3371  22.723  13.565  18.819
  863SOL     OW 3372  23.220  16.543   2.199
  863SOL    HW1 3373  23.143  16.508   2.145
  863SOL    HW2 3374  23.188  16.614   2.261
  864SOL     OW 3375  22.585  15.988   4.610
  864SOL    HW1 3376  22.599  15.904   4.662
  864SOL    HW2 3377  22.530  16.052   4.665
  865SOL     OW 3378  23.616  16.694   6.177
  865SOL    HW1 3379  23.660  16.758   6.113
  865SOL    HW2 3380  23.566  16.746   6.247
  866SOL     OW 3381  22.684  15.405  15.903
  866SOL    HW1 3382  22.632  15.322  15.886
  866SOL    HW2 3383  22.761  15.410  15.839
  867SOL     OW 3384  23.480  15.599  17.476
  867SOL    HW1 3385  23.537  15.677  17.451
  867SOL    HW2 3386  23.420  15.625  17.552
  868SOL     OW 3387  23.648  15.734  16.801
  868SOL    HW1 3388  23.682  15.641  16.816
  868SOL    HW2 3389  23.666  15.761  16.706
  869SOL     OW 3390  22.911  15.433  23.210
  869SOL    HW1 3391  22.923  15.499  23.136
  869SOL    HW2 3392  22.957  15.467  23.293
  870SOL     OW 3393  23.017  16.288  23.969
  870SOL    HW1 3394  22.939  16.238  24.007
  870SOL    HW2 3395  23.014  16.383  24.000
  871SOL     OW 3396  23.359  15.132  27.040
  871SOL    HW1 3397  23.351  15.096  26.947
  871SOL    HW2 3398  23.357  15.056  27.105
  872SOL     OW 3399  23.938  16.980   8.330
  872SOL    HW1 3400  23.854  16.979   8.384
  872SOL    HW2 3401  23.940  17.063   8.274
  873SOL     OW 3402  22.963  20.188   1.284
  873SOL    HW1 3403  22.958  20.270   1.341
  873SOL    HW2 3404  23.052  20.185   1.239
  874SOL     OW 3405  22.570  18.896   8.444
  874SOL    HW1 3406  22.605  18.879   8.536
  874SOL    HW2 3407  22.482  18.851   8.432
  875SOL     OW 3408  23.803  19.356  17.487
  875SOL    HW1 3409  23.798  19.291  17.562
  875SOL    HW2 3410  23.883  19.415  17.500
  876SOL     OW 3411  23.995  22.203   3.256
  876SOL    HW1 3412  24.048  22.213   3.172
  876SOL    HW2 3413  23.968  22.293   3.290
  877SOL     OW 3414  23.645  20.936   2.553
  877SOL    HW1 3415  23.586  21.016   2.557
  877SOL    HW2 3416  23.660  20.901   2.646
  878SOL     OW 3417  22.872  20.739   7.776
  878SOL    HW1 3418  22.899  20.680   7.701
  878SOL    HW2 3419  22.872  20.834   7.745
  879SOL     OW 3420  23.648  21.321  20.525
  879SOL    HW1 3421  23.682  21.228  20.540
  879SOL    HW2 3422  23.666  21.348  20.430
  880SOL     OW 3423  23.336  20.893  23.587
  880SOL    HW1 3424  23.259  20.927  23.641
  880SOL    HW2 3425  23.302  20.842  23.508
  881SOL     OW 3426  23.148  21.885  25.131
  881SOL    HW1 3427  23.238  21.899  25.089
  881SOL    HW2 3428  23.077  21.887  25.060
  882SOL     OW 3429  23.358  22.450   3.632
  882SOL    HW1 3430  23.364  22.535   3.580
  882SOL    HW2 3431  23.390  22.374   3.575
  883SOL     OW 3432  23.152  24.812   1.465
  883SOL    HW1 3433  23.105  24.809   1.554
  883SOL    HW2 3434  23.101  24.757   1.399
  884SOL     OW 3435  23.779  25.395   0.041
  884SOL    HW1 3436  23.811  25.319   0.098
  884SOL    HW2 3437  23.687  25.422   0.071
  885SOL     OW 3438  22.372  25.803   5.703
  885SOL    HW1 3439  22.353  25.707   5.724
  885SOL    HW2 3440  22.339  25.861   5.778
  886SOL     OW 3441  23.647  25.062   5.895
  886SOL    HW1 3442  23.561  25.031   5.937
  886SOL    HW2 3443  23.643  25.048   5.796
  887SOL     OW 3444  23.325  25.780   9.148
  887SOL    HW1 3445  23.305  25.824   9.060
  887SOL    HW2 3446  23.364  25.689   9.132
  888SOL     OW 3447  24.204  25.725   9.053
  888SOL    HW1 3448  24.218  25.752   8.958
  888SOL    HW2 3449  24.287  25.747   9.106
  889SOL     OW 3450  22.818  24.707   7.639
  889SOL    HW1 3451  22.879  24.787   7.643
  889SOL    HW2 3452  22.723  24.738   7.646
  890SOL     OW 3453  23.570  24.532  11.621
  890SOL    HW1 3454  23.635  24.458  11.610
  890SOL    HW2 3455  23.590  24.582  11.705
  891SOL     OW 3456  23.157  25.793  13.721
  891SOL    HW1 3457  23.189  25.803  13.627
  891SOL    HW2 3458  23.078  25.731  13.723
  892SOL     OW 3459  23.707  25.351  15.441
  892SOL    HW1 3460  23.790  25.322  15.393
  892SOL    HW2 3461  23.658  25.418  15.385
  893SOL     OW 3462  22.958  25.572  19.347
  893SOL    HW1 3463  22.909  25.485  19.356
  893SOL    HW2 3464  22.935  25.615  19.260
  894SOL     OW 3465  23.838  25.974  21.442
  894SOL    HW1 3466  23.871  26.038  21.373
  894SOL    HW2 3467  23.904  25.968  21.517
  895SOL     OW 3468  23.126  26.333  12.921
  895SOL    HW1 3469  23.193  26.272  12.964
  895SOL    HW2 3470  23.053  26.352  12.986
  896SOL     OW 3471  23.811  27.486  19.574
  896SOL    HW1 3472  23.752  27.492  19.654
  896SOL    HW2 3473  23.796  27.398  19.528
  897SOL     OW 3474  25.224   0.039   6.339
  897SOL    HW1 3475  25.152   0.044   6.270
  897SOL    HW2 3476  25.200  -0.030   6.408
  898SOL     OW 3477  25.209   2.658   1.238
  898SOL    HW1 3478  25.250   2.626   1.324
  898SOL    HW2 3479  25.113   2.631   1.235
  899SOL     OW 3480  25.794   2.641   3.532
  899SOL    HW1 3481  25.702   2.679   3.527
  899SOL    HW2 3482  25.854   2.688   3.467
  900SOL     OW 3483  25.187   3.435  12.872
  900SOL    HW1 3484  25.167   3.479  12.784
  900SOL    HW2 3485  25.226   3.344  12.856
  901SOL     OW 3486  25.123   2.772  20.774
  901SOL    HW1 3487  25.186   2.810  20.706
  901SOL    HW2 3488  25.163   2.689  20.813
  902SOL     OW 3489  25.500   4.952  27.492
  902SOL    HW1 3490  25.537   4.879  27.434
  902SOL    HW2 3491  25.552   4.957  27.577
  903SOL     OW 3492  24.470   4.050  26.789
  903SOL    HW1 3493  24.391   4.101  26.755
  903SOL    HW2 3494  24.461   4.035  26.887
  904SOL     OW 3495  25.401   7.198   3.755
  904SOL    HW1 3496  25.407   7.105   3.792
  904SOL    HW2 3497  25.342   7.198   3.675
  905SOL     OW 3498  25.845   6.685  12.251
  905SOL    HW1 3499  25.850   6.766  12.310
  905SOL    HW2 3500  25.759   6.687  12.200
  906SOL     OW 3501  24.797   7.073  15.387
  906SOL    HW1 3502  24.839   7.015  15.317
  906SOL    HW2 3503  24.753   7.152  15.343
  907SOL     OW 3504  24.514   5.799  23.576
  907SOL    HW1 3505  24.491   5.836  23.666
  907SOL    HW2 3506  24.484   5.704  23.570
  908SOL     OW 3507  25.881   8.331   3.116
  908SOL    HW1 3508  25.854   8.242   3.079
  908SOL    HW2 3509  25.882   8.399   3.043
  909SOL     OW 3510  24.879   7.651  10.799
  909SOL    HW1 3511  24.969   7.635  10.759
  909SOL    HW2 3512  24.887   7.656  10.898
  910SOL     OW 3513  24.557   8.346  12.976
  910SOL    HW1 3514  24.633   8.390  13.024
  910SOL    HW2 3515  24.592   8.299  12.894
  911SOL     OW 3516  25.275   8.781  12.021
  911SOL    HW1 3517  25.282   8.697  11.966
  911SOL    HW2 3518  25.337   8.850  11.985
  912SOL     OW 3519  24.975   8.592  21.506
  912SOL    HW1 3520  24.897   8.609  21.566
  912SOL    HW2 3521  25.009   8.679  21.470
  913SOL     OW 3522  25.434  10.860  25.713
  913SOL    HW1 3523  25.440  10.783  25.777
  913SOL    HW2 3524  25.382  10.834  25.633
  914SOL     OW 3525  25.010  10.712  25.131
  914SOL    HW1 3526  25.100  10.726  25.089
  914SOL    HW2 3527  24.939  10.714  25.060
  915SOL     OW 3528  26.068  10.879  26.920
  915SOL    HW1 3529  25.997  10.867  26.850
  915SOL    HW2 3530  26.069  10.800  26.980
  916SOL     OW 3531  24.226  11.540   4.371
  916SOL    HW1 3532  24.144  11.583   4.410
  916SOL    HW2 3533  24.198  11.467   4.308
  917SOL     OW 3534  25.434  12.742   6.379
  917SOL    HW1 3535  25.455  12.816   6.314
  917SOL    HW2 3536  25.502  12.742   6.452
  918SOL     OW 3537  25.576  12.122  10.970
  918SOL    HW1 3538  25.615  12.211  10.990
  918SOL    HW2 3539  25.586  12.102  10.873
  919SOL     OW 3540  25.187  12.288  12.891
  919SOL    HW1 3541  25.088  12.294  12.901
  919SOL    HW2 3542  25.210  12.208  12.835
  920SOL     OW 3543  24.234  14.630  13.151
  920SOL    HW1 3544  24.215  14.534  13.172
  920SOL    HW2 3545  24.201  14.688  13.226
  921SOL     OW 3546  25.783  14.696  18.928
  921SOL    HW1 3547  25.872  14.742  18.931
  921SOL    HW2 3548  25.762  14.672  18.833
  922SOL     OW 3549  25.926  13.619  26.038
  922SOL    HW1 3550  25.900  13.708  26.002
  922SOL    HW2 3551  25.924  13.551  25.965
  923SOL     OW 3552  25.762  16.408   0.703
  923SOL    HW1 3553  25.705  16.392   0.784
  923SOL    HW2 3554  25.703  16.418   0.623
  924SOL     OW 3555  25.394  16.689   3.478
  924SOL    HW1 3556  25.418  16.749   3.402
  924SOL    HW2 3557  25.401  16.594   3.448
  925SOL     OW 3558  24.504  14.931  11.343
  925SOL    HW1 3559  24.553  15.015  11.322
  925SOL    HW2 3560  24.566  14.866  11.388
  926SOL     OW 3561  24.801  15.641  17.411
  926SOL    HW1 3562  24.851  15.726  17.392
  926SOL    HW2 3563  24.713  15.643  17.363
  927SOL     OW 3564  25.147  16.595  23.249
  927SOL    HW1 3565  25.227  16.538  23.270
  927SOL    HW2 3566  25.098  16.555  23.172
  928SOL     OW 3567  25.367  15.103  25.684
  928SOL    HW1 3568  25.367  15.167  25.761
  928SOL    HW2 3569  25.395  15.151  25.601
  929SOL     OW 3570  24.409  17.044   3.360
  929SOL    HW1 3571  24.329  17.104   3.347
  929SOL    HW2 3572  24.399  16.995   3.446
  930SOL     OW 3573  25.066  17.715   2.723
  930SOL    HW1 3574  25.120  17.646   2.771
  930SOL    HW2 3575  25.034  17.784   2.789
  931SOL     OW 3576  25.390  18.094   5.705
  931SOL    HW1 3577  25.291  18.083   5.707
  931SOL    HW2 3578  25.424  18.109   5.798
  932SOL     OW 3579  24.542  18.194   8.509
  932SOL    HW1 3580  24.464  18.163   8.456
  932SOL    HW2 3581  24.600  18.252   8.452
  933SOL     OW 3582  24.825  18.326  10.594
  933SOL    HW1 3583  24.820  18.408  10.651
  933SOL    HW2 3584  24.914  18.323  10.549
  934SOL     OW 3585  26.068  18.328  21.334
  934SOL    HW1 3586  25.997  18.316  21.264
  934SOL    HW2 3587  26.069  18.249  21.394
  935SOL     OW 3588  24.456  20.406   1.241
  935SOL    HW1 3589  24.513  20.341   1.291
  935SOL    HW2 3590  24.440  20.373   1.148
  936SOL     OW 3591  25.342  19.324   2.579
  936SOL    HW1 3592  25.399  19.402   2.554
  936SOL    HW2 3593  25.282  19.350   2.655
  937SOL     OW 3594  24.437  20.055  24.745
  937SOL    HW1 3595  24.411  20.151  24.745
  937SOL    HW2 3596  24.366  20.001  24.790
  938SOL     OW 3597  25.569  21.627   7.993
  938SOL    HW1 3598  25.652  21.598   7.945
  938SOL    HW2 3599  25.520  21.694   7.937
  939SOL     OW 3600  25.754  20.705  11.039
  939SOL    HW1 3601  25.749  20.742  11.131
  939SOL    HW2 3602  25.682  20.636  11.027
  940SOL     OW 3603  24.645  20.875  27.568
  940SOL    HW1 3604  24.727  20.819  27.577
  940SOL    HW2 3605  24.564  20.817  27.572
  941SOL     OW 3606  24.462  23.693   2.152
  941SOL    HW1 3607  24.366  23.694   2.125
  941SOL    HW2 3608  24.474  23.746   2.236
  942SOL     OW 3609  25.507  22.798   4.415
  942SOL    HW1 3610  25.448  22.878   4.419
  942SOL    HW2 3611  25.522  22.763   4.508
  943SOL     OW 3612  25.510  23.183   5.628
  943SOL    HW1 3613  25.544  23.090   5.643
  943SOL    HW2 3614  25.528  23.210   5.533
  944SOL     OW 3615  25.558  22.935  10.743
  944SOL    HW1 3616  25.586  22.892  10.828
  944SOL    HW2 3617  25.583  23.031  10.744
  945SOL     OW 3618  24.528  25.150   7.690
  945SOL    HW1 3619  24.610  25.189   7.648
  945SOL    HW2 3620  24.501  25.068   7.641
  946SOL     OW 3621  24.558  26.008  10.163
  946SOL    HW1 3622  24.608  25.922  10.169
  946SOL    HW2 3623  24.623  26.085  10.160
  947SOL     OW 3624  24.574  25.307  19.122
  947SOL    HW1 3625  24.567  25.390  19.066
  947SOL    HW2 3626  24.578  25.227  19.062
  948SOL     OW 3627  25.137  25.885  23.810
  948SOL    HW1 3628  25.113  25.867  23.715
  948SOL    HW2 3629  25.167  25.979  23.820
  949SOL     OW 3630  25.665  24.942  26.797
  949SOL    HW1 3631  25.660  24.877  26.872
  949SOL    HW2 3632  25.745  25.001  26.810
  950SOL     OW 3633  24.895  27.731  14.750
  950SOL    HW1 3634  24.839  27.812  14.759
  950SOL    HW2 3635  24.947  27.735  14.664
  951SOL     OW 3636  25.558  26.659  20.054
  951SOL    HW1 3637  25.586  26.616  20.139
  951SOL    HW2 3638  25.583  26.755  20.055
  952SOL     OW 3639  24.470  26.395  28.651
  952SOL    HW1 3640  24.391  26.446  28.617
  952SOL    HW2 3641  24.461  26.380  28.749
  953SOL     OW 3642  26.436   1.100  15.397
  953SOL    HW1 3643  26.429   1.183  15.341
  953SOL    HW2 3644  26.440   1.020  15.337
  954SOL     OW 3645  27.429   0.862  19.666
  954SOL    HW1 3646  27.354   0.862  19.600
  954SOL    HW2 3647  27.466   0.770  19.675
  955SOL     OW 3648  27.824   0.607  24.438
  955SOL    HW1 3649  27.812   0.594  24.339
  955SOL    HW2 3650  27.794   0.526  24.487
  956SOL     OW 3651  27.420   2.452   7.019
  956SOL    HW1 3652  27.448   2.409   7.104
  956SOL    HW2 3653  27.445   2.548   7.020
  957SOL     OW 3654  26.667   2.591   9.580
  957SOL    HW1 3655  26.691   2.660   9.512
  957SOL    HW2 3656  26.589   2.624   9.634
  958SOL     OW 3657  27.733   3.142  13.691
  958SOL    HW1 3658  27.832   3.150  13.705
  958SOL    HW2 3659  27.688   3.226  13.722
  959SOL     OW 3660  26.404   5.159   2.923
  959SOL    HW1 3661  26.326   5.128   2.870
  959SOL    HW2 3662  26.462   5.217   2.866
  960SOL     OW 3663  27.529   5.229   3.201
  960SOL    HW1 3664  27.553   5.323   3.227
  960SOL    HW2 3665  27.513   5.175   3.283
  961SOL     OW 3666  27.701   5.101   3.805
  961SOL    HW1 3667  27.669   5.195   3.795
  961SOL    HW2 3668  27.625   5.038   3.793
  962SOL     OW 3669  27.350   4.069  25.151
  962SOL    HW1 3670  27.264   4.019  25.138
  962SOL    HW2 3671  27.412   4.015  25.207
  963SOL     OW 3672  27.661   7.215   1.625
  963SOL    HW1 3673  27.688   7.249   1.535
  963SOL    HW2 3674  27.740   7.177   1.671
  964SOL     OW 3675  27.624   7.097   4.427
  964SOL    HW1 3676  27.567   7.081   4.508
  964SOL    HW2 3677  27.565   7.107   4.347
  965SOL     OW 3678  27.252   6.921  11.291
  965SOL    HW1 3679  27.153   6.910  11.293
  965SOL    HW2 3680  27.286   6.936  11.384
  966SOL     OW 3681  27.498   6.759  13.901
  966SOL    HW1 3682  27.443   6.675  13.894
  966SOL    HW2 3683  27.524   6.788  13.809
  967SOL     OW 3684  27.133   8.795   3.202
  967SOL    HW1 3685  27.053   8.772   3.257
  967SOL    HW2 3686  27.216   8.769   3.251
  968SOL     OW 3687  27.758   8.370   9.922
  968SOL    HW1 3688  27.853   8.341   9.930
  968SOL    HW2 3689  27.750   8.435   9.847
  969SOL     OW 3690  26.596   7.704  11.500
  969SOL    HW1 3691  26.623   7.645  11.425
  969SOL    HW2 3692  26.596   7.799  11.469
  970SOL     OW 3693  27.416   8.507  12.406
  970SOL    HW1 3694  27.440   8.444  12.332
  970SOL    HW2 3695  27.326   8.547  12.388
  971SOL     OW 3696  26.675   8.412  15.019
  971SOL    HW1 3697  26.682   8.496  14.965
  971SOL    HW2 3698  26.721   8.425  15.107
  972SOL     OW 3699  27.463   7.917  24.019
  972SOL    HW1 3700  27.443   7.960  24.107
  972SOL    HW2 3701  27.541   7.855  24.028
  973SOL     OW 3702  27.778   9.695   5.105
  973SOL    HW1 3703  27.851   9.764   5.109
  973SOL    HW2 3704  27.806   9.620   5.046
  974SOL     OW 3705  27.369   9.763   4.415
  974SOL    HW1 3706  27.310   9.843   4.419
  974SOL    HW2 3707  27.384   9.728   4.508
  975SOL     OW 3708  26.404  10.745  14.095
  975SOL    HW1 3709  26.326  10.714  14.042
  975SOL    HW2 3710  26.462  10.803  14.038
  976SOL     OW 3711  27.701  10.687  24.288
  976SOL    HW1 3712  27.669  10.781  24.278
  976SOL    HW2 3713  27.625  10.624  24.276
  977SOL     OW 3714  26.199  11.104  27.920
  977SOL    HW1 3715  26.158  11.030  27.973
  977SOL    HW2 3716  26.263  11.155  27.978
  978SOL     OW 3717  27.846  11.514   1.642
  978SOL    HW1 3718  27.829  11.545   1.548
  978SOL    HW2 3719  27.762  11.477   1.680
  979SOL     OW 3720  27.928  12.690   7.191
  979SOL    HW1 3721  27.942  12.717   7.096
  979SOL    HW2 3722  28.011  12.712   7.244
  980SOL     OW 3723  27.371  12.027  13.343
  980SOL    HW1 3724  27.285  11.996  13.385
  980SOL    HW2 3725  27.367  12.013  13.244
  981SOL     OW 3726  26.299  12.606  17.297
  981SOL    HW1 3727  26.273  12.702  17.297
  981SOL    HW2 3728  26.228  12.552  17.342
  982SOL     OW 3729  26.557  12.557  20.657
  982SOL    HW1 3730  26.470  12.542  20.704
  982SOL    HW2 3731  26.540  12.583  20.562
  983SOL     OW 3732  26.451  13.734   2.342
  983SOL    HW1 3733  26.496  13.644   2.339
  983SOL    HW2 3734  26.357  13.723   2.375
  984SOL     OW 3735  26.191  13.677   4.287
  984SOL    HW1 3736  26.146  13.589   4.304
  984SOL    HW2 3737  26.190  13.731   4.371
  985SOL     OW 3738  27.263  14.646   5.617
  985SOL    HW1 3739  27.269  14.553   5.654
  985SOL    HW2 3740  27.204  14.646   5.537
  986SOL     OW 3741  26.106  14.344   8.730
  986SOL    HW1 3742  26.159  14.295   8.798
  986SOL    HW2 3743  26.128  14.442   8.735
  987SOL     OW 3744  27.529  14.539  14.373
  987SOL    HW1 3745  27.553  14.633  14.399
  987SOL    HW2 3746  27.513  14.485  14.455
  988SOL     OW 3747  27.180  14.229  15.997
  988SOL    HW1 3748  27.140  14.273  16.078
  988SOL    HW2 3749  27.139  14.266  15.914
  989SOL     OW 3750  26.471  13.785  16.495
  989SOL    HW1 3751  26.539  13.840  16.448
  989SOL    HW2 3752  26.511  13.697  16.522
  990SOL     OW 3753  26.659  14.521  19.112
  990SOL    HW1 3754  26.701  14.463  19.042
  990SOL    HW2 3755  26.615  14.600  19.068
  991SOL     OW 3756  27.042  13.924  25.779
  991SOL    HW1 3757  27.088  13.840  25.750
  991SOL    HW2 3758  26.986  13.958  25.704
  992SOL     OW 3759  26.935  15.350   0.642
  992SOL    HW1 3760  26.903  15.422   0.580
  992SOL    HW2 3761  26.959  15.269   0.589
  993SOL     OW 3762  27.196  16.238   5.414
  993SOL    HW1 3763  27.243  16.238   5.502
  993SOL    HW2 3764  27.148  16.151   5.403
  994SOL     OW 3765  27.535  15.486   4.716
  994SOL    HW1 3766  27.505  15.391   4.723
  994SOL    HW2 3767  27.608  15.502   4.782
  995SOL     OW 3768  26.881  18.345   4.411
  995SOL    HW1 3769  26.913  18.355   4.317
  995SOL    HW2 3770  26.802  18.283   4.413
  996SOL     OW 3771  27.733  18.039  13.691
  996SOL    HW1 3772  27.832  18.047  13.705
  996SOL    HW2 3773  27.688  18.123  13.722
  997SOL     OW 3774  26.077  18.085  13.234
  997SOL    HW1 3775  25.984  18.106  13.203
  997SOL    HW2 3776  26.087  17.986  13.247
  998SOL     OW 3777  26.471  17.510  20.219
  998SOL    HW1 3778  26.539  17.565  20.172
  998SOL    HW2 3779  26.511  17.422  20.246
  999SOL     OW 3780  26.839  19.951   0.301
  999SOL    HW1 3781  26.793  19.864   0.318
  999SOL    HW2 3782  26.930  19.948   0.342
 1000SOL     OW 3783  26.675  19.585  13.157
 1000SOL    HW1 3784  26.682  19.669  13.103
 1000SOL    HW2 3785  26.721  19.598  13.245
 1001SOL     OW 3786  26.630  18.843  16.044
 1001SOL    HW1 3787  26.668  18.759  16.081
 1001SOL    HW2 3788  26.542  18.862  16.088
 1002SOL     OW 3789  26.419  19.519  24.149
 1002SOL    HW1 3790  26.495  19.563  24.197
 1002SOL    HW2 3791  26.454  19.472  24.067
 1003SOL     OW 3792  27.101  19.170  27.947
 1003SOL    HW1 3793  27.060  19.252  27.908
 1003SOL    HW2 3794  27.165  19.196  28.020
 1004SOL     OW 3795  26.533  22.226  20.806
 1004SOL    HW1 3796  26.566  22.265  20.892
 1004SOL    HW2 3797  26.609  22.219  20.741
 1005SOL     OW 3798  27.710  23.453  17.191
 1005SOL    HW1 3799  27.796  23.455  17.139
 1005SOL    HW2 3800  27.724  23.500  17.279
 1006SOL     OW 3801  27.795  22.480  19.144
 1006SOL    HW1 3802  27.868  22.463  19.077
 1006SOL    HW2 3803  27.764  22.393  19.182
 1007SOL     OW 3804  27.726  22.949  27.275
 1007SOL    HW1 3805  27.688  22.880  27.337
 1007SOL    HW2 3806  27.808  22.913  27.231
 1008SOL     OW 3807  27.609  24.481   5.711
 1008SOL    HW1 3808  27.548  24.406   5.734
 1008SOL    HW2 3809  27.631  24.533   5.794
 1009SOL     OW 3810  27.701  25.584   7.529
 1009SOL    HW1 3811  27.669  25.678   7.519
 1009SOL    HW2 3812  27.625  25.521   7.517
 1010SOL     OW 3813  27.204  24.910  11.889
 1010SOL    HW1 3814  27.261  24.988  11.864
 1010SOL    HW2 3815  27.144  24.936  11.965
 1011SOL     OW 3816  26.390  27.012   0.242
 1011SOL    HW1 3817  26.472  27.051   0.200
 1011SOL    HW2 3818  26.363  26.930   0.193
 1012SOL     OW 3819  27.340  27.866   2.453
 1012SOL    HW1 3820  27.384  27.930   2.389
 1012SOL    HW2 3821  27.290  27.918   2.523
 1013SOL     OW 3822  27.369  26.522   2.553
 1013SOL    HW1 3823  27.310  26.602   2.557
 1013SOL    HW2 3824  27.384  26.487   2.646
 1014SOL     OW 3825  27.083  26.305   4.695
 1014SOL    HW1 3826  27.075  26.269   4.602
 1014SOL    HW2 3827  27.081  26.229   4.760
 1015SOL     OW 3828  26.199  27.863   7.437
 1015SOL    HW1 3829  26.158  27.789   7.490
 1015SOL    HW2 3830  26.263  27.914   7.495
 1016SOL     OW 3831  26.106  27.379  25.489
 1016SOL    HW1 3832  26.159  27.330  25.557
 1016SOL    HW2 3833  26.128  27.477  25.494
 1017SOL     OW 3834  27.070  27.965  17.913
 1017SOL    HW1 3835  27.007  27.893  17.882
 1017SOL    HW2 3836  27.163  27.929  17.913
 1018SOL     OW 3837  28.303   5.012  14.524
 1018SOL    HW1 3838  28.290   5.105  14.490
 1018SOL    HW2 3839  28.219   4.960  14.511
 1019SOL     OW 3840  27.995   5.288  23.676
 1019SOL    HW1 3841  27.949   5.370  23.642
 1019SOL    HW2 3842  28.093   5.307  23.685
 1020SOL     OW 3843  28.266   5.159  27.130
 1020SOL    HW1 3844  28.188   5.128  27.077
 1020SOL    HW2 3845  28.324   5.217  27.073
 1021SOL     OW 3846  28.298   6.686   4.225
 1021SOL    HW1 3847  28.291   6.769   4.169
 1021SOL    HW2 3848  28.302   6.606   4.165
 1022SOL     OW 3849  28.282   7.387  23.198
 1022SOL    HW1 3850  28.332   7.301  23.204
 1022SOL    HW2 3851  28.347   7.464  23.195
 1023SOL     OW 3852  27.958   7.182  24.324
 1023SOL    HW1 3853  27.939   7.086  24.345
 1023SOL    HW2 3854  27.925   7.240  24.399
 1024SOL     OW 3855  28.238   7.511   4.342
 1024SOL    HW1 3856  28.227   7.605   4.375
 1024SOL    HW2 3857  28.233   7.448   4.419
 1025SOL     OW 3858  27.970   8.525   7.748
 1025SOL    HW1 3859  28.069   8.514   7.739
 1025SOL    HW2 3860  27.930   8.439   7.780
 1026SOL     OW 3861  28.003   9.476   7.766
 1026SOL    HW1 3862  27.986   9.559   7.712
 1026SOL    HW2 3863  28.093   9.439   7.744
 1027SOL     OW 3864  28.341  10.123  27.320
 1027SOL    HW1 3865  28.427  10.135  27.370
 1027SOL    HW2 3866  28.299  10.036  27.347
 1028SOL     OW 3867  28.321  12.913  10.870
 1028SOL    HW1 3868  28.230  12.954  10.868
 1028SOL    HW2 3869  28.314  12.819  10.902
 1029SOL     OW 3870  28.019  16.698   4.651
 1029SOL    HW1 3871  27.977  16.612   4.624
 1029SOL    HW2 3872  28.113  16.701   4.617
 1030SOL     OW 3873  27.950  28.299  11.819
 1030SOL    HW1 3874  27.868  28.342  11.858
 1030SOL    HW2 3875  27.922  28.226  11.756
  28.44732  28.44732  28.44732
