Generic title in water
 3319
    1PEO     C1    1   4.082   4.380  18.268
    1PEO     H3    2   4.118   4.329  18.178
    1PEO     H4    3   4.118   4.327  18.357
    1PEO      O    4   4.131   4.514  18.270
    1PEO     C2    5   4.273   4.517  18.270
    1PEO     H5    6   4.312   4.467  18.181
    1PEO     H6    7   4.312   4.465  18.358
    1PEO     C3    8   4.320   4.662  18.272
    1PEO     H7    9   4.282   4.713  18.361
    1PEO     H8   10   4.282   4.715  18.184
    1PEO     O1   11   4.463   4.664  18.272
    1PEO     C4   12   4.513   4.798  18.274
    1PEO     H9   13   4.477   4.850  18.363
    1PEO    H10   14   4.477   4.852  18.186
    1PEO     C5   15   4.665   4.794  18.274
    1PEO    H11   16   4.701   4.741  18.185
    1PEO    H12   17   4.701   4.739  18.362
    1PEO     O2   18   4.714   4.928  18.276
    1PEO     C6   19   4.857   4.930  18.276
    1PEO    H13   20   4.896   4.879  18.187
    1PEO    H14   21   4.895   4.877  18.364
    1PEO     C7   22   4.904   5.074  18.278
    1PEO    H15   23   4.865   5.125  18.367
    1PEO    H16   24   4.866   5.127  18.190
    1PEO     O3   25   5.047   5.077  18.278
    1PEO     C8   26   5.096   5.210  18.280
    1PEO    H17   27   5.060   5.263  18.369
    1PEO    H18   28   5.060   5.265  18.192
    1PEO     C9   29   5.248   5.207  18.280
    1PEO    H19   30   5.284   5.154  18.191
    1PEO    H20   31   5.284   5.152  18.368
    1PEO     O4   32   5.299   5.340  18.282
    1PEO    C10   33   5.441   5.341  18.282
    1PEO    H21   34   5.479   5.291  18.192
    1PEO    H22   35   5.478   5.289  18.370
    2PEO     C1   36   5.486   5.488  18.283
    2PEO     H3   37   5.448   5.537  18.373
    2PEO     H4   38   5.448   5.539  18.195
    2PEO      O   39   5.629   5.489  18.283
    2PEO     C2   40   5.679   5.623  18.286
    2PEO     H5   41   5.643   5.675  18.376
    2PEO     H6   42   5.643   5.678  18.199
    2PEO     C3   43   5.831   5.619  18.286
    2PEO     H7   44   5.868   5.568  18.196
    2PEO     H8   45   5.868   5.564  18.374
    2PEO     O1   46   5.881   5.753  18.289
    2PEO     C4   47   6.023   5.756  18.289
    2PEO     H9   48   6.062   5.706  18.199
    2PEO    H10   49   6.062   5.702  18.376
    2PEO     C5   50   6.070   5.900  18.292
    2PEO    H11   51   6.032   5.950  18.382
    2PEO    H12   52   6.031   5.954  18.204
    2PEO     O2   53   6.213   5.903  18.292
    2PEO     C6   54   6.262   6.037  18.294
    2PEO    H13   55   6.226   6.088  18.384
    2PEO    H14   56   6.226   6.092  18.207
    2PEO     C7   57   6.414   6.033  18.294
    2PEO    H15   58   6.450   5.982  18.205
    2PEO    H16   59   6.450   5.978  18.382
    2PEO     O3   60   6.463   6.167  18.297
    2PEO     C8   61   6.606   6.169  18.297
    2PEO    H17   62   6.644   6.119  18.207
    2PEO    H18   63   6.645   6.115  18.384
    2PEO     C9   64   6.653   6.314  18.300
    2PEO    H19   65   6.614   6.363  18.390
    2PEO    H20   66   6.614   6.367  18.213
    2PEO     O4   67   6.795   6.317  18.300
    2PEO    C10   68   6.844   6.451  18.303
    2PEO    H21   69   6.808   6.502  18.394
    2PEO    H22   70   6.808   6.506  18.215
    3PEO     C1   71   6.997   6.445  18.303
    3PEO     H3   72   7.032   6.394  18.213
    3PEO     H4   73   7.032   6.390  18.391
    3PEO      O   74   7.046   6.579  18.306
    3PEO     C2   75   7.188   6.583  18.305
    3PEO     H5   76   7.227   6.533  18.215
    3PEO     H6   77   7.228   6.529  18.392
    3PEO     C3   78   7.236   6.727  18.309
    3PEO     H7   79   7.198   6.777  18.399
    3PEO     H8   80   7.197   6.782  18.222
    3PEO     O1   81   7.378   6.729  18.307
    3PEO     C4   82   7.428   6.863  18.311
    3PEO     H9   83   7.393   6.914  18.401
    3PEO    H10   84   7.391   6.919  18.224
    3PEO     C5   85   7.580   6.859  18.309
    3PEO    H11   86   7.615   6.808  18.219
    3PEO    H12   87   7.617   6.803  18.396
    3PEO     O2   88   7.630   6.993  18.312
    3PEO     C6   89   7.772   6.995  18.311
    3PEO    H13   90   7.810   6.946  18.221
    3PEO    H14   91   7.812   6.941  18.398
    3PEO     C7   92   7.819   7.140  18.315
    3PEO    H15   93   7.782   7.189  18.405
    3PEO    H16   94   7.780   7.194  18.228
    3PEO     O3   95   7.962   7.142  18.313
    3PEO     C8   96   8.011   7.276  18.317
    3PEO    H17   97   7.976   7.327  18.407
    3PEO    H18   98   7.974   7.332  18.230
    3PEO     C9   99   8.163   7.272  18.315
    3PEO    H19  100   8.198   7.221  18.224
    3PEO    H20  101   8.200   7.216  18.401
    3PEO     O4  102   8.214   7.405  18.318
    3PEO    C10  103   8.357   7.407  18.317
    3PEO    H21  104   8.393   7.358  18.226
    3PEO    H22  105   8.395   7.353  18.404
    4PEO     C1  106   8.402   7.553  18.320
    4PEO     H3  107   8.364   7.601  18.411
    4PEO     H4  108   8.362   7.606  18.233
    4PEO      O  109   8.544   7.555  18.319
    4PEO     C2  110   8.595   7.688  18.323
    4PEO     H5  111   8.560   7.739  18.414
    4PEO     H6  112   8.558   7.745  18.237
    4PEO     C3  113   8.747   7.685  18.321
    4PEO     H7  114   8.782   7.634  18.230
    4PEO     H8  115   8.784   7.628  18.407
    4PEO     O1  116   8.796   7.819  18.325
    4PEO     C4  117   8.938   7.821  18.324
    4PEO     H9  118   8.976   7.773  18.233
    4PEO    H10  119   8.978   7.766  18.410
    4PEO     C5  120   8.985   7.966  18.329
    4PEO    H11  121   8.948   8.014  18.420
    4PEO    H12  122   8.946   8.021  18.242
    4PEO     O2  123   9.128   7.968  18.327
    4PEO     C6  124   9.177   8.102  18.331
    4PEO    H13  125   9.142   8.152  18.422
    4PEO    H14  126   9.140   8.159  18.245
    4PEO     C7  127   9.329   8.099  18.330
    4PEO    H15  128   9.364   8.048  18.239
    4PEO    H16  129   9.366   8.042  18.416
    4PEO     O3  130   9.379   8.232  18.334
    4PEO     C8  131   9.521   8.235  18.332
    4PEO    H17  132   9.559   8.186  18.241
    4PEO    H18  133   9.561   8.179  18.418
    4PEO     C9  134   9.568   8.379  18.337
    4PEO    H19  135   9.530   8.427  18.428
    4PEO    H20  136   9.528   8.434  18.251
    4PEO     O4  137   9.711   8.383  18.336
    4PEO    C10  138   9.759   8.517  18.340
    4PEO    H21  139   9.724   8.566  18.432
    4PEO    H22  140   9.722   8.572  18.253
    5PEO     C1  141   9.913   8.511  18.338
    5PEO     H3  142   9.946   8.461  18.247
    5PEO     H4  143   9.948   8.454  18.425
    5PEO      O  144   9.961   8.645  18.343
    5PEO     C2  145  10.104   8.648  18.340
    5PEO     H5  146  10.141   8.600  18.249
    5PEO     H6  147  10.144   8.593  18.426
    5PEO     C3  148  10.151   8.793  18.345
    5PEO     H7  149  10.114   8.841  18.437
    5PEO     H8  150  10.111   8.848  18.260
    5PEO     O1  151  10.294   8.795  18.343
    5PEO     C4  152  10.343   8.928  18.347
    5PEO     H9  153  10.309   8.978  18.439
    5PEO    H10  154  10.306   8.986  18.262
    5PEO     C5  155  10.495   8.925  18.344
    5PEO    H11  156  10.530   8.875  18.253
    5PEO    H12  157  10.533   8.867  18.430
    5PEO     O2  158  10.545   9.058  18.349
    5PEO     C6  159  10.687   9.060  18.346
    5PEO    H13  160  10.724   9.012  18.255
    5PEO    H14  161  10.728   9.005  18.432
    5PEO     C7  162  10.735   9.205  18.351
    5PEO    H15  163  10.698   9.253  18.443
    5PEO    H16  164  10.694   9.260  18.266
    5PEO     O3  165  10.877   9.207  18.349
    5PEO     C8  166  10.927   9.341  18.353
    5PEO    H17  167  10.892   9.391  18.445
    5PEO    H18  168  10.889   9.398  18.268
    5PEO     C9  169  11.079   9.337  18.350
    5PEO    H19  170  11.113   9.288  18.258
    5PEO    H20  171  11.116   9.280  18.435
    5PEO     O4  172  11.129   9.471  18.355
    5PEO    C10  173  11.272   9.472  18.352
    5PEO    H21  174  11.307   9.425  18.260
    5PEO    H22  175  11.311   9.417  18.438
    6PET     C9  176  11.317   9.619  18.357
    6PET     H6  177  11.280   9.665  18.449
    6PET     H7  178  11.277   9.673  18.271
    6PET     O2  179  11.459   9.620  18.354
    6PET     C8  180  11.519   9.551  18.454
    6PET     O1  181  11.464   9.491  18.544
    6PET     C4  182  11.667   9.558  18.436
    6PET     C5  183  11.725   9.630  18.331
    6PET     C6  184  11.863   9.632  18.313
    6PET     H4  185  11.904   9.688  18.230
    6PET     H3  186  11.663   9.686  18.260
    6PET     C3  187  11.750   9.489  18.526
    6PET     H2  188  11.707   9.433  18.609
    6PET     C2  189  11.889   9.491  18.508
    6PET     H1  190  11.953   9.436  18.577
    6PET     C1  191  11.946   9.561  18.401
    6PET     C7  192  12.093   9.557  18.381
    6PET     O3  193  12.170   9.498  18.455
    6PET     O4  194  12.126   9.628  18.271
    6PET    C10  195  12.265   9.635  18.238
    6PET     H8  196  12.272   9.662  18.132
    6PET     H9  197  12.312   9.536  18.249
    6PET    C11  198  12.337   9.740  18.322
    6PET    H10  199  12.443   9.741  18.296
    6PET    H11  200  12.329   9.714  18.429
    6PET    C12  201  12.277   9.879  18.303
    6PET    H13  202  12.332   9.952  18.363
    6PET    H14  203  12.172   9.882  18.333
    7PET     C9  204  12.283   9.925  18.156
    7PET     H6  205  12.227   9.856  18.093
    7PET     H7  206  12.388   9.928  18.123
    7PET     O2  207  12.226  10.055  18.150
    7PET     C8  208  12.098  10.064  18.194
    7PET     O1  209  12.030   9.972  18.237
    7PET     C4  210  12.053  10.205  18.186
    7PET     C5  211  12.136  10.306  18.134
    7PET     C6  212  12.093  10.438  18.131
    7PET     H4  213  12.161  10.514  18.092
    7PET     H3  214  12.236  10.283  18.097
    7PET     C3  215  11.924  10.239  18.231
    7PET     H2  216  11.858  10.162  18.271
    7PET     C2  217  11.881  10.372  18.228
    7PET     H1  218  11.782  10.398  18.265
    7PET     C1  219  11.966  10.473  18.179
    7PET     C7  220  11.920  10.614  18.181
    7PET     O3  221  11.810  10.649  18.221
    7PET     O4  222  12.018  10.694  18.133
    7PET    C10  223  11.989  10.834  18.128
    7PET     H8  224  12.085  10.886  18.123
    7PET     H9  225  11.940  10.867  18.220
    7PET    C11  226  11.906  10.869  18.005
    7PET    H10  227  11.884  10.976  18.005
    7PET    H11  228  11.810  10.815  18.008
    7PET    C12  229  11.977  10.831  17.875
    7PET    H13  230  11.915  10.859  17.789
    7PET    H14  231  11.995  10.723  17.870
    8PET     C9  232  12.112  10.901  17.860
    8PET     H6  233  12.178  10.873  17.943
    8PET     H7  234  12.098  11.009  17.860
    8PET     O2  235  12.169  10.858  17.736
    8PET     C8  236  12.186  10.724  17.724
    8PET     O1  237  12.159  10.640  17.808
    8PET     C4  238  12.242  10.694  17.589
    8PET     C5  239  12.272  10.797  17.498
    8PET     C6  240  12.320  10.766  17.371
    8PET     H4  241  12.341  10.848  17.303
    8PET     H3  242  12.257  10.901  17.525
    8PET     C3  243  12.263  10.561  17.552
    8PET     H2  244  12.240  10.480  17.622
    8PET     C2  245  12.311  10.530  17.424
    8PET     H1  246  12.326  10.426  17.396
    8PET     C1  247  12.338  10.633  17.333
    8PET     C7  248  12.385  10.597  17.196
    8PET     O3  249  12.403  10.484  17.158
    8PET     O4  250  12.402  10.711  17.123
    8PET    C10  251  12.447  10.694  16.989
    8PET     H8  252  12.421  10.786  16.935
    8PET     H9  253  12.393  10.612  16.940
    8PET    C11  254  12.598  10.673  16.984
    8PET    H10  255  12.629  10.659  16.880
    8PET    H11  256  12.625  10.582  17.039
    8PET    C12  257  12.675  10.790  17.045
    8PET    H13  258  12.782  10.772  17.037
    8PET    H14  259  12.650  10.803  17.150
    9PET     C9  260  12.645  10.923  16.974
    9PET     H6  261  12.538  10.945  16.982
    9PET     H7  262  12.673  10.916  16.869
    9PET     O2  263  12.721  11.024  17.039
    9PET     C8  264  12.697  11.037  17.172
    9PET     O1  265  12.618  10.973  17.238
    9PET     C4  266  12.787  11.143  17.227
    9PET     C5  267  12.875  11.214  17.144
    9PET     C6  268  12.961  11.310  17.198
    9PET     H4  269  13.028  11.362  17.131
    9PET     H3  270  12.879  11.196  17.037
    9PET     C3  271  12.784  11.171  17.364
    9PET     H2  272  12.715  11.117  17.430
    9PET     C2  273  12.870  11.267  17.418
    9PET     H1  274  12.867  11.287  17.526
    9PET     C1  275  12.960  11.336  17.336
    9PET     C7  276  13.054  11.434  17.397
    9PET     O3  277  13.056  11.461  17.515
    9PET     O4  278  13.133  11.486  17.300
    9PET    C10  279  13.230  11.583  17.342
    9PET     H8  280  13.307  11.587  17.265
    9PET     H9  281  13.279  11.551  17.435
    9PET    C11  282  13.165  11.721  17.358
    9PET    H10  283  13.241  11.792  17.392
    9PET    H11  284  13.087  11.717  17.435
    9PET    C12  285  13.103  11.770  17.229
    9PET    H13  286  13.060  11.870  17.243
    9PET    H14  287  13.023  11.704  17.195
   10PET     C9  288  13.205  11.780  17.114
   10PET     H6  289  13.248  11.681  17.095
   10PET     H7  290  13.284  11.850  17.142
   10PET     O2  291  13.136  11.827  16.999
   10PET     C8  292  13.031  11.750  16.959
   10PET     O1  293  12.993  11.647  17.012
   10PET     C4  294  12.966  11.813  16.841
   10PET     C5  295  13.016  11.932  16.785
   10PET     C6  296  12.952  11.992  16.677
   10PET     H4  297  12.993  12.084  16.637
   10PET     H3  298  13.105  11.980  16.825
   10PET     C3  299  12.852  11.754  16.786
   10PET     H2  300  12.812  11.662  16.828
   10PET     C2  301  12.787  11.814  16.677
   10PET     H1  302  12.698  11.768  16.636
   10PET     C1  303  12.836  11.934  16.623
   10PET     C7  304  12.762  11.998  16.511
   10PET     O3  305  12.662  11.952  16.460
   10PET     O4  306  12.824  12.114  16.477
   10PET    C10  307  12.766  12.188  16.370
   10PET     H8  308  12.802  12.291  16.379
   10PET     H9  309  12.657  12.192  16.380
   10PET    C11  310  12.807  12.131  16.234
   10PET    H10  311  12.759  12.189  16.155
   10PET    H11  312  12.772  12.027  16.225
   10PET    C12  313  12.958  12.132  16.215
   10PET    H13  314  12.983  12.092  16.116
   10PET    H14  315  13.008  12.070  16.290
   11PET     C9  316  13.018  12.273  16.225
   11PET     H6  317  12.996  12.315  16.324
   11PET     H7  318  12.974  12.337  16.148
   11PET     O2  319  13.158  12.262  16.206
   11PET     C8  320  13.222  12.180  16.293
   11PET     O1  321  13.171  12.118  16.384
   11PET     C4  322  13.367  12.175  16.258
   11PET     C5  323  13.419  12.250  16.152
   11PET     C6  324  13.554  12.240  16.118
   11PET     H4  325  13.591  12.299  16.035
   11PET     H3  326  13.356  12.316  16.093
   11PET     C3  327  13.452  12.091  16.332
   11PET     H2  328  13.413  12.033  16.415
   11PET     C2  329  13.587  12.082  16.298
   11PET     H1  330  13.653  12.016  16.356
   11PET     C1  331  13.639  12.155  16.190
   11PET     C7  332  13.782  12.139  16.154
   11PET     O3  333  13.860  12.068  16.213
   11PET     O4  334  13.809  12.216  16.045
   11PET    C10  335  13.944  12.212  15.997
   11PET     H8  336  13.941  12.247  15.893
   11PET     H9  337  13.981  12.109  15.995
   11PET    C11  338  14.034  12.304  16.079
   11PET    H10  339  14.136  12.298  16.041
   11PET    H11  340  14.036  12.270  16.184
   11PET    C12  341  13.987  12.448  16.076
   11PET    H13  342  14.055  12.511  16.134
   11PET    H14  343  13.887  12.459  16.119
   12PET     C9  344  13.982  12.506  15.934
   12PET     H6  345  13.912  12.447  15.873
   12PET     H7  346  14.081  12.502  15.889
   12PET     O2  347  13.937  12.641  15.943
   12PET     C8  348  13.816  12.657  16.003
   12PET     O1  349  13.744  12.569  16.046
   12PET     C4  350  13.784  12.802  16.009
   12PET     C5  351  13.871  12.898  15.956
   12PET     C6  352  13.842  13.034  15.967
   12PET     H4  353  13.912  13.106  15.925
   12PET     H3  354  13.963  12.869  15.906
   12PET     C3  355  13.666  12.844  16.072
   12PET     H2  356  13.597  12.770  16.114
   12PET     C2  357  13.636  12.980  16.083
   12PET     H1  358  13.544  13.011  16.133
   12PET     C1  359  13.725  13.076  16.032
   12PET     C7  360  13.693  13.220  16.049
   12PET     O3  361  13.593  13.262  16.104
   12PET     O4  362  13.793  13.295  15.996
   12PET    C10  363  13.778  13.437  16.004
   12PET     H8  364  13.878  13.480  15.992
   12PET     H9  365  13.742  13.466  16.103
   12PET    C11  366  13.685  13.488  15.894
   12PET    H10  367  13.674  13.597  15.904
   12PET    H11  368  13.585  13.444  15.905
   12PET    C12  369  13.737  13.455  15.755
   12PET    H13  370  13.669  13.496  15.679
   12PET    H14  371  13.744  13.347  15.740
   13PET     C9  372  13.877  13.513  15.728
   13PET     H6  373  13.948  13.473  15.801
   13PET     H7  374  13.873  13.622  15.738
   13PET     O2  375  13.915  13.476  15.596
   13PET     C8  376  13.917  13.342  15.573
   13PET     O1  377  13.891  13.254  15.653
   13PET     C4  378  13.954  13.318  15.431
   13PET     C5  379  13.984  13.425  15.344
   13PET     C6  380  14.014  13.400  15.210
   13PET     H4  381  14.036  13.485  15.146
   13PET     H3  382  13.983  13.528  15.379
   13PET     C3  383  13.957  13.187  15.382
   13PET     H2  384  13.935  13.103  15.448
   13PET     C2  385  13.988  13.163  15.247
   13PET     H1  386  13.989  13.060  15.210
   13PET     C1  387  14.015  13.270  15.161
   13PET     C7  388  14.042  13.241  15.017
   13PET     O3  389  14.045  13.130  14.969
   13PET     O4  390  14.062  13.358  14.951
   13PET    C10  391  14.091  13.348  14.811
   13PET     H8  392  14.068  13.446  14.768
   13PET     H9  393  14.024  13.276  14.764
   13PET    C11  394  14.237  13.314  14.787
   13PET    H10  395  14.255  13.306  14.680
   13PET    H11  396  14.261  13.217  14.832
   13PET    C12  397  14.331  13.418  14.847
   13PET    H13  398  14.435  13.391  14.826
   13PET    H14  399  14.320  13.425  14.955
   14PET     C9  400  14.307  13.558  14.790
   14PET     H6  401  14.205  13.590  14.812
   14PET     H7  402  14.322  13.557  14.682
   14PET     O2  403  14.400  13.647  14.852
   14PET     C8  404  14.392  13.651  14.987
   14PET     O1  405  14.315  13.590  15.058
   14PET     C4  406  14.497  13.744  15.039
   14PET     C5  407  14.583  13.813  14.951
   14PET     C6  408  14.683  13.896  15.001
   14PET     H4  409  14.748  13.947  14.931
   14PET     H3  410  14.573  13.803  14.844
   14PET     C3  411  14.512  13.761  15.177
   14PET     H2  412  14.447  13.708  15.246
   14PET     C2  413  14.613  13.844  15.227
   14PET     H1  414  14.625  13.855  15.335
   14PET     C1  415  14.700  13.911  15.140
   14PET     C7  416  14.809  13.995  15.196
   14PET     O3  417  14.827  14.012  15.315
   14PET     O4  418  14.882  14.047  15.095
   14PET    C10  419  14.992  14.131  15.132
   14PET     H8  420  15.060  14.134  15.046
   14PET     H9  421  15.048  14.087  15.215
   14PET    C11  422  14.944  14.272  15.165
   14PET    H10  423  15.029  14.334  15.194
   14PET    H11  424  14.874  14.269  15.249
   14PET    C12  425  14.873  14.338  15.047
   14PET    H13  426  14.842  14.439  15.073
   14PET    H14  427  14.783  14.282  15.018
   15PET     C9  428  14.962  14.347  14.922
   15PET     H6  429  14.992  14.247  14.891
   15PET     H7  430  15.050  14.407  14.945
   15PET     O2  431  14.885  14.410  14.819
   15PET     C8  432  14.770  14.346  14.787
   15PET     O1  433  14.728  14.243  14.836
   15PET     C4  434  14.699  14.424  14.682
   15PET     C5  435  14.754  14.542  14.629
   15PET     C6  436  14.684  14.616  14.534
   15PET     H4  437  14.729  14.707  14.496
   15PET     H3  438  14.851  14.578  14.661
   15PET     C3  439  14.574  14.380  14.637
   15PET     H2  440  14.530  14.288  14.676
   15PET     C2  441  14.504  14.454  14.541
   15PET     H1  442  14.406  14.419  14.507
   15PET     C1  443  14.558  14.573  14.490
   15PET     C7  444  14.479  14.652  14.392
   15PET     O3  445  14.370  14.620  14.350
   15PET     O4  446  14.548  14.764  14.359
   15PET    C10  447  14.486  14.852  14.265
   15PET     H8  448  14.533  14.950  14.277
   15PET     H9  449  14.379  14.865  14.288
   15PET    C11  450  14.506  14.802  14.122
   15PET    H10  451  14.456  14.871  14.052
   15PET    H11  452  14.460  14.704  14.110
   15PET    C12  453  14.653  14.791  14.085
   15PET    H13  454  14.663  14.758  13.981
   15PET    H14  455  14.705  14.719  14.149
   16PET     C9  456  14.727  14.925  14.098
   16PET     H6  457  14.721  14.961  14.201
   16PET     H7  458  14.681  14.999  14.031
   16PET     O2  459  14.863  14.903  14.061
   16PET     C8  460  14.927  14.809  14.135
   16PET     O1  461  14.881  14.745  14.227
   16PET     C4  462  15.066  14.793  14.083
   16PET     C5  463  15.114  14.872  13.977
   16PET     C6  464  15.242  14.852  13.927
   16PET     H4  465  15.275  14.914  13.844
   16PET     H3  466  15.051  14.948  13.930
   16PET     C3  467  15.150  14.697  14.140
   16PET     H2  468  15.115  14.636  14.223
   16PET     C2  469  15.280  14.678  14.090
   16PET     H1  470  15.344  14.602  14.135
   16PET     C1  471  15.326  14.755  13.982
   16PET     C7  472  15.462  14.729  13.928
   16PET     O3  473  15.538  14.646  13.973
   16PET     O4  474  15.484  14.811  13.822
   16PET    C10  475  15.612  14.799  13.758
   16PET     H8  476  15.601  14.842  13.658
   16PET     H9  477  15.639  14.694  13.745
   16PET    C11  478  15.719  14.875  13.836
   16PET    H10  479  15.816  14.863  13.785
   16PET    H11  480  15.729  14.833  13.937
   16PET    C12  481  15.687  15.023  13.848
   16PET    H13  482  15.767  15.075  13.902
   16PET    H14  483  15.594  15.040  13.904
   17PET     C9  484  15.671  15.092  13.712
   17PET     H6  485  15.590  15.045  13.656
   17PET     H7  486  15.764  15.083  13.655
   17PET     O2  487  15.642  15.229  13.736
   17PET     C8  488  15.530  15.252  13.810
   17PET     O1  489  15.456  15.167  13.856
   17PET     C4  490  15.514  15.398  13.831
   17PET     C5  491  15.603  15.490  13.774
   17PET     C6  492  15.589  15.627  13.798
   17PET     H4  493  15.661  15.695  13.754
   17PET     H3  494  15.686  15.457  13.712
   17PET     C3  495  15.408  15.445  13.910
   17PET     H2  496  15.337  15.375  13.954
   17PET     C2  497  15.393  15.582  13.934
   17PET     H1  498  15.311  15.618  13.996
   17PET     C1  499  15.485  15.674  13.879
   17PET     C7  500  15.470  15.818  13.910
   17PET     O3  501  15.381  15.864  13.979
   17PET     O4  502  15.570  15.888  13.851
   17PET    C10  503  15.570  16.030  13.870
   17PET     H8  504  15.672  16.064  13.849
   17PET     H9  505  15.549  16.054  13.975
   17PET    C11  506  15.471  16.098  13.776
   17PET    H10  507  15.472  16.206  13.794
   17PET    H11  508  15.370  16.062  13.795
   17PET    C12  509  15.504  16.071  13.630
   17PET    H13  510  15.433  16.124  13.565
   17PET    H14  511  15.498  15.964  13.606
   18PET     C9  512  15.645  16.118  13.591
   18PET     H6  513  15.719  16.066  13.652
   18PET     H7  514  15.653  16.226  13.608
   18PET     O2  515  15.664  16.088  13.453
   18PET     C8  516  15.650  15.958  13.421
   18PET     O1  517  15.625  15.866  13.496
   18PET     C4  518  15.669  15.942  13.273
   18PET     C5  519  15.700  16.052  13.192
   18PET     C6  520  15.712  16.036  13.054
   18PET     H4  521  15.735  16.123  12.994
   18PET     H3  522  15.713  16.151  13.234
   18PET     C3  523  15.654  15.815  13.216
   18PET     H2  524  15.631  15.729  13.278
   18PET     C2  525  15.667  15.799  13.077
   18PET     H1  526  15.654  15.700  13.033
   18PET     C1  527  15.695  15.910  12.995
   18PET     C7  528  15.703  15.891  12.848
   18PET     O3  529  15.690  15.783  12.793
   18PET     O4  530  15.727  16.010  12.789
   18PET    C10  531  15.739  16.009  12.646
   18PET     H8  532  15.721  16.112  12.612
   18PET     H9  533  15.660  15.947  12.602
   18PET    C11  534  15.878  15.963  12.603
   18PET    H10  535  15.883  15.962  12.493
   18PET    H11  536  15.896  15.861  12.638
   18PET    C12  537  15.987  16.054  12.657
   18PET    H13  538  16.085  16.019  12.622
   18PET    H14  539  15.989  16.053  12.767
   19PET     C9  540  15.971  16.200  12.614
   19PET     H6  541  15.875  16.238  12.650
   19PET     H7  542  15.974  16.206  12.505
   19PET     O2  543  16.079  16.274  12.671
   19PET     C8  544  16.087  16.268  12.806
   19PET     O1  545  16.012  16.208  12.880
   19PET     C4  546  16.205  16.347  12.851
   19PET     C5  547  16.287  16.415  12.759
   19PET     C6  548  16.400  16.484  12.803
   19PET     H4  549  16.461  16.534  12.729
   19PET     H3  550  16.264  16.414  12.653
   19PET     C3  551  16.237  16.351  12.987
   19PET     H2  552  16.175  16.299  13.060
   19PET     C2  553  16.351  16.420  13.031
   19PET     H1  554  16.375  16.422  13.137
   19PET     C1  555  16.433  16.486  12.939
   19PET     C7  556  16.556  16.555  12.987
   19PET     O3  557  16.589  16.560  13.104
   19PET     O4  558  16.622  16.608  12.882
   19PET    C10  559  16.743  16.679  12.912
   19PET     H8  560  16.801  16.683  12.819
   19PET     H9  561  16.803  16.623  12.985
   19PET    C11  562  16.713  16.820  12.960
   19PET    H10  563  16.807  16.871  12.983
   19PET    H11  564  16.654  16.817  13.052
   19PET    C12  565  16.636  16.901  12.856
   19PET    H13  566  16.619  17.003  12.893
   19PET    H14  567  16.539  16.856  12.834
   20PET     C9  568  16.712  16.913  12.723
   20PET     H6  569  16.729  16.813  12.681
   20PET     H7  570  16.808  16.962  12.739
   20PET     O2  571  16.631  16.990  12.634
   20PET     C8  572  16.507  16.940  12.612
   20PET     O1  573  16.461  16.837  12.658
   20PET     C4  574  16.433  17.032  12.521
   20PET     C5  575  16.493  17.148  12.470
   20PET     C6  576  16.421  17.236  12.389
   20PET     H4  577  16.470  17.325  12.353
   20PET     H3  578  16.596  17.173  12.494
   20PET     C3  579  16.300  17.003  12.488
   20PET     H2  580  16.252  16.913  12.526
   20PET     C2  581  16.227  17.091  12.406
   20PET     H1  582  16.123  17.068  12.382
   20PET     C1  583  16.287  17.208  12.358
   20PET     C7  584  16.206  17.302  12.276
   20PET     O3  585  16.090  17.283  12.245
   20PET     O4  586  16.281  17.410  12.243
   20PET    C10  587  16.218  17.510  12.163
   20PET     H8  588  16.276  17.602  12.176
   20PET     H9  589  16.117  17.531  12.200
   20PET    C11  590  16.217  17.470  12.015
   20PET    H10  591  16.167  17.548  11.957
   20PET    H11  592  16.161  17.377  12.002
   20PET    C12  593  16.358  17.449  11.961
   20PET    H13  594  16.353  17.423  11.855
   20PET    H14  595  16.409  17.368  12.013
   21PET     C9  596  16.446  17.574  11.974
   21PET     H6  597  16.455  17.602  12.080
   21PET     H7  598  16.401  17.657  11.919
   21PET     O2  599  16.574  17.542  11.920
   21PET     C8  600  16.636  17.438  11.979
   21PET     O1  601  16.594  17.371  12.071
   21PET     C4  602  16.766  17.414  11.910
   21PET     C5  603  16.809  17.496  11.805
   21PET     C6  604  16.929  17.469  11.739
   21PET     H4  605  16.959  17.534  11.657
   21PET     H3  606  16.750  17.580  11.772
   21PET     C3  607  16.847  17.306  11.950
   21PET     H2  608  16.815  17.242  12.032
   21PET     C2  609  16.967  17.279  11.884
   21PET     H1  610  17.028  17.194  11.915
   21PET     C1  611  17.008  17.360  11.777
   21PET     C7  612  17.134  17.326  11.705
   21PET     O3  613  17.207  17.233  11.735
   21PET     O4  614  17.153  17.414  11.604
   21PET    C10  615  17.271  17.396  11.525
   21PET     H8  616  17.253  17.448  11.430
   21PET     H9  617  17.285  17.290  11.501
   21PET    C11  618  17.393  17.456  11.594
   21PET    H10  619  17.482  17.439  11.532
   21PET    H11  620  17.410  17.405  11.690
   21PET    C12  621  17.377  17.605  11.621
   21PET    H13  622  17.468  17.644  11.668
   21PET    H14  623  17.293  17.625  11.687
   22PET     C9  624  17.354  17.685  11.492
   22PET     H6  625  17.262  17.650  11.443
   22PET     H7  626  17.438  17.672  11.425
   22PET     O2  627  17.340  17.822  11.529
   22PET     C8  628  17.241  17.848  11.617
   22PET     O1  629  17.164  17.768  11.665
   22PET     C4  630  17.241  17.994  11.650
   22PET     C5  631  17.333  18.082  11.590
   22PET     C6  632  17.335  18.217  11.625
   22PET     H4  633  17.408  18.281  11.577
   22PET     H3  634  17.404  18.046  11.516
   22PET     C3  635  17.150  18.044  11.744
   22PET     H2  636  17.078  17.977  11.791
   22PET     C2  637  17.152  18.179  11.779
   22PET     H1  638  17.081  18.217  11.853
   22PET     C1  639  17.245  18.266  11.720
   22PET     C7  640  17.248  18.409  11.763
   22PET     O3  641  17.172  18.457  11.845
   22PET     O4  642  17.347  18.473  11.697
   22PET    C10  643  17.364  18.612  11.726
   22PET     H8  644  17.466  18.639  11.696
   22PET     H9  645  17.357  18.630  11.834
   22PET    C11  646  17.263  18.697  11.649
   22PET    H10  647  17.276  18.802  11.675
   22PET    H11  648  17.161  18.669  11.678
   22PET    C12  649  17.276  18.679  11.499
   22PET    H13  650  17.204  18.743  11.446
   22PET    H14  651  17.257  18.575  11.469
   23PET     C9  652  17.416  18.716  11.447
   23PET     H6  653  17.491  18.652  11.495
   23PET     H7  654  17.437  18.821  11.470
   23PET     O2  655  17.417  18.696  11.306
   23PET     C8  656  17.386  18.570  11.266
   23PET     O1  657  17.361  18.475  11.338
   23PET     C4  658  17.387  18.564  11.117
   23PET     C5  659  17.419  18.677  11.040
   23PET     C6  660  17.415  18.671  10.901
   23PET     H4  661  17.439  18.761  10.845
   23PET     H3  662  17.447  18.771  11.087
   23PET     C3  663  17.353  18.445  11.053
   23PET     H2  664  17.329  18.356  11.111
   23PET     C2  665  17.349  18.439  10.913
   23PET     H1  666  17.322  18.345  10.864
   23PET     C1  667  17.379  18.552  10.837
   23PET     C7  668  17.369  18.545  10.688
   23PET     O3  669  17.338  18.444  10.628
   23PET     O4  670  17.398  18.666  10.635
   23PET    C10  671  17.393  18.675  10.492
   23PET     H8  672  17.382  18.782  10.468
   23PET     H9  673  17.305  18.624  10.453
   23PET    C11  674  17.521  18.621  10.430
   23PET    H10  675  17.514  18.628  10.321
   23PET    H11  676  17.534  18.515  10.455
   23PET    C12  677  17.645  18.696  10.477
   23PET    H13  678  17.735  18.656  10.429
   23PET    H14  679  17.658  18.686  10.586
   24PET     C9  680  17.639  18.846  10.446
   24PET     H6  681  17.552  18.890  10.496
   24PET     H7  682  17.630  18.861  10.338
   24PET     O2  683  17.759  18.905  10.495
   24PET     C8  684  17.781  18.888  10.628
   24PET     O1  685  17.709  18.829  10.706
   24PET     C4  686  17.911  18.952  10.664
   24PET     C5  687  17.988  19.019  10.568
   24PET     C6  688  18.112  19.074  10.603
   24PET     H4  689  18.169  19.125  10.526
   24PET     H3  690  17.954  19.029  10.465
   24PET     C3  691  17.958  18.942  10.795
   24PET     H2  692  17.899  18.890  10.871
   24PET     C2  693  18.082  18.997  10.830
   24PET     H1  694  18.118  18.988  10.933
   24PET     C1  695  18.160  19.062  10.734
   24PET     C7  696  18.293  19.115  10.772
   24PET     O3  697  18.339  19.108  10.884
   24PET     O4  698  18.353  19.171  10.664
   24PET    C10  699  18.482  19.228  10.684
   24PET     H8  700  18.530  19.234  10.585
   24PET     H9  701  18.544  19.161  10.745
   24PET    C11  702  18.472  19.367  10.745
   24PET    H10  703  18.573  19.407  10.761
   24PET    H11  704  18.423  19.362  10.843
   24PET    C12  705  18.393  19.463  10.657
   24PET    H13  706  18.390  19.562  10.702
   24PET    H14  707  18.290  19.428  10.644
   25PET     C9  708  18.454  19.478  10.517
   25PET     H6  709  18.456  19.381  10.467
   25PET     H7  710  18.555  19.517  10.525
   25PET     O2  711  18.372  19.569  10.444
   25PET     C8  712  18.242  19.532  10.432
   25PET     O1  713  18.191  19.431  10.477
   25PET     C4  714  18.168  19.638  10.358
   25PET     C5  715  18.233  19.752  10.309
   25PET     C6  716  18.161  19.852  10.243
   25PET     H4  717  18.215  19.939  10.207
   25PET     H3  718  18.340  19.765  10.321
   25PET     C3  719  18.029  19.624  10.339
   25PET     H2  720  17.977  19.536  10.376
   25PET     C2  721  17.957  19.724  10.273
   25PET     H1  722  17.850  19.713  10.259
   25PET     C1  723  18.023  19.839  10.226
   25PET     C7  724  17.943  19.946  10.161
   25PET     O3  725  17.823  19.940  10.142
   25PET     O4  726  18.024  20.049  10.127
   25PET    C10  727  17.963  20.161  10.062
   25PET     H8  728  18.031  20.246  10.074
   25PET     H9  729  17.869  20.187  10.111
   25PET    C11  730  17.942  20.133   9.913
   25PET    H10  731  17.893  20.220   9.867
   25PET    H11  732  17.875  20.047   9.900
   25PET    C12  733  18.073  20.104   9.841
   25PET    H13  734  18.054  20.087   9.734
   25PET    H14  735  18.121  20.014   9.881
   26PET     C9  736  18.174  20.219   9.852
   26PET     H6  737  18.197  20.237   9.958
   26PET     H7  738  18.131  20.309   9.809
   26PET     O2  739  18.291  20.180   9.782
   26PET     C8  740  18.349  20.066   9.825
   26PET     O1  741  18.311  19.995   9.917
   26PET     C4  742  18.468  20.036   9.740
   26PET     C5  743  18.507  20.122   9.636
   26PET     C6  744  18.615  20.090   9.555
   26PET     H4  745  18.642  20.158   9.475
   26PET     H3  746  18.453  20.214   9.616
   26PET     C3  747  18.541  19.918   9.763
   26PET     H2  748  18.512  19.851   9.843
   26PET     C2  749  18.650  19.886   9.681
   26PET     H1  750  18.705  19.794   9.699
   26PET     C1  751  18.687  19.971   9.576
   26PET     C7  752  18.800  19.932   9.488
   26PET     O3  753  18.866  19.831   9.502
   26PET     O4  754  18.816  20.026   9.391
   26PET    C10  755  18.922  20.004   9.298
   26PET     H8  756  18.899  20.064   9.209
   26PET     H9  757  18.923  19.899   9.265
   26PET    C11  758  19.057  20.046   9.356
   26PET    H10  759  19.136  20.026   9.283
   26PET    H11  760  19.079  19.987   9.446
   26PET    C12  761  19.059  20.193   9.395
   26PET    H13  762  19.157  20.220   9.434
   26PET    H14  763  18.985  20.215   9.472
   27PET     C9  764  19.029  20.286   9.276
   27PET     H6  765  18.930  20.263   9.236
   27PET     H7  766  19.104  20.271   9.198
   27PET     O2  767  19.034  20.420   9.324
   27PET     C8  768  18.948  20.448   9.424
   27PET     O1  769  18.869  20.371   9.476
   27PET     C4  770  18.966  20.590   9.467
   27PET     C5  771  19.059  20.673   9.402
   27PET     C6  772  19.078  20.804   9.446
   27PET     H4  773  19.151  20.866   9.395
   27PET     H3  774  19.118  20.638   9.318
   27PET     C3  775  18.891  20.640   9.574
   27PET     H2  776  18.819  20.576   9.625
   27PET     C2  777  18.910  20.771   9.618
   27PET     H1  778  18.852  20.809   9.702
   27PET     C1  779  19.005  20.854   9.555
   27PET     C7  780  19.027  20.991   9.607
   27PET     O3  781  18.966  21.039   9.700
   27PET     O4  782  19.124  21.052   9.534
   27PET    C10  783  19.157  21.186   9.571
   27PET     H8  784  19.257  21.206   9.531
   27PET     H9  785  19.164  21.195   9.680
   27PET    C11  786  19.057  21.285   9.512
   27PET    H10  787  19.084  21.387   9.544
   27PET    H11  788  18.956  21.264   9.551
   27PET    C12  789  19.052  21.279   9.361
   27PET    H13  790  18.981  21.352   9.322
   27PET    H14  791  19.020  21.180   9.326
   28PET     C9  792  19.188  21.307   9.296
   28PET     H6  793  19.261  21.233   9.330
   28PET     H7  794  19.222  21.407   9.324
   28PET     O2  795  19.171  21.298   9.154
   28PET     C8  796  19.125  21.179   9.110
   28PET     O1  797  19.097  21.082   9.177
   28PET     C4  798  19.108  21.185   8.962
   28PET     C5  799  19.143  21.301   8.890
   28PET     C6  800  19.122  21.306   8.752
   28PET     H4  801  19.149  21.398   8.699
   28PET     H3  802  19.184  21.388   8.939
   28PET     C3  803  19.056  21.075   8.894
   28PET     H2  804  19.029  20.984   8.948
   28PET     C2  805  19.035  21.081   8.755
   28PET     H1  806  18.994  20.994   8.703
   28PET     C1  807  19.067  21.197   8.684
   28PET     C7  808  19.041  21.202   8.538
   28PET     O3  809  18.994  21.110   8.474
   28PET     O4  810  19.075  21.324   8.490
   28PET    C10  811  19.056  21.345   8.349
   28PET     H8  812  19.053  21.454   8.334
   28PET     H9  813  18.959  21.306   8.318
   28PET    C11  814  19.171  21.285   8.269
   28PET    H10  815  19.152  21.301   8.162
   28PET    H11  816  19.175  21.176   8.285
   28PET    C12  817  19.306  21.344   8.307
   28PET    H13  818  19.385  21.300   8.245
   28PET    H14  819  19.330  21.324   8.412
   29PET     C9  820  19.311  21.496   8.287
   29PET     H6  821  19.234  21.544   8.349
   29PET     H7  822  19.292  21.520   8.182
   29PET     O2  823  19.441  21.540   8.325
   29PET     C8  824  19.476  21.511   8.453
   29PET     O1  825  19.408  21.452   8.535
   29PET     C4  826  19.615  21.559   8.478
   29PET     C5  827  19.687  21.627   8.379
   29PET     C6  828  19.818  21.667   8.402
   29PET     H4  829  19.872  21.718   8.323
   29PET     H3  830  19.643  21.648   8.281
   29PET     C3  831  19.675  21.534   8.602
   29PET     H2  832  19.619  21.482   8.680
   29PET     C2  833  19.806  21.575   8.626
   29PET     H1  834  19.852  21.554   8.722
   29PET     C1  835  19.879  21.640   8.525
   29PET     C7  836  20.021  21.678   8.552
   29PET     O3  837  20.078  21.658   8.657
   29PET     O4  838  20.073  21.736   8.441
   29PET    C10  839  20.209  21.779   8.450
   29PET     H8  840  20.246  21.789   8.347
   29PET     H9  841  20.271  21.703   8.498
   29PET    C11  842  20.220  21.914   8.521
   29PET    H10  843  20.325  21.943   8.527
   29PET    H11  844  20.182  21.905   8.623
   29PET    C12  845  20.141  22.023   8.450
   29PET    H13  846  20.153  22.118   8.502
   29PET    H14  847  20.034  21.999   8.446
   30PET     C9  848  20.187  22.044   8.305
   30PET     H6  849  20.174  21.951   8.248
   30PET     H7  850  20.293  22.073   8.304
   30PET     O2  851  20.107  22.148   8.249
   30PET     C8  852  19.974  22.124   8.250
   30PET     O1  853  19.918  22.025   8.293
   30PET     C4  854  19.903  22.242   8.192
   30PET     C5  855  19.973  22.353   8.144
   30PET     C6  856  19.905  22.463   8.094
   30PET     H4  857  19.963  22.548   8.058
   30PET     H3  858  20.082  22.355   8.145
   30PET     C3  859  19.762  22.242   8.189
   30PET     H2  860  19.706  22.156   8.225
   30PET     C2  861  19.694  22.353   8.139
   30PET     H1  862  19.585  22.353   8.137
   30PET     C1  863  19.765  22.465   8.093
   30PET     C7  864  19.689  22.584   8.045
   30PET     O3  865  19.568  22.590   8.040
   30PET     O4  866  19.776  22.681   8.009
   30PET    C10  867  19.720  22.803   7.959
   30PET     H8  868  19.797  22.880   7.970
   30PET     H9  869  19.635  22.834   8.022
   30PET    C11  870  19.680  22.789   7.813
   30PET    H10  871  19.635  22.883   7.779
   30PET    H11  872  19.604  22.711   7.802
   30PET    C12  873  19.798  22.754   7.724
   30PET    H13  874  19.766  22.747   7.619
   30PET    H14  875  19.841  22.657   7.752
   31SOL     OW  876   0.088   1.801   0.927
   31SOL    HW1  877   0.046   1.715   0.900
   31SOL    HW2  878   0.182   1.804   0.893
   32SOL     OW  879   0.671   0.464   4.993
   32SOL    HW1  880   0.637   0.375   4.963
   32SOL    HW2  881   0.697   0.518   4.913
   33SOL     OW  882   1.493   1.767  10.269
   33SOL    HW1  883   1.526   1.831  10.200
   33SOL    HW2  884   1.559   1.761  10.344
   34SOL     OW  885   1.759   1.747  16.051
   34SOL    HW1  886   1.820   1.777  15.978
   34SOL    HW2  887   1.721   1.658  16.029
   35SOL     OW  888   0.807   0.605  18.224
   35SOL    HW1  889   0.760   0.602  18.313
   35SOL    HW2  890   0.756   0.550  18.158
   36SOL     OW  891   0.935   0.236  22.825
   36SOL    HW1  892   0.887   0.277  22.747
   36SOL    HW2  893   1.034   0.234  22.806
   37SOL     OW  894   1.032   2.411   7.464
   37SOL    HW1  895   0.991   2.493   7.425
   37SOL    HW2  896   1.096   2.437   7.537
   38SOL     OW  897   0.915   1.951  12.574
   38SOL    HW1  898   0.940   1.931  12.479
   38SOL    HW2  899   0.987   2.007  12.616
   39SOL     OW  900   1.068   3.195  13.883
   39SOL    HW1  901   1.075   3.111  13.828
   39SOL    HW2  902   1.130   3.264  13.847
   40SOL     OW  903   1.194   3.474  13.065
   40SOL    HW1  904   1.200   3.381  13.102
   40SOL    HW2  905   1.135   3.474  12.985
   41SOL     OW  906   1.351   2.452  23.778
   41SOL    HW1  907   1.379   2.409  23.863
   41SOL    HW2  908   1.376   2.548  23.779
   42SOL     OW  909   0.461   4.990   7.313
   42SOL    HW1  910   0.411   4.991   7.227
   42SOL    HW2  911   0.398   4.972   7.389
   43SOL     OW  912   1.400   3.831   9.736
   43SOL    HW1  913   1.376   3.794   9.646
   43SOL    HW2  914   1.499   3.847   9.740
   44SOL     OW  915   0.594   4.469  15.548
   44SOL    HW1  916   0.644   4.554  15.529
   44SOL    HW2  917   0.506   4.471  15.500
   45SOL     OW  918   0.249   5.509  18.000
   45SOL    HW1  919   0.306   5.444  18.050
   45SOL    HW2  920   0.233   5.476  17.907
   46SOL     OW  921   0.561   3.946  19.768
   46SOL    HW1  922   0.599   3.862  19.805
   46SOL    HW2  923   0.473   3.965  19.812
   47SOL     OW  924   0.830   4.997  23.767
   47SOL    HW1  925   0.825   5.030  23.862
   47SOL    HW2  926   0.744   5.016  23.721
   48SOL     OW  927   0.390   5.465  25.767
   48SOL    HW1  928   0.299   5.506  25.765
   48SOL    HW2  929   0.383   5.371  25.799
   49SOL     OW  930   0.539   5.650   4.236
   49SOL    HW1  931   0.458   5.651   4.294
   49SOL    HW2  932   0.542   5.733   4.181
   50SOL     OW  933   1.857   6.419   4.101
   50SOL    HW1  934   1.899   6.355   4.165
   50SOL    HW2  935   1.819   6.368   4.023
   51SOL     OW  936   1.076   6.269   8.912
   51SOL    HW1  937   0.996   6.208   8.915
   51SOL    HW2  938   1.157   6.216   8.888
   52SOL     OW  939   0.888   7.100  10.505
   52SOL    HW1  940   0.865   7.075  10.411
   52SOL    HW2  941   0.949   7.031  10.544
   53SOL     OW  942   0.122   6.229  19.184
   53SOL    HW1  943   0.077   6.141  19.201
   53SOL    HW2  944   0.121   6.283  19.268
   54SOL     OW  945   1.281   5.931  23.289
   54SOL    HW1  946   1.195   5.881  23.276
   54SOL    HW2  947   1.343   5.877  23.345
   55SOL     OW  948   1.657   6.190  23.551
   55SOL    HW1  949   1.619   6.121  23.613
   55SOL    HW2  950   1.739   6.154  23.507
   56SOL     OW  951   0.040   6.130  27.183
   56SOL    HW1  952   0.125   6.097  27.142
   56SOL    HW2  953   0.053   6.145  27.281
   57SOL     OW  954   1.303   8.286   1.904
   57SOL    HW1  955   1.337   8.193   1.919
   57SOL    HW2  956   1.321   8.313   1.809
   58SOL     OW  957   1.041   8.149   9.739
   58SOL    HW1  958   1.067   8.145   9.835
   58SOL    HW2  959   0.956   8.098   9.725
   59SOL     OW  960   0.130   9.242  13.023
   59SOL    HW1  961   0.089   9.168  13.076
   59SOL    HW2  962   0.194   9.293  13.081
   60SOL     OW  963   0.859   8.822  26.085
   60SOL    HW1  964   0.813   8.837  26.173
   60SOL    HW2  965   0.903   8.907  26.055
   61SOL     OW  966   1.001   9.344   8.602
   61SOL    HW1  967   0.938   9.272   8.571
   61SOL    HW2  968   1.094   9.308   8.602
   62SOL     OW  969   0.040   9.854  19.735
   62SOL    HW1  970   0.125   9.821  19.694
   62SOL    HW2  971   0.053   9.869  19.833
   63SOL     OW  972   1.650  11.030  21.877
   63SOL    HW1  973   1.703  11.040  21.793
   63SOL    HW2  974   1.623  11.120  21.911
   64SOL     OW  975   1.183  12.507   0.119
   64SOL    HW1  976   1.084  12.496   0.121
   64SOL    HW2  977   1.217  12.522   0.212
   65SOL     OW  978   0.598  11.901   3.994
   65SOL    HW1  979   0.622  11.970   3.926
   65SOL    HW2  980   0.520  11.934   4.048
   66SOL     OW  981   1.017  11.211   6.339
   66SOL    HW1  982   0.945  11.216   6.270
   66SOL    HW2  983   0.993  11.142   6.408
   67SOL     OW  984   0.935  11.408   7.928
   67SOL    HW1  985   0.887  11.449   7.850
   67SOL    HW2  986   1.034  11.406   7.909
   68SOL     OW  987   0.672  12.563   9.072
   68SOL    HW1  988   0.594  12.513   9.110
   68SOL    HW2  989   0.669  12.658   9.103
   69SOL     OW  990   0.686  12.333  12.975
   69SOL    HW1  991   0.746  12.412  12.989
   69SOL    HW2  992   0.600  12.364  12.934
   70SOL     OW  993   0.768  12.316  15.920
   70SOL    HW1  994   0.690  12.333  15.980
   70SOL    HW2  995   0.802  12.403  15.884
   71SOL     OW  996   1.362  14.178   6.131
   71SOL    HW1  997   1.445  14.149   6.083
   71SOL    HW2  998   1.313  14.245   6.075
   72SOL     OW  999   1.351  13.624  12.605
   72SOL    HW1 1000   1.379  13.581  12.690
   72SOL    HW2 1001   1.376  13.720  12.606
   73SOL     OW 1002   0.240  15.988   2.748
   73SOL    HW1 1003   0.254  15.904   2.800
   73SOL    HW2 1004   0.185  16.052   2.803
   74SOL     OW 1005   0.768  16.041  14.057
   74SOL    HW1 1006   0.690  16.058  14.117
   74SOL    HW2 1007   0.802  16.128  14.021
   75SOL     OW 1008   1.622  15.263  17.133
   75SOL    HW1 1009   1.624  15.187  17.197
   75SOL    HW2 1010   1.574  15.340  17.173
   76SOL     OW 1011   0.076  15.707  21.272
   76SOL    HW1 1012   0.175  15.695  21.281
   76SOL    HW2 1013   0.052  15.802  21.293
   77SOL     OW 1014   0.922  15.399  25.106
   77SOL    HW1 1015   0.897  15.390  25.010
   77SOL    HW2 1016   0.970  15.317  25.137
   78SOL     OW 1017   0.122  17.402  15.459
   78SOL    HW1 1018   0.077  17.314  15.476
   78SOL    HW2 1019   0.121  17.456  15.543
   79SOL     OW 1020   1.857  19.454  11.549
   79SOL    HW1 1021   1.899  19.390  11.613
   79SOL    HW2 1022   1.819  19.403  11.471
   80SOL     OW 1023   0.079  19.861  11.825
   80SOL    HW1 1024   0.078  19.814  11.913
   80SOL    HW2 1025   0.161  19.833  11.774
   81SOL     OW 1026   0.916  19.531  13.325
   81SOL    HW1 1027   0.979  19.569  13.257
   81SOL    HW2 1028   0.956  19.448  13.364
   82SOL     OW 1029   1.076  19.304  16.361
   82SOL    HW1 1030   0.996  19.243  16.364
   82SOL    HW2 1031   1.157  19.251  16.337
   83SOL     OW 1032   1.754  21.706   5.312
   83SOL    HW1 1033   1.845  21.667   5.299
   83SOL    HW2 1034   1.762  21.802   5.336
   84SOL     OW 1035   1.719  21.068   7.417
   84SOL    HW1 1036   1.693  21.157   7.381
   84SOL    HW2 1037   1.717  21.000   7.344
   85SOL     OW 1038   0.705  21.533  20.851
   85SOL    HW1 1039   0.691  21.540  20.950
   85SOL    HW2 1040   0.789  21.482  20.833
   86SOL     OW 1041   1.002  23.141   8.686
   86SOL    HW1 1042   1.043  23.109   8.772
   86SOL    HW2 1043   0.906  23.114   8.683
   87SOL     OW 1044   1.227  23.895  21.989
   87SOL    HW1 1045   1.233  23.818  22.053
   87SOL    HW2 1046   1.175  23.869  21.909
   88SOL     OW 1047   0.991  24.617   8.690
   88SOL    HW1 1048   0.914  24.651   8.744
   88SOL    HW2 1049   0.957  24.566   8.611
   89SOL     OW 1050   0.812  27.655   8.135
   89SOL    HW1 1051   0.844  27.665   8.041
   89SOL    HW2 1052   0.733  27.593   8.137
   90SOL     OW 1053   1.227  27.619  12.678
   90SOL    HW1 1054   1.233  27.542  12.742
   90SOL    HW2 1055   1.175  27.593  12.598
   91SOL     OW 1056   0.815  26.641  13.359
   91SOL    HW1 1057   0.822  26.552  13.313
   91SOL    HW2 1058   0.721  26.675  13.351
   92SOL     OW 1059   1.638  27.168  19.700
   92SOL    HW1 1060   1.643  27.249  19.759
   92SOL    HW2 1061   1.552  27.170  19.649
   93SOL     OW 1062   1.083  27.053  20.570
   93SOL    HW1 1063   1.060  27.106  20.488
   93SOL    HW2 1064   1.164  26.997  20.551
   94SOL     OW 1065   1.841  28.106  23.308
   94SOL    HW1 1066   1.880  28.021  23.272
   94SOL    HW2 1067   1.743  28.108  23.289
   95SOL     OW 1068   0.815  28.503  26.394
   95SOL    HW1 1069   0.822  28.414  26.348
   95SOL    HW2 1070   0.721  28.537  26.386
   96SOL     OW 1071   2.401   0.064   4.236
   96SOL    HW1 1072   2.320   0.065   4.294
   96SOL    HW2 1073   2.404   0.147   4.181
   97SOL     OW 1074   2.435   0.870  17.788
   97SOL    HW1 1075   2.479   0.959  17.779
   97SOL    HW2 1076   2.372   0.870  17.865
   98SOL     OW 1077   3.526   1.280  19.278
   98SOL    HW1 1078   3.625   1.288  19.292
   98SOL    HW2 1079   3.481   1.364  19.309
   99SOL     OW 1080   2.534   1.616  18.775
   99SOL    HW1 1081   2.543   1.626  18.676
   99SOL    HW2 1082   2.494   1.527  18.796
  100SOL     OW 1083   3.476   1.292  23.634
  100SOL    HW1 1084   3.536   1.295  23.714
  100SOL    HW2 1085   3.401   1.356  23.647
  101SOL     OW 1086   2.482   3.648   1.439
  101SOL    HW1 1087   2.390   3.631   1.474
  101SOL    HW2 1088   2.510   3.740   1.465
  102SOL     OW 1089   3.049   3.654   5.340
  102SOL    HW1 1090   3.073   3.714   5.264
  102SOL    HW2 1091   3.056   3.559   5.310
  103SOL     OW 1092   2.389   2.118   4.052
  103SOL    HW1 1093   2.416   2.059   3.977
  103SOL    HW2 1094   2.389   2.213   4.021
  104SOL     OW 1095   3.000   2.242  22.161
  104SOL    HW1 1096   2.955   2.305  22.225
  104SOL    HW2 1097   3.093   2.273  22.144
  105SOL     OW 1098   2.778   2.772  24.498
  105SOL    HW1 1099   2.841   2.810  24.430
  105SOL    HW2 1100   2.818   2.689  24.537
  106SOL     OW 1101   1.950   5.525   0.927
  106SOL    HW1 1102   1.908   5.439   0.900
  106SOL    HW2 1103   2.044   5.528   0.893
  107SOL     OW 1104   3.465   4.171  13.771
  107SOL    HW1 1105   3.391   4.217  13.721
  107SOL    HW2 1106   3.516   4.239  13.824
  108SOL     OW 1107   2.252   5.465  20.181
  108SOL    HW1 1108   2.161   5.506  20.179
  108SOL    HW2 1109   2.245   5.371  20.213
  109SOL     OW 1110   3.155   4.952  25.630
  109SOL    HW1 1111   3.192   4.879  25.572
  109SOL    HW2 1112   3.207   4.957  25.715
  110SOL     OW 1113   2.750   7.100   8.643
  110SOL    HW1 1114   2.727   7.075   8.549
  110SOL    HW2 1115   2.811   7.031   8.682
  111SOL     OW 1116   3.328   6.176  15.889
  111SOL    HW1 1117   3.298   6.081  15.896
  111SOL    HW2 1118   3.401   6.192  15.955
  112SOL     OW 1119   3.529   7.300  24.779
  112SOL    HW1 1120   3.488   7.277  24.691
  112SOL    HW2 1121   3.511   7.226  24.844
  113SOL     OW 1122   2.300   7.840   1.499
  113SOL    HW1 1123   2.382   7.784   1.508
  113SOL    HW2 1124   2.219   7.782   1.503
  114SOL     OW 1125   2.792  10.988   5.189
  114SOL    HW1 1126   2.768  10.970   5.094
  114SOL    HW2 1127   2.822  11.082   5.199
  115SOL     OW 1128   2.997  10.013  21.200
  115SOL    HW1 1129   3.054  10.091  21.175
  115SOL    HW2 1130   2.937  10.039  21.276
  116SOL     OW 1131   2.665  10.712  26.993
  116SOL    HW1 1132   2.755  10.726  26.951
  116SOL    HW2 1133   2.594  10.714  26.922
  117SOL     OW 1134   3.114  12.520   5.974
  117SOL    HW1 1135   3.164  12.597   6.014
  117SOL    HW2 1136   3.019  12.522   6.006
  118SOL     OW 1137   2.412  11.368  10.195
  118SOL    HW1 1138   2.407  11.363  10.295
  118SOL    HW2 1139   2.414  11.464  10.166
  119SOL     OW 1140   2.216  12.682  12.501
  119SOL    HW1 1141   2.195  12.638  12.414
  119SOL    HW2 1142   2.313  12.708  12.504
  120SOL     OW 1143   2.853  11.582  14.276
  120SOL    HW1 1144   2.776  11.616  14.330
  120SOL    HW2 1145   2.819  11.531  14.197
  121SOL     OW 1146   2.973  14.229   6.686
  121SOL    HW1 1147   2.933  14.273   6.767
  121SOL    HW2 1148   2.932  14.266   6.603
  122SOL     OW 1149   1.901  14.111  11.472
  122SOL    HW1 1150   2.000  14.100  11.463
  122SOL    HW2 1151   1.861  14.025  11.504
  123SOL     OW 1152   2.102  14.125  25.093
  123SOL    HW1 1153   2.116  14.041  25.145
  123SOL    HW2 1154   2.047  14.189  25.148
  124SOL     OW 1155   2.842  16.013  18.478
  124SOL    HW1 1156   2.743  16.019  18.488
  124SOL    HW2 1157   2.865  15.933  18.422
  125SOL     OW 1158   2.973  17.954  27.169
  125SOL    HW1 1159   2.933  17.998  27.250
  125SOL    HW2 1160   2.932  17.991  27.086
  126SOL     OW 1161   3.000  19.001   5.402
  126SOL    HW1 1162   2.955  19.064   5.466
  126SOL    HW2 1163   3.093  19.032   5.385
  127SOL     OW 1164   2.903  19.322   6.015
  127SOL    HW1 1165   2.929  19.318   6.111
  127SOL    HW2 1166   2.818  19.271   6.001
  128SOL     OW 1167   3.512  20.341  12.566
  128SOL    HW1 1168   3.565  20.351  12.482
  128SOL    HW2 1169   3.485  20.431  12.600
  129SOL     OW 1170   2.272  21.296   8.699
  129SOL    HW1 1171   2.358  21.308   8.749
  129SOL    HW2 1172   2.230  21.209   8.726
  130SOL     OW 1173   2.435  21.353  17.788
  130SOL    HW1 1174   2.479  21.442  17.779
  130SOL    HW2 1175   2.372  21.353  17.865
  131SOL     OW 1176   1.901  21.560  17.059
  131SOL    HW1 1177   2.000  21.549  17.050
  131SOL    HW2 1178   1.861  21.474  17.091
  132SOL     OW 1179   1.992  24.139  13.023
  132SOL    HW1 1180   1.951  24.065  13.076
  132SOL    HW2 1181   2.056  24.190  13.081
  133SOL     OW 1182   2.938  23.028  21.947
  133SOL    HW1 1183   2.858  22.967  21.950
  133SOL    HW2 1184   3.019  22.975  21.923
  134SOL     OW 1185   2.879  22.384  24.960
  134SOL    HW1 1186   2.807  22.389  24.891
  134SOL    HW2 1187   2.855  22.315  25.029
  135SOL     OW 1188   2.632  23.675  24.508
  135SOL    HW1 1189   2.586  23.588  24.525
  135SOL    HW2 1190   2.723  23.672  24.549
  136SOL     OW 1191   2.366  25.775   0.910
  136SOL    HW1 1192   2.432  25.849   0.919
  136SOL    HW2 1193   2.410  25.696   0.868
  137SOL     OW 1194   2.021  27.206   3.328
  137SOL    HW1 1195   2.043  27.145   3.404
  137SOL    HW2 1196   2.031  27.157   3.242
  138SOL     OW 1197   3.322  27.574   8.787
  138SOL    HW1 1198   3.346  27.668   8.813
  138SOL    HW2 1199   3.306  27.520   8.869
  139SOL     OW 1200   2.366  27.637  23.255
  139SOL    HW1 1201   2.432  27.711  23.264
  139SOL    HW2 1202   2.410  27.558  23.213
  140SOL     OW 1203   3.214  27.983   3.892
  140SOL    HW1 1204   3.249  27.942   3.808
  140SOL    HW2 1205   3.124  27.945   3.912
  141SOL     OW 1206   5.084   0.862  25.252
  141SOL    HW1 1207   5.009   0.862  25.186
  141SOL    HW2 1208   5.121   0.770  25.261
  142SOL     OW 1209   4.800   2.545  25.671
  142SOL    HW1 1210   4.720   2.484  25.674
  142SOL    HW2 1211   4.881   2.492  25.647
  143SOL     OW 1212   4.951   5.274   1.506
  143SOL    HW1 1213   4.957   5.197   1.570
  143SOL    HW2 1214   4.899   5.248   1.426
  144SOL     OW 1215   4.212   5.109   0.174
  144SOL    HW1 1216   4.125   5.094   0.221
  144SOL    HW2 1217   4.195   5.135   0.079
  145SOL     OW 1218   4.918   5.336   3.755
  145SOL    HW1 1219   4.924   5.243   3.792
  145SOL    HW2 1220   4.859   5.336   3.675
  146SOL     OW 1221   3.829   4.737   5.450
  146SOL    HW1 1222   3.752   4.704   5.504
  146SOL    HW2 1223   3.914   4.707   5.492
  147SOL     OW 1224   3.955   5.437   9.793
  147SOL    HW1 1225   3.989   5.514   9.847
  147SOL    HW2 1226   3.999   5.437   9.703
  148SOL     OW 1227   5.148   5.800   1.112
  148SOL    HW1 1228   5.200   5.735   1.167
  148SOL    HW2 1229   5.099   5.863   1.173
  149SOL     OW 1230   4.395   6.050   4.993
  149SOL    HW1 1231   4.361   5.961   4.963
  149SOL    HW2 1232   4.421   6.104   4.913
  150SOL     OW 1233   4.183   6.738  10.051
  150SOL    HW1 1234   4.112   6.711  10.116
  150SOL    HW2 1235   4.157   6.710   9.958
  151SOL     OW 1236   3.800   6.397  13.823
  151SOL    HW1 1237   3.899   6.385  13.832
  151SOL    HW2 1238   3.776   6.492  13.844
  152SOL     OW 1239   5.118   6.055  25.881
  152SOL    HW1 1240   5.098   6.098  25.969
  152SOL    HW2 1241   5.196   5.993  25.890
  153SOL     OW 1242   4.725   7.482   4.878
  153SOL    HW1 1243   4.662   7.410   4.847
  153SOL    HW2 1244   4.818   7.446   4.878
  154SOL     OW 1245   4.212   8.833  15.070
  154SOL    HW1 1246   4.125   8.818  15.117
  154SOL    HW2 1247   4.195   8.859  14.975
  155SOL     OW 1248   4.654   9.126  25.672
  155SOL    HW1 1249   4.630   9.108  25.577
  155SOL    HW2 1250   4.684   9.220  25.682
  156SOL     OW 1251   4.031   7.661  27.300
  156SOL    HW1 1252   4.008   7.698  27.390
  156SOL    HW2 1253   4.001   7.566  27.294
  157SOL     OW 1254   5.306   8.087  28.403
  157SOL    HW1 1255   5.275   8.148  28.476
  157SOL    HW2 1256   5.356   8.139  28.334
  158SOL     OW 1257   4.747  10.076  17.725
  158SOL    HW1 1258   4.762  10.097  17.821
  158SOL    HW2 1259   4.717   9.981  17.716
  159SOL     OW 1260   4.096  12.460  25.697
  159SOL    HW1 1261   4.083  12.553  25.663
  159SOL    HW2 1262   4.012  12.408  25.684
  160SOL     OW 1263   4.664  12.870  26.973
  160SOL    HW1 1264   4.744  12.813  26.994
  160SOL    HW2 1265   4.615  12.830  26.896
  161SOL     OW 1266   4.285  13.256   3.009
  161SOL    HW1 1267   4.323  13.172   3.046
  161SOL    HW2 1268   4.197  13.275   3.053
  162SOL     OW 1269   5.118  15.365  12.846
  162SOL    HW1 1270   5.098  15.408  12.934
  162SOL    HW2 1271   5.196  15.303  12.855
  163SOL     OW 1272   5.433  15.281  18.140
  163SOL    HW1 1273   5.506  15.350  18.144
  163SOL    HW2 1274   5.461  15.206  18.081
  164SOL     OW 1275   4.074  15.794  26.011
  164SOL    HW1 1276   4.150  15.838  26.059
  164SOL    HW2 1277   4.109  15.747  25.929
  165SOL     OW 1278   5.306  17.398   4.196
  165SOL    HW1 1279   5.275  17.459   4.269
  165SOL    HW2 1280   5.356  17.450   4.127
  166SOL     OW 1281   4.412  18.421  22.199
  166SOL    HW1 1282   4.356  18.502  22.208
  166SOL    HW2 1283   4.464  18.425  22.113
  167SOL     OW 1284   5.374  18.479  21.877
  167SOL    HW1 1285   5.427  18.489  21.793
  167SOL    HW2 1286   5.347  18.569  21.911
  168SOL     OW 1287   4.183  19.773   2.603
  168SOL    HW1 1288   4.112  19.746   2.668
  168SOL    HW2 1289   4.157  19.745   2.510
  169SOL     OW 1290   5.318  18.735  23.825
  169SOL    HW1 1291   5.300  18.802  23.753
  169SOL    HW2 1292   5.315  18.781  23.914
  170SOL     OW 1293   4.704  19.737  24.064
  170SOL    HW1 1294   4.605  19.743  24.074
  170SOL    HW2 1295   4.727  19.657  24.008
  171SOL     OW 1296   4.297  21.353   8.477
  171SOL    HW1 1297   4.341  21.442   8.468
  171SOL    HW2 1298   4.234  21.353   8.554
  172SOL     OW 1299   4.290  21.020  10.175
  172SOL    HW1 1300   4.302  21.086  10.101
  172SOL    HW2 1301   4.336  21.054  10.258
  173SOL     OW 1302   4.396  20.686  10.799
  173SOL    HW1 1303   4.486  20.670  10.759
  173SOL    HW2 1304   4.404  20.691  10.898
  174SOL     OW 1305   4.162  20.875  21.982
  174SOL    HW1 1306   4.244  20.819  21.991
  174SOL    HW2 1307   4.081  20.817  21.986
  175SOL     OW 1308   5.381  21.087  21.689
  175SOL    HW1 1309   5.343  21.018  21.751
  175SOL    HW2 1310   5.463  21.051  21.645
  176SOL     OW 1311   5.346  20.850  28.305
  176SOL    HW1 1312   5.348  20.774  28.369
  176SOL    HW2 1313   5.298  20.927  28.345
  177SOL     OW 1314   4.664  24.043   4.628
  177SOL    HW1 1315   4.744  23.986   4.649
  177SOL    HW2 1316   4.615  24.003   4.551
  178SOL     OW 1317   3.751  23.941   5.703
  178SOL    HW1 1318   3.732  23.845   5.724
  178SOL    HW2 1319   3.718  23.999   5.778
  179SOL     OW 1320   5.190  25.624   6.539
  179SOL    HW1 1321   5.131  25.630   6.619
  179SOL    HW2 1322   5.175  25.536   6.493
  180SOL     OW 1323   5.190  24.797  19.613
  180SOL    HW1 1324   5.160  24.702  19.620
  180SOL    HW2 1325   5.263  24.813  19.679
  181SOL     OW 1326   4.045  25.150  22.587
  181SOL    HW1 1327   4.127  25.189  22.545
  181SOL    HW2 1328   4.018  25.068  22.538
  182SOL     OW 1329   4.976  27.800   1.128
  182SOL    HW1 1330   5.060  27.805   1.074
  182SOL    HW2 1331   4.953  27.704   1.146
  183SOL     OW 1332   4.185  27.335   5.451
  183SOL    HW1 1333   4.135  27.336   5.365
  183SOL    HW2 1334   4.122  27.317   5.527
  184SOL     OW 1335   5.362  27.168  12.251
  184SOL    HW1 1336   5.367  27.249  12.310
  184SOL    HW2 1337   5.276  27.170  12.200
  185SOL     OW 1338   3.800  26.880  15.685
  185SOL    HW1 1339   3.899  26.868  15.694
  185SOL    HW2 1340   3.776  26.975  15.706
  186SOL     OW 1341   5.398  26.952  18.013
  186SOL    HW1 1342   5.371  26.863  17.976
  186SOL    HW2 1343   5.399  27.020  17.940
  187SOL     OW 1344   5.004  26.996  23.017
  187SOL    HW1 1345   5.064  26.915  23.019
  187SOL    HW2 1346   5.044  27.065  22.957
  188SOL     OW 1347   4.725  27.965  17.913
  188SOL    HW1 1348   4.662  27.893  17.882
  188SOL    HW2 1349   4.818  27.929  17.913
  189SOL     OW 1350   6.074   1.385   3.898
  189SOL    HW1 1351   5.987   1.370   3.945
  189SOL    HW2 1352   6.057   1.411   3.803
  190SOL     OW 1353   7.236   1.720  12.566
  190SOL    HW1 1354   7.289   1.730  12.482
  190SOL    HW2 1355   7.209   1.810  12.600
  191SOL     OW 1356   7.036   1.220  16.530
  191SOL    HW1 1357   7.027   1.210  16.629
  191SOL    HW2 1358   7.132   1.213  16.504
  192SOL     OW 1359   5.903   0.547  23.625
  192SOL    HW1 1360   5.941   0.488  23.697
  192SOL    HW2 1361   5.943   0.521  23.537
  193SOL     OW 1362   6.625   1.098  24.903
  193SOL    HW1 1363   6.555   1.051  24.957
  193SOL    HW2 1364   6.684   1.030  24.860
  194SOL     OW 1365   7.218   3.239   3.805
  194SOL    HW1 1366   7.186   3.333   3.795
  194SOL    HW2 1367   7.142   3.176   3.793
  195SOL     OW 1368   7.345   3.609   8.602
  195SOL    HW1 1369   7.406   3.639   8.529
  195SOL    HW2 1370   7.307   3.520   8.580
  196SOL     OW 1371   6.367   2.126  12.921
  196SOL    HW1 1372   6.434   2.065  12.964
  196SOL    HW2 1373   6.294   2.145  12.986
  197SOL     OW 1374   5.674   3.663  12.099
  197SOL    HW1 1375   5.632   3.577  12.072
  197SOL    HW2 1376   5.768   3.666  12.065
  198SOL     OW 1377   6.206   3.648  25.646
  198SOL    HW1 1378   6.114   3.631  25.681
  198SOL    HW2 1379   6.234   3.740  25.672
  199SOL     OW 1380   6.948   3.006  26.614
  199SOL    HW1 1381   7.031   2.977  26.566
  199SOL    HW2 1382   6.899   3.073  26.558
  200SOL     OW 1383   6.200   1.984  26.186
  200SOL    HW1 1384   6.298   1.962  26.193
  200SOL    HW2 1385   6.169   1.967  26.093
  201SOL     OW 1386   7.260   4.607   4.978
  201SOL    HW1 1387   7.233   4.518   4.941
  201SOL    HW2 1388   7.261   4.675   4.905
  202SOL     OW 1389   6.180   4.469   9.962
  202SOL    HW1 1390   6.230   4.554   9.943
  202SOL    HW2 1391   6.092   4.471   9.914
  203SOL     OW 1392   7.227   4.832  11.604
  203SOL    HW1 1393   7.313   4.834  11.552
  203SOL    HW2 1394   7.241   4.879  11.692
  204SOL     OW 1395   6.627   4.425  17.188
  204SOL    HW1 1396   6.653   4.421  17.284
  204SOL    HW2 1397   6.542   4.374  17.174
  205SOL     OW 1398   6.889   4.562  22.387
  205SOL    HW1 1399   6.923   4.469  22.402
  205SOL    HW2 1400   6.907   4.589  22.292
  206SOL     OW 1401   7.312   5.721   6.109
  206SOL    HW1 1402   7.385   5.704   6.042
  206SOL    HW2 1403   7.281   5.634   6.147
  207SOL     OW 1404   6.147   5.808   8.595
  207SOL    HW1 1405   6.185   5.724   8.632
  207SOL    HW2 1406   6.059   5.827   8.639
  208SOL     OW 1407   5.625   6.663   7.748
  208SOL    HW1 1408   5.724   6.652   7.739
  208SOL    HW2 1409   5.585   6.577   7.780
  209SOL     OW 1410   6.047   6.852  12.899
  209SOL    HW1 1411   5.997   6.853  12.813
  209SOL    HW2 1412   5.984   6.834  12.975
  210SOL     OW 1413   5.817   7.299  19.104
  210SOL    HW1 1414   5.851   7.376  19.158
  210SOL    HW2 1415   5.861   7.299  19.014
  211SOL     OW 1416   5.925   7.957   2.868
  211SOL    HW1 1417   5.873   7.874   2.851
  211SOL    HW2 1418   6.002   7.962   2.804
  212SOL     OW 1419   6.866   8.375  17.431
  212SOL    HW1 1420   6.926   8.294  17.433
  212SOL    HW2 1421   6.906   8.444  17.371
  213SOL     OW 1422   7.046  10.815   6.925
  213SOL    HW1 1423   7.070  10.909   6.951
  213SOL    HW2 1424   7.030  10.761   7.007
  214SOL     OW 1425   6.393   9.915  12.637
  214SOL    HW1 1426   6.346   9.912  12.726
  214SOL    HW2 1427   6.342   9.860  12.571
  215SOL     OW 1428   6.047  10.576  18.486
  215SOL    HW1 1429   5.997  10.577  18.400
  215SOL    HW2 1430   5.984  10.558  18.562
  216SOL     OW 1431   5.835  11.095  18.000
  216SOL    HW1 1432   5.892  11.030  18.050
  216SOL    HW2 1433   5.819  11.062  17.907
  217SOL     OW 1434   6.136  11.368   4.609
  217SOL    HW1 1435   6.131  11.363   4.709
  217SOL    HW2 1436   6.138  11.464   4.580
  218SOL     OW 1437   5.953  12.272   7.949
  218SOL    HW1 1438   5.946  12.355   7.893
  218SOL    HW2 1439   5.957  12.192   7.889
  219SOL     OW 1440   7.345  12.919  12.326
  219SOL    HW1 1441   7.406  12.949  12.253
  219SOL    HW2 1442   7.307  12.830  12.304
  220SOL     OW 1443   6.625  12.270  11.868
  220SOL    HW1 1444   6.555  12.223  11.922
  220SOL    HW2 1445   6.684  12.202  11.825
  221SOL     OW 1446   7.345  12.919  16.051
  221SOL    HW1 1447   7.406  12.949  15.978
  221SOL    HW2 1448   7.307  12.830  16.029
  222SOL     OW 1449   6.813  12.742  17.552
  222SOL    HW1 1450   6.834  12.816  17.487
  222SOL    HW2 1451   6.881  12.742  17.625
  223SOL     OW 1452   7.250  12.452  23.002
  223SOL    HW1 1453   7.349  12.460  23.016
  223SOL    HW2 1454   7.205  12.536  23.033
  224SOL     OW 1455   7.275  12.094  28.543
  224SOL    HW1 1456   7.370  12.065  28.551
  224SOL    HW2 1457   7.267  12.159  28.468
  225SOL     OW 1458   5.669  14.292   8.470
  225SOL    HW1 1459   5.664  14.291   8.570
  225SOL    HW2 1460   5.586  14.251   8.432
  226SOL     OW 1461   6.395  13.038   9.812
  226SOL    HW1 1462   6.435  13.129   9.803
  226SOL    HW2 1463   6.295  13.046   9.818
  227SOL     OW 1464   7.079  14.801  13.993
  227SOL    HW1 1465   7.112  14.865  13.924
  227SOL    HW2 1466   7.145  14.795  14.068
  228SOL     OW 1467   5.775  15.416  11.032
  228SOL    HW1 1468   5.834  15.376  10.962
  228SOL    HW2 1469   5.717  15.487  10.991
  229SOL     OW 1470   7.036  16.117  12.805
  229SOL    HW1 1471   7.027  16.107  12.904
  229SOL    HW2 1472   7.132  16.110  12.779
  230SOL     OW 1473   7.305  15.481  18.590
  230SOL    HW1 1474   7.279  15.570  18.554
  230SOL    HW2 1475   7.303  15.413  18.517
  231SOL     OW 1476   6.354  16.041  21.506
  231SOL    HW1 1477   6.276  16.058  21.566
  231SOL    HW2 1478   6.388  16.128  21.470
  232SOL     OW 1479   6.247  18.549   0.953
  232SOL    HW1 1480   6.201  18.637   0.940
  232SOL    HW2 1481   6.346  18.561   0.946
  233SOL     OW 1482   6.858  18.204   3.004
  233SOL    HW1 1483   6.905  18.217   3.091
  233SOL    HW2 1484   6.792  18.130   3.013
  234SOL     OW 1485   6.697  17.954   4.824
  234SOL    HW1 1486   6.657  17.998   4.905
  234SOL    HW2 1487   6.656  17.991   4.741
  235SOL     OW 1488   7.316  17.693   8.965
  235SOL    HW1 1489   7.354  17.784   8.980
  235SOL    HW2 1490   7.308  17.676   8.866
  236SOL     OW 1491   5.937  18.560  12.025
  236SOL    HW1 1492   5.987  18.474  12.031
  236SOL    HW2 1493   6.002  18.637  12.022
  237SOL     OW 1494   7.079  18.526  15.856
  237SOL    HW1 1495   7.112  18.590  15.787
  237SOL    HW2 1496   7.145  18.520  15.931
  238SOL     OW 1497   7.224  19.720  14.113
  238SOL    HW1 1498   7.229  19.801  14.172
  238SOL    HW2 1499   7.138  19.722  14.062
  239SOL     OW 1500   6.713  21.824   3.552
  239SOL    HW1 1501   6.760  21.824   3.640
  239SOL    HW2 1502   6.665  21.737   3.541
  240SOL     OW 1503   6.948  21.627  21.028
  240SOL    HW1 1504   7.031  21.598  20.980
  240SOL    HW2 1505   6.899  21.694  20.972
  241SOL     OW 1506   7.410  20.675  21.710
  241SOL    HW1 1507   7.406  20.585  21.754
  241SOL    HW2 1508   7.413  20.664  21.611
  242SOL     OW 1509   6.271  23.357   9.975
  242SOL    HW1 1510   6.340  23.341  10.045
  242SOL    HW2 1511   6.198  23.414  10.013
  243SOL     OW 1512   6.976  24.782   9.388
  243SOL    HW1 1513   6.922  24.761   9.469
  243SOL    HW2 1514   7.067  24.741   9.397
  244SOL     OW 1515   6.858  25.652  17.901
  244SOL    HW1 1516   6.905  25.665  17.988
  244SOL    HW2 1517   6.792  25.578  17.910
  245SOL     OW 1518   5.988  24.958  22.081
  245SOL    HW1 1519   6.056  25.013  22.034
  245SOL    HW2 1520   6.028  24.870  22.108
  246SOL     OW 1521   7.178  27.698   3.487
  246SOL    HW1 1522   7.205  27.732   3.397
  246SOL    HW2 1523   7.257  27.660   3.533
  247SOL     OW 1524   5.907  27.012   9.552
  247SOL    HW1 1525   5.989  27.051   9.510
  247SOL    HW2 1526   5.880  26.930   9.503
  248SOL     OW 1527   5.807  27.383  26.051
  248SOL    HW1 1528   5.742  27.310  26.030
  248SOL    HW2 1529   5.811  27.397  26.149
  249SOL     OW 1530   5.849  26.395  26.789
  249SOL    HW1 1531   5.770  26.446  26.755
  249SOL    HW2 1532   5.840  26.380  26.887
  250SOL     OW 1533   7.936   1.385  13.208
  250SOL    HW1 1534   7.849   1.370  13.255
  250SOL    HW2 1535   7.919   1.411  13.113
  251SOL     OW 1536   8.722   0.386  16.159
  251SOL    HW1 1537   8.743   0.460  16.223
  251SOL    HW2 1538   8.633   0.403  16.116
  252SOL     OW 1539   7.745   1.897  11.343
  252SOL    HW1 1540   7.794   1.981  11.322
  252SOL    HW2 1541   7.807   1.832  11.388
  253SOL     OW 1542   8.066   5.291  18.043
  253SOL    HW1 1543   8.061   5.373  18.100
  253SOL    HW2 1544   8.155   5.288  17.998
  254SOL     OW 1545   7.487   4.801  22.645
  254SOL    HW1 1546   7.586   4.790  22.636
  254SOL    HW2 1547   7.447   4.715  22.677
  255SOL     OW 1548   8.229   5.850   1.749
  255SOL    HW1 1549   8.296   5.789   1.792
  255SOL    HW2 1550   8.156   5.869   1.814
  256SOL     OW 1551   9.040   7.215   5.349
  256SOL    HW1 1552   9.067   7.249   5.259
  256SOL    HW2 1553   9.119   7.177   5.395
  257SOL     OW 1554   8.456   7.042  17.236
  257SOL    HW1 1555   8.410   7.114  17.184
  257SOL    HW2 1556   8.452   7.062  17.334
  258SOL     OW 1557   8.251   6.988  21.407
  258SOL    HW1 1558   8.341   7.002  21.365
  258SOL    HW2 1559   8.180   6.990  21.336
  259SOL     OW 1560   7.876   6.010  21.003
  259SOL    HW1 1561   7.906   5.938  20.941
  259SOL    HW2 1562   7.837   5.970  21.086
  260SOL     OW 1563   8.260   7.172  23.032
  260SOL    HW1 1564   8.292   7.182  22.938
  260SOL    HW2 1565   8.181   7.110  23.034
  261SOL     OW 1566   8.531   8.432  20.570
  261SOL    HW1 1567   8.508   8.485  20.488
  261SOL    HW2 1568   8.612   8.376  20.551
  262SOL     OW 1569   8.336   8.962  27.264
  262SOL    HW1 1570   8.313   8.937  27.170
  262SOL    HW2 1571   8.397   8.893  27.303
  263SOL     OW 1572   9.003  10.821   0.703
  263SOL    HW1 1573   8.946  10.805   0.784
  263SOL    HW2 1574   8.944  10.831   0.623
  264SOL     OW 1575   9.070  11.539   4.098
  264SOL    HW1 1576   9.072  11.463   4.162
  264SOL    HW2 1577   9.022  11.616   4.138
  265SOL     OW 1578   7.520  11.338   5.904
  265SOL    HW1 1579   7.503  11.421   5.850
  265SOL    HW2 1580   7.610  11.301   5.882
  266SOL     OW 1581   8.583  11.875   8.165
  266SOL    HW1 1582   8.640  11.953   8.140
  266SOL    HW2 1583   8.523  11.901   8.241
  267SOL     OW 1584   7.907  12.324   8.189
  267SOL    HW1 1585   7.836  12.297   8.254
  267SOL    HW2 1586   7.881  12.296   8.096
  268SOL     OW 1587   9.174  11.307  11.695
  268SOL    HW1 1588   9.247  11.290  11.628
  268SOL    HW2 1589   9.143  11.220  11.733
  269SOL     OW 1590   7.523  11.517  18.654
  269SOL    HW1 1591   7.431  11.489  18.625
  269SOL    HW2 1592   7.554  11.594  18.598
  270SOL     OW 1593   9.042  11.286  21.963
  270SOL    HW1 1594   9.024  11.353  21.891
  270SOL    HW2 1595   9.039  11.332  22.052
  271SOL     OW 1596   8.842  11.641  22.157
  271SOL    HW1 1597   8.822  11.684  22.245
  271SOL    HW2 1598   8.920  11.579  22.166
  272SOL     OW 1599   7.876  13.458   6.106
  272SOL    HW1 1600   7.906  13.386   6.044
  272SOL    HW2 1601   7.837  13.418   6.189
  273SOL     OW 1602   7.526  13.590   8.834
  273SOL    HW1 1603   7.618  13.589   8.793
  273SOL    HW2 1604   7.520  13.664   8.901
  274SOL     OW 1605   9.178  13.968  12.689
  274SOL    HW1 1606   9.216  14.059  12.704
  274SOL    HW2 1607   9.170  13.951  12.590
  275SOL     OW 1608   8.364  13.944  20.774
  275SOL    HW1 1609   8.427  13.982  20.706
  275SOL    HW2 1610   8.404  13.861  20.813
  276SOL     OW 1611   8.134  16.058   1.803
  276SOL    HW1 1612   8.194  16.137   1.817
  276SOL    HW2 1613   8.048  16.089   1.762
  277SOL     OW 1614   9.225  17.101  14.676
  277SOL    HW1 1615   9.208  17.132  14.582
  277SOL    HW2 1616   9.141  17.064  14.714
  278SOL     OW 1617   8.336  20.135  17.954
  278SOL    HW1 1618   8.313  20.110  17.860
  278SOL    HW2 1619   8.397  20.066  17.993
  279SOL     OW 1620   8.164  19.186  18.467
  279SOL    HW1 1621   8.183  19.251  18.541
  279SOL    HW2 1622   8.224  19.106  18.476
  280SOL     OW 1623   7.755  20.546   2.480
  280SOL    HW1 1624   7.744  20.640   2.513
  280SOL    HW2 1625   7.750  20.483   2.557
  281SOL     OW 1626   9.202  21.706   5.312
  281SOL    HW1 1627   9.293  21.667   5.299
  281SOL    HW2 1628   9.210  21.802   5.336
  282SOL     OW 1629   8.914  21.073  17.751
  282SOL    HW1 1630   8.884  20.978  17.758
  282SOL    HW2 1631   8.987  21.089  17.817
  283SOL     OW 1632   8.941  24.112   4.683
  283SOL    HW1 1633   8.974  24.176   4.614
  283SOL    HW2 1634   9.007  24.106   4.758
  284SOL     OW 1635   8.449  22.379   8.602
  284SOL    HW1 1636   8.386  22.307   8.571
  284SOL    HW2 1637   8.542  22.343   8.602
  285SOL     OW 1638   8.516  23.678  19.470
  285SOL    HW1 1639   8.523  23.594  19.415
  285SOL    HW2 1640   8.578  23.747  19.434
  286SOL     OW 1641   8.307  23.301  23.206
  286SOL    HW1 1642   8.361  23.232  23.254
  286SOL    HW2 1643   8.275  23.370  23.272
  287SOL     OW 1644   8.428  23.918  27.769
  287SOL    HW1 1645   8.408  23.962  27.681
  287SOL    HW2 1646   8.467  23.827  27.753
  288SOL     OW 1647   8.524  24.890  25.671
  288SOL    HW1 1648   8.444  24.829  25.674
  288SOL    HW2 1649   8.605  24.837  25.647
  289SOL     OW 1650   9.035  26.848   7.256
  289SOL    HW1 1651   8.943  26.886   7.251
  289SOL    HW2 1652   9.095  26.895   7.191
  290SOL     OW 1653   8.817  27.019  14.694
  290SOL    HW1 1654   8.856  27.108  14.714
  290SOL    HW2 1655   8.827  26.999  14.597
  291SOL     OW 1656   8.046  26.798  20.753
  291SOL    HW1 1657   8.070  26.867  20.685
  291SOL    HW2 1658   7.968  26.831  20.807
  292SOL     OW 1659   9.105  28.535  21.689
  292SOL    HW1 1660   9.067  28.466  21.751
  292SOL    HW2 1661   9.187  28.499  21.645
  293SOL     OW 1662  10.857   0.222   1.729
  293SOL    HW1 1663  10.852   0.259   1.821
  293SOL    HW2 1664  10.785   0.153   1.717
  294SOL     OW 1665  10.974   3.142   0.657
  294SOL    HW1 1666  11.073   3.150   0.671
  294SOL    HW2 1667  10.929   3.226   0.688
  295SOL     OW 1668   9.876   2.399   4.589
  295SOL    HW1 1669   9.888   2.465   4.515
  295SOL    HW2 1670   9.922   2.433   4.672
  296SOL     OW 1671  10.903   2.083   4.606
  296SOL    HW1 1672  10.819   2.082   4.660
  296SOL    HW2 1673  10.905   2.166   4.550
  297SOL     OW 1674  11.038   4.659   5.578
  297SOL    HW1 1675  10.992   4.652   5.489
  297SOL    HW2 1676  10.976   4.703   5.644
  298SOL     OW 1677   9.541   5.437  11.655
  298SOL    HW1 1678   9.575   5.514  11.709
  298SOL    HW2 1679   9.585   5.437  11.565
  299SOL     OW 1680  10.232   4.227  17.658
  299SOL    HW1 1681  10.207   4.218  17.562
  299SOL    HW2 1682  10.280   4.145  17.689
  300SOL     OW 1683  10.169   4.680  19.482
  300SOL    HW1 1684  10.223   4.611  19.530
  300SOL    HW2 1685  10.137   4.749  19.548
  301SOL     OW 1686   9.347   5.034  27.351
  301SOL    HW1 1687   9.400   4.985  27.419
  301SOL    HW2 1688   9.369   5.132  27.356
  302SOL     OW 1689   9.512   5.871  16.395
  302SOL    HW1 1690   9.432   5.931  16.382
  302SOL    HW2 1691   9.502   5.822  16.481
  303SOL     OW 1692  10.591   7.793   8.392
  303SOL    HW1 1693  10.505   7.743   8.379
  303SOL    HW2 1694  10.653   7.739   8.448
  304SOL     OW 1695  11.064   8.671  18.347
  304SOL    HW1 1696  11.155   8.632  18.334
  304SOL    HW2 1697  11.072   8.767  18.371
  305SOL     OW 1698   9.998  10.972  22.199
  305SOL    HW1 1699   9.942  11.053  22.208
  305SOL    HW2 1700  10.050  10.976  22.113
  306SOL     OW 1701   9.769  10.462  24.948
  306SOL    HW1 1702   9.698  10.435  25.013
  306SOL    HW2 1703   9.743  10.434  24.855
  307SOL     OW 1704  10.562  12.903  17.887
  307SOL    HW1 1705  10.646  12.908  17.833
  307SOL    HW2 1706  10.539  12.807  17.905
  308SOL     OW 1707   9.774  12.915  22.668
  308SOL    HW1 1708   9.807  12.954  22.754
  308SOL    HW2 1709   9.850  12.908  22.603
  309SOL     OW 1710  10.042  13.668  15.961
  309SOL    HW1 1711  10.101  13.642  15.885
  309SOL    HW2 1712  10.014  13.764  15.950
  310SOL     OW 1713  10.857  13.256  24.074
  310SOL    HW1 1714  10.852  13.293  24.166
  310SOL    HW2 1715  10.785  13.187  24.062
  311SOL     OW 1716  10.590  13.961  26.741
  311SOL    HW1 1717  10.650  13.880  26.743
  311SOL    HW2 1718  10.630  14.030  26.681
  312SOL     OW 1719  10.169  14.408  27.947
  312SOL    HW1 1720  10.123  14.423  28.035
  312SOL    HW2 1721  10.213  14.493  27.917
  313SOL     OW 1722   9.541  16.610   4.207
  313SOL    HW1 1723   9.575  16.687   4.261
  313SOL    HW2 1724   9.585  16.610   4.117
  314SOL     OW 1725   9.507  15.873  16.161
  314SOL    HW1 1726   9.596  15.828  16.147
  314SOL    HW2 1727   9.434  15.808  16.142
  315SOL     OW 1728  10.537  18.329  21.276
  315SOL    HW1 1729  10.558  18.403  21.211
  315SOL    HW2 1730  10.605  18.329  21.349
  316SOL     OW 1731   9.814  18.671  11.050
  316SOL    HW1 1732   9.772  18.614  10.980
  316SOL    HW2 1733   9.748  18.740  11.082
  317SOL     OW 1734  10.951  19.729  13.466
  317SOL    HW1 1735  11.037  19.731  13.414
  317SOL    HW2 1736  10.965  19.776  13.554
  318SOL     OW 1737  10.662  20.535   5.754
  318SOL    HW1 1738  10.697  20.494   5.670
  318SOL    HW2 1739  10.572  20.497   5.774
  319SOL     OW 1740   9.774  22.226  15.219
  319SOL    HW1 1741   9.807  22.265  15.305
  319SOL    HW2 1742   9.850  22.219  15.154
  320SOL     OW 1743   9.329  20.851  17.406
  320SOL    HW1 1744   9.247  20.894  17.445
  320SOL    HW2 1745   9.301  20.778  17.343
  321SOL     OW 1746  10.582  23.790   3.004
  321SOL    HW1 1747  10.629  23.803   3.091
  321SOL    HW2 1748  10.516  23.716   3.013
  322SOL     OW 1749   9.562  25.771  16.641
  322SOL    HW1 1750   9.532  25.828  16.717
  322SOL    HW2 1751   9.555  25.674  16.667
  323SOL     OW 1752  10.612  25.062  15.205
  323SOL    HW1 1753  10.526  25.031  15.247
  323SOL    HW2 1754  10.608  25.048  15.106
  324SOL     OW 1755   9.712  24.958  27.667
  324SOL    HW1 1756   9.780  25.013  27.620
  324SOL    HW2 1757   9.752  24.870  27.694
  325SOL     OW 1758  10.770  27.574   1.339
  325SOL    HW1 1759  10.794  27.668   1.365
  325SOL    HW2 1760  10.754  27.520   1.421
  326SOL     OW 1761  10.318  27.525   7.925
  326SOL    HW1 1762  10.272  27.597   7.873
  326SOL    HW2 1763  10.314  27.545   8.023
  327SOL     OW 1764  11.038  27.004   9.302
  327SOL    HW1 1765  10.992  26.997   9.213
  327SOL    HW2 1766  10.976  27.048   9.368
  328SOL     OW 1767  10.312  26.865   8.686
  328SOL    HW1 1768  10.353  26.833   8.772
  328SOL    HW2 1769  10.216  26.838   8.683
  329SOL     OW 1770  10.581  27.866  15.487
  329SOL    HW1 1771  10.625  27.930  15.423
  329SOL    HW2 1772  10.531  27.918  15.557
  330SOL     OW 1773  11.029  26.654  22.314
  330SOL    HW1 1774  11.003  26.743  22.278
  330SOL    HW2 1775  11.027  26.586  22.241
  331SOL     OW 1776  12.472   0.453   0.691
  331SOL    HW1 1777  12.413   0.533   0.695
  331SOL    HW2 1778  12.487   0.418   0.784
  332SOL     OW 1779  12.786   1.292   3.151
  332SOL    HW1 1780  12.846   1.295   3.231
  332SOL    HW2 1781  12.711   1.356   3.164
  333SOL     OW 1782  12.601   1.173   4.591
  333SOL    HW1 1783  12.546   1.089   4.584
  333SOL    HW2 1784  12.627   1.202   4.499
  334SOL     OW 1785  11.412   1.091  10.196
  334SOL    HW1 1786  11.426   1.007  10.248
  334SOL    HW2 1787  11.357   1.155  10.251
  335SOL     OW 1788  12.060   1.514  12.367
  335SOL    HW1 1789  12.037   1.489  12.273
  335SOL    HW2 1790  12.121   1.445  12.406
  336SOL     OW 1791  11.397   0.275  15.893
  336SOL    HW1 1792  11.432   0.258  15.985
  336SOL    HW2 1793  11.309   0.230  15.881
  337SOL     OW 1794  12.836   1.280  15.553
  337SOL    HW1 1795  12.935   1.288  15.567
  337SOL    HW2 1796  12.791   1.364  15.584
  338SOL     OW 1797  12.186   2.098   8.419
  338SOL    HW1 1798  12.178   2.062   8.326
  338SOL    HW2 1799  12.184   2.022   8.484
  339SOL     OW 1800  11.676   1.912  11.050
  339SOL    HW1 1801  11.634   1.855  10.980
  339SOL    HW2 1802  11.610   1.981  11.082
  340SOL     OW 1803  12.898   1.997   9.833
  340SOL    HW1 1804  12.971   1.980   9.766
  340SOL    HW2 1805  12.867   1.910   9.871
  341SOL     OW 1806  12.612   2.718  12.570
  341SOL    HW1 1807  12.555   2.770  12.507
  341SOL    HW2 1808  12.708   2.730  12.546
  342SOL     OW 1809  12.236   3.209  16.237
  342SOL    HW1 1810  12.156   3.186  16.292
  342SOL    HW2 1811  12.319   3.183  16.286
  343SOL     OW 1812  11.633   3.128  20.348
  343SOL    HW1 1813  11.583   3.129  20.262
  343SOL    HW2 1814  11.570   3.110  20.424
  344SOL     OW 1815  11.738   2.399  21.348
  344SOL    HW1 1816  11.750   2.465  21.274
  344SOL    HW2 1817  11.784   2.433  21.431
  345SOL     OW 1818  12.047   3.508  20.820
  345SOL    HW1 1819  11.970   3.473  20.766
  345SOL    HW2 1820  12.015   3.579  20.882
  346SOL     OW 1821  12.107   3.960   4.204
  346SOL    HW1 1822  12.059   4.001   4.126
  346SOL    HW2 1823  12.206   3.958   4.185
  347SOL     OW 1824  12.236   5.071  19.961
  347SOL    HW1 1825  12.156   5.048  20.016
  347SOL    HW2 1826  12.319   5.045  20.010
  348SOL     OW 1827  11.427   6.934   4.014
  348SOL    HW1 1828  11.331   6.935   3.987
  348SOL    HW2 1829  11.439   6.987   4.098
  349SOL     OW 1830  12.424   7.317   6.714
  349SOL    HW1 1831  12.508   7.322   6.660
  349SOL    HW2 1832  12.401   7.221   6.732
  350SOL     OW 1833  11.402   6.214   9.423
  350SOL    HW1 1834  11.309   6.212   9.460
  350SOL    HW2 1835  11.403   6.175   9.331
  351SOL     OW 1836  11.786   5.708   9.427
  351SOL    HW1 1837  11.884   5.686   9.434
  351SOL    HW2 1838  11.755   5.691   9.334
  352SOL     OW 1839  12.022   6.384  22.306
  352SOL    HW1 1840  12.018   6.460  22.371
  352SOL    HW2 1841  12.044   6.420  22.215
  353SOL     OW 1842  11.582   6.399  23.596
  353SOL    HW1 1843  11.668   6.411  23.646
  353SOL    HW2 1844  11.540   6.312  23.623
  354SOL     OW 1845  12.465   6.814  25.630
  354SOL    HW1 1846  12.502   6.741  25.572
  354SOL    HW2 1847  12.517   6.819  25.715
  355SOL     OW 1848  12.638   8.038  21.475
  355SOL    HW1 1849  12.608   7.943  21.482
  355SOL    HW2 1850  12.711   8.054  21.541
  356SOL     OW 1851  11.260  11.111  13.961
  356SOL    HW1 1852  11.218  11.025  13.934
  356SOL    HW2 1853  11.354  11.114  13.927
  357SOL     OW 1854  12.475  10.148  16.801
  357SOL    HW1 1855  12.509  10.055  16.816
  357SOL    HW2 1856  12.493  10.175  16.706
  358SOL     OW 1857  12.399  10.880  19.414
  358SOL    HW1 1858  12.420  10.954  19.349
  358SOL    HW2 1859  12.467  10.880  19.487
  359SOL     OW 1860  12.102  10.988  21.948
  359SOL    HW1 1861  12.078  10.970  21.853
  359SOL    HW2 1862  12.132  11.082  21.958
  360SOL     OW 1863  11.511  11.681   4.730
  360SOL    HW1 1864  11.459  11.598   4.713
  360SOL    HW2 1865  11.588  11.686   4.666
  361SOL     OW 1866  12.622  12.392   5.357
  361SOL    HW1 1867  12.613  12.382   5.456
  361SOL    HW2 1868  12.718  12.385   5.331
  362SOL     OW 1869  12.475  12.010  24.249
  362SOL    HW1 1870  12.509  11.917  24.264
  362SOL    HW2 1871  12.493  12.037  24.154
  363SOL     OW 1872  11.833  12.962  25.160
  363SOL    HW1 1873  11.787  13.050  25.147
  363SOL    HW2 1874  11.932  12.974  25.153
  364SOL     OW 1875  11.984  14.620   2.549
  364SOL    HW1 1876  12.016  14.630   2.455
  364SOL    HW2 1877  11.905  14.558   2.551
  365SOL     OW 1878  11.676  13.084  18.499
  365SOL    HW1 1879  11.634  13.027  18.429
  365SOL    HW2 1880  11.610  13.153  18.531
  366SOL     OW 1881  11.251  16.137   2.515
  366SOL    HW1 1882  11.250  16.090   2.603
  366SOL    HW2 1883  11.333  16.109   2.464
  367SOL     OW 1884  12.240  16.230   6.435
  367SOL    HW1 1885  12.247  16.146   6.380
  367SOL    HW2 1886  12.302  16.299   6.399
  368SOL     OW 1887  11.544  16.185   7.076
  368SOL    HW1 1888  11.531  16.278   7.042
  368SOL    HW2 1889  11.460  16.133   7.063
  369SOL     OW 1890  12.786  16.189   6.875
  369SOL    HW1 1891  12.846  16.192   6.955
  369SOL    HW2 1892  12.711  16.253   6.888
  370SOL     OW 1893  12.846  15.779  14.288
  370SOL    HW1 1894  12.819  15.690  14.251
  370SOL    HW2 1895  12.847  15.847  14.215
  371SOL     OW 1896  12.902  15.831  16.414
  371SOL    HW1 1897  12.940  15.922  16.429
  371SOL    HW2 1898  12.894  15.814  16.315
  372SOL     OW 1899  11.180  16.223  20.683
  372SOL    HW1 1900  11.087  16.244  20.652
  372SOL    HW2 1901  11.190  16.124  20.696
  373SOL     OW 1902  11.582  15.709  23.596
  373SOL    HW1 1903  11.668  15.721  23.646
  373SOL    HW2 1904  11.540  15.622  23.623
  374SOL     OW 1905  12.727  18.270   6.289
  374SOL    HW1 1906  12.670  18.254   6.370
  374SOL    HW2 1907  12.668  18.280   6.209
  375SOL     OW 1908  11.285  17.496   9.045
  375SOL    HW1 1909  11.373  17.483   9.090
  375SOL    HW2 1910  11.272  17.593   9.023
  376SOL     OW 1911  12.474  17.614   7.757
  376SOL    HW1 1912  12.388  17.583   7.799
  376SOL    HW2 1913  12.470  17.600   7.658
  377SOL     OW 1914  11.860  18.421  14.750
  377SOL    HW1 1915  11.804  18.502  14.759
  377SOL    HW2 1916  11.912  18.425  14.664
  378SOL     OW 1917  12.523  17.349  23.778
  378SOL    HW1 1918  12.551  17.306  23.863
  378SOL    HW2 1919  12.548  17.445  23.779
  379SOL     OW 1920  12.031  19.995   1.878
  379SOL    HW1 1921  11.985  20.010   1.966
  379SOL    HW2 1922  12.075  20.080   1.848
  380SOL     OW 1923  12.727  20.132  10.013
  380SOL    HW1 1924  12.670  20.116  10.094
  380SOL    HW2 1925  12.668  20.142   9.933
  381SOL     OW 1926  12.765  18.842  17.641
  381SOL    HW1 1927  12.681  18.841  17.695
  381SOL    HW2 1928  12.767  18.925  17.585
  382SOL     OW 1929  11.741  19.896  23.510
  382SOL    HW1 1930  11.648  19.889  23.473
  382SOL    HW2 1931  11.752  19.985  23.554
  383SOL     OW 1932  12.088  23.255  11.463
  383SOL    HW1 1933  12.151  23.293  11.395
  383SOL    HW2 1934  12.128  23.172  11.502
  384SOL     OW 1935  11.402  22.973  22.458
  384SOL    HW1 1936  11.309  22.971  22.495
  384SOL    HW2 1937  11.403  22.934  22.366
  385SOL     OW 1938  11.539  23.445  22.846
  385SOL    HW1 1939  11.532  23.528  22.790
  385SOL    HW2 1940  11.543  23.365  22.786
  386SOL     OW 1941  12.399  25.777  15.689
  386SOL    HW1 1942  12.420  25.851  15.624
  386SOL    HW2 1943  12.467  25.777  15.762
  387SOL     OW 1944  11.844  26.272  12.661
  387SOL    HW1 1945  11.934  26.256  12.621
  387SOL    HW2 1946  11.852  26.277  12.760
  388SOL     OW 1947  11.645  26.569  15.087
  388SOL    HW1 1948  11.706  26.649  15.091
  388SOL    HW2 1949  11.550  26.600  15.094
  389SOL     OW 1950  11.645  26.569  20.674
  389SOL    HW1 1951  11.706  26.649  20.678
  389SOL    HW2 1952  11.550  26.600  20.681
  390SOL     OW 1953  14.492   0.735   4.452
  390SOL    HW1 1954  14.487   0.670   4.527
  390SOL    HW2 1955  14.572   0.794   4.465
  391SOL     OW 1956  13.705   0.464  10.579
  391SOL    HW1 1957  13.671   0.375  10.549
  391SOL    HW2 1958  13.731   0.518  10.499
  392SOL     OW 1959  14.527   3.629   8.407
  392SOL    HW1 1960  14.560   3.693   8.338
  392SOL    HW2 1961  14.593   3.623   8.482
  393SOL     OW 1962  14.169   4.427  10.027
  393SOL    HW1 1963  14.226   4.505  10.002
  393SOL    HW2 1964  14.109   4.453  10.103
  394SOL     OW 1965  14.424   4.299  18.699
  394SOL    HW1 1966  14.370   4.278  18.780
  394SOL    HW2 1967  14.515   4.258  18.708
  395SOL     OW 1968  14.042   7.042   0.477
  395SOL    HW1 1969  13.996   7.114   0.425
  395SOL    HW2 1970  14.038   7.062   0.575
  396SOL     OW 1971  14.701   7.300   2.434
  396SOL    HW1 1972  14.660   7.277   2.346
  396SOL    HW2 1973  14.683   7.226   2.499
  397SOL     OW 1974  14.396   6.730   6.131
  397SOL    HW1 1975  14.479   6.701   6.083
  397SOL    HW2 1976  14.347   6.797   6.075
  398SOL     OW 1977  14.616   6.225  11.644
  398SOL    HW1 1978  14.585   6.286  11.717
  398SOL    HW2 1979  14.666   6.277  11.575
  399SOL     OW 1980  14.858   5.778  27.296
  399SOL    HW1 1981  14.854   5.688  27.340
  399SOL    HW2 1982  14.861   5.767  27.197
  400SOL     OW 1983  13.856  10.312  16.269
  400SOL    HW1 1984  13.896  10.311  16.177
  400SOL    HW2 1985  13.866  10.404  16.309
  401SOL     OW 1986  13.964  10.988  20.086
  401SOL    HW1 1987  13.940  10.970  19.991
  401SOL    HW2 1988  13.994  11.082  20.096
  402SOL     OW 1989  13.264  10.744  22.883
  402SOL    HW1 1990  13.238  10.840  22.883
  402SOL    HW2 1991  13.193  10.690  22.928
  403SOL     OW 1992  13.117  10.568  27.091
  403SOL    HW1 1993  13.112  10.567  27.191
  403SOL    HW2 1994  13.034  10.527  27.053
  404SOL     OW 1995  14.145  12.948   5.823
  404SOL    HW1 1996  14.085  12.886   5.873
  404SOL    HW2 1997  14.176  12.904   5.738
  405SOL     OW 1998  14.117  12.156   9.397
  405SOL    HW1 1999  14.094  12.209   9.315
  405SOL    HW2 2000  14.198  12.100   9.378
  406SOL     OW 2001  14.394  12.034  12.217
  406SOL    HW1 2002  14.319  12.034  12.151
  406SOL    HW2 2003  14.431  11.942  12.226
  407SOL     OW 2004  13.416  11.872  13.514
  407SOL    HW1 2005  13.461  11.782  13.511
  407SOL    HW2 2006  13.322  11.861  13.547
  408SOL     OW 2007  14.428  11.641  22.157
  408SOL    HW1 2008  14.408  11.684  22.245
  408SOL    HW2 2009  14.506  11.579  22.166
  409SOL     OW 2010  13.236  13.319  20.119
  409SOL    HW1 2011  13.156  13.379  20.106
  409SOL    HW2 2012  13.226  13.270  20.205
  410SOL     OW 2013  14.500  13.624  23.337
  410SOL    HW1 2014  14.470  13.529  23.344
  410SOL    HW2 2015  14.573  13.640  23.403
  411SOL     OW 2016  14.829  14.100  26.942
  411SOL    HW1 2017  14.767  14.085  26.866
  411SOL    HW2 2018  14.777  14.111  27.027
  412SOL     OW 2019  14.243  15.421   2.137
  412SOL    HW1 2020  14.256  15.337   2.191
  412SOL    HW2 2021  14.214  15.495   2.197
  413SOL     OW 2022  14.762  15.832  13.026
  413SOL    HW1 2023  14.716  15.825  12.937
  413SOL    HW2 2024  14.700  15.876  13.092
  414SOL     OW 2025  14.424  17.334   9.388
  414SOL    HW1 2026  14.370  17.313   9.469
  414SOL    HW2 2027  14.515  17.293   9.397
  415SOL     OW 2028  13.584  16.955  21.368
  415SOL    HW1 2029  13.579  16.950  21.468
  415SOL    HW2 2030  13.586  17.051  21.339
  416SOL     OW 2031  14.014  22.056  12.872
  416SOL    HW1 2032  13.994  22.100  12.784
  416SOL    HW2 2033  14.053  21.965  12.856
  417SOL     OW 2034  14.492  21.218  15.624
  417SOL    HW1 2035  14.487  21.153  15.699
  417SOL    HW2 2036  14.572  21.277  15.637
  418SOL     OW 2037  14.422  22.056  17.236
  418SOL    HW1 2038  14.489  22.068  17.162
  418SOL    HW2 2039  14.382  22.145  17.259
  419SOL     OW 2040  14.500  22.935   4.716
  419SOL    HW1 2041  14.470  22.840   4.723
  419SOL    HW2 2042  14.573  22.951   4.782
  420SOL     OW 2043  14.684  24.065  18.153
  420SOL    HW1 2044  14.737  24.075  18.069
  420SOL    HW2 2045  14.657  24.155  18.187
  421SOL     OW 2046  14.075  23.046  22.774
  421SOL    HW1 2047  14.101  23.042  22.870
  421SOL    HW2 2048  13.990  22.995  22.760
  422SOL     OW 2049  13.522  25.592  11.346
  422SOL    HW1 2050  13.435  25.577  11.393
  422SOL    HW2 2051  13.505  25.618  11.251
  423SOL     OW 2052  13.706  25.823  15.050
  423SOL    HW1 2053  13.715  25.833  14.951
  423SOL    HW2 2054  13.666  25.734  15.071
  424SOL     OW 2055  13.110  25.018  17.548
  424SOL    HW1 2056  13.209  25.006  17.557
  424SOL    HW2 2057  13.086  25.113  17.569
  425SOL     OW 2058  14.066  26.618   5.602
  425SOL    HW1 2059  14.025  26.700   5.563
  425SOL    HW2 2060  14.130  26.644   5.675
  426SOL     OW 2061  14.014  27.185  16.616
  426SOL    HW1 2062  13.915  27.191  16.626
  426SOL    HW2 2063  14.037  27.105  16.560
  427SOL     OW 2064  14.259  26.394  15.345
  427SOL    HW1 2065  14.324  26.320  15.334
  427SOL    HW2 2066  14.279  26.444  15.429
  428SOL     OW 2067  14.500  27.486  19.574
  428SOL    HW1 2068  14.441  27.492  19.654
  428SOL    HW2 2069  14.485  27.398  19.528
  429SOL     OW 2070  13.264  27.503  22.883
  429SOL    HW1 2071  13.238  27.599  22.883
  429SOL    HW2 2072  13.193  27.449  22.928
  430SOL     OW 2073  13.849  28.503  11.497
  430SOL    HW1 2074  13.856  28.414  11.451
  430SOL    HW2 2075  13.755  28.537  11.489
  431SOL     OW 2076  15.905   1.456  13.511
  431SOL    HW1 2077  15.859   1.528  13.459
  431SOL    HW2 2078  15.901   1.476  13.609
  432SOL     OW 2079  16.692   6.652   4.597
  432SOL    HW1 2080  16.630   6.637   4.521
  432SOL    HW2 2081  16.640   6.663   4.682
  433SOL     OW 2082  15.306   6.399  16.148
  433SOL    HW1 2083  15.392   6.411  16.198
  433SOL    HW2 2084  15.264   6.312  16.175
  434SOL     OW 2085  16.625   6.521  16.751
  434SOL    HW1 2086  16.579   6.514  16.662
  434SOL    HW2 2087  16.563   6.565  16.817
  435SOL     OW 2088  14.974   6.142  25.593
  435SOL    HW1 2089  15.066   6.141  25.552
  435SOL    HW2 2090  14.968   6.216  25.660
  436SOL     OW 2091  15.755   8.404   8.309
  436SOL    HW1 2092  15.809   8.335   8.357
  436SOL    HW2 2093  15.723   8.473   8.375
  437SOL     OW 2094  15.568   8.839  10.934
  437SOL    HW1 2095  15.490   8.789  10.972
  437SOL    HW2 2096  15.565   8.934  10.965
  438SOL     OW 2097  16.651   8.671  14.622
  438SOL    HW1 2098  16.742   8.632  14.609
  438SOL    HW2 2099  16.659   8.767  14.646
  439SOL     OW 2100  15.581   8.460  15.561
  439SOL    HW1 2101  15.650   8.444  15.631
  439SOL    HW2 2102  15.508   8.517  15.599
  440SOL     OW 2103  15.837   9.146  19.525
  440SOL    HW1 2104  15.917   9.089  19.546
  440SOL    HW2 2105  15.788   9.106  19.448
  441SOL     OW 2106  16.500   7.895  24.944
  441SOL    HW1 2107  16.426   7.941  24.894
  441SOL    HW2 2108  16.551   7.963  24.997
  442SOL     OW 2109  14.933  10.620  27.351
  442SOL    HW1 2110  14.986  10.571  27.419
  442SOL    HW2 2111  14.955  10.718  27.356
  443SOL     OW 2112  15.509  12.014  10.741
  443SOL    HW1 2113  15.565  12.095  10.724
  443SOL    HW2 2114  15.568  11.934  10.744
  444SOL     OW 2115  16.124  12.722  21.989
  444SOL    HW1 2116  16.130  12.645  22.053
  444SOL    HW2 2117  16.072  12.696  21.909
  445SOL     OW 2118  15.708  12.758  24.894
  445SOL    HW1 2119  15.740  12.768  24.800
  445SOL    HW2 2120  15.629  12.696  24.896
  446SOL     OW 2121  15.298  13.785  10.908
  446SOL    HW1 2122  15.366  13.840  10.861
  446SOL    HW2 2123  15.338  13.697  10.935
  447SOL     OW 2124  16.564  14.748  13.606
  447SOL    HW1 2125  16.523  14.725  13.518
  447SOL    HW2 2126  16.546  14.674  13.671
  448SOL     OW 2127  16.535  14.133  23.424
  448SOL    HW1 2128  16.540  14.214  23.483
  448SOL    HW2 2129  16.449  14.135  23.373
  449SOL     OW 2130  15.213  15.147  22.284
  449SOL    HW1 2131  15.284  15.218  22.290
  449SOL    HW2 2132  15.125  15.186  22.312
  450SOL     OW 2133  16.739  16.664  22.704
  450SOL    HW1 2134  16.793  16.635  22.784
  450SOL    HW2 2135  16.769  16.754  22.675
  451SOL     OW 2136  15.494  17.488  15.166
  451SOL    HW1 2137  15.518  17.557  15.098
  451SOL    HW2 2138  15.416  17.521  15.220
  452SOL     OW 2139  15.247  18.560  25.060
  452SOL    HW1 2140  15.297  18.474  25.066
  452SOL    HW2 2141  15.312  18.637  25.057
  453SOL     OW 2142  15.664  19.765   4.747
  453SOL    HW1 2143  15.586  19.782   4.807
  453SOL    HW2 2144  15.698  19.852   4.711
  454SOL     OW 2145  15.703  19.226   5.189
  454SOL    HW1 2146  15.656  19.223   5.278
  454SOL    HW2 2147  15.652  19.171   5.123
  455SOL     OW 2148  15.494  19.350  11.442
  455SOL    HW1 2149  15.518  19.419  11.374
  455SOL    HW2 2150  15.416  19.383  11.496
  456SOL     OW 2151  15.026  20.415  14.885
  456SOL    HW1 2152  14.985  20.341  14.938
  456SOL    HW2 2153  15.090  20.466  14.943
  457SOL     OW 2154  16.035  19.001  16.575
  457SOL    HW1 2155  15.990  19.064  16.639
  457SOL    HW2 2156  16.128  19.032  16.558
  458SOL     OW 2157  15.018  19.264  17.322
  458SOL    HW1 2158  14.973  19.176  17.339
  458SOL    HW2 2159  15.017  19.318  17.406
  459SOL     OW 2160  15.462  19.158  23.210
  459SOL    HW1 2161  15.474  19.224  23.136
  459SOL    HW2 2162  15.508  19.192  23.293
  460SOL     OW 2163  14.915  20.851  15.543
  460SOL    HW1 2164  14.833  20.894  15.582
  460SOL    HW2 2165  14.887  20.778  15.480
  461SOL     OW 2166  15.357  23.611   5.451
  461SOL    HW1 2167  15.307  23.612   5.365
  461SOL    HW2 2168  15.294  23.593   5.527
  462SOL     OW 2169  15.708  23.931   8.135
  462SOL    HW1 2170  15.740  23.941   8.041
  462SOL    HW2 2171  15.629  23.869   8.137
  463SOL     OW 2172  16.149  23.693   9.698
  463SOL    HW1 2173  16.199  23.770   9.738
  463SOL    HW2 2174  16.054  23.695   9.730
  464SOL     OW 2175  16.602  23.832  21.587
  464SOL    HW1 2176  16.509  23.807  21.560
  464SOL    HW2 2177  16.628  23.782  21.669
  465SOL     OW 2178  16.571  23.228  23.599
  465SOL    HW1 2179  16.544  23.139  23.562
  465SOL    HW2 2180  16.572  23.296  23.526
  466SOL     OW 2181  16.347  23.565  27.702
  466SOL    HW1 2182  16.338  23.555  27.801
  466SOL    HW2 2183  16.443  23.558  27.676
  467SOL     OW 2184  16.571  25.090   8.702
  467SOL    HW1 2185  16.544  25.001   8.665
  467SOL    HW2 2186  16.572  25.158   8.629
  468SOL     OW 2187  16.484  24.986  10.980
  468SOL    HW1 2188  16.392  25.024  10.975
  468SOL    HW2 2189  16.544  25.033  10.915
  469SOL     OW 2190  15.355  25.359  15.637
  469SOL    HW1 2191  15.284  25.332  15.702
  469SOL    HW2 2192  15.329  25.331  15.544
  470SOL     OW 2193  14.960  25.771  16.228
  470SOL    HW1 2194  14.914  25.853  16.194
  470SOL    HW2 2195  15.058  25.790  16.237
  471SOL     OW 2196  15.718  25.209  19.993
  471SOL    HW1 2197  15.758  25.208  19.901
  471SOL    HW2 2198  15.728  25.301  20.033
  472SOL     OW 2199  16.479  24.846  20.955
  472SOL    HW1 2200  16.448  24.907  21.028
  472SOL    HW2 2201  16.529  24.898  20.886
  473SOL     OW 2202  15.018  26.712  26.632
  473SOL    HW1 2203  14.973  26.624  26.649
  473SOL    HW2 2204  15.017  26.766  26.716
  474SOL     OW 2205  16.057  28.138  21.960
  474SOL    HW1 2206  16.057  28.202  22.037
  474SOL    HW2 2207  16.085  28.186  21.877
  475SOL     OW 2208  17.609   0.798  14.857
  475SOL    HW1 2209  17.605   0.874  14.922
  475SOL    HW2 2210  17.631   0.834  14.766
  476SOL     OW 2211  18.487   0.935  18.613
  476SOL    HW1 2212  18.441   0.928  18.524
  476SOL    HW2 2213  18.425   0.979  18.679
  477SOL     OW 2214  16.999   1.091  25.093
  477SOL    HW1 2215  17.013   1.007  25.145
  477SOL    HW2 2216  16.944   1.155  25.148
  478SOL     OW 2217  17.263   1.568  25.117
  478SOL    HW1 2218  17.329   1.642  25.126
  478SOL    HW2 2219  17.307   1.489  25.075
  479SOL     OW 2220  18.031   1.445  27.211
  479SOL    HW1 2221  18.078   1.458  27.298
  479SOL    HW2 2222  17.965   1.371  27.220
  480SOL     OW 2223  17.379   3.648  27.508
  480SOL    HW1 2224  17.287   3.631  27.543
  480SOL    HW2 2225  17.407   3.740  27.534
  481SOL     OW 2226  17.353   4.469  13.686
  481SOL    HW1 2227  17.403   4.554  13.667
  481SOL    HW2 2228  17.265   4.471  13.638
  482SOL     OW 2229  17.529   5.054  22.646
  482SOL    HW1 2230  17.483   4.967  22.663
  482SOL    HW2 2231  17.620   5.051  22.687
  483SOL     OW 2232  17.056   5.621   9.481
  483SOL    HW1 2233  17.105   5.705   9.460
  483SOL    HW2 2234  17.118   5.556   9.526
  484SOL     OW 2235  18.433   6.469  16.151
  484SOL    HW1 2236  18.406   6.380  16.114
  484SOL    HW2 2237  18.434   6.537  16.078
  485SOL     OW 2238  17.823   6.933  18.099
  485SOL    HW1 2239  17.743   6.910  18.154
  485SOL    HW2 2240  17.906   6.907  18.148
  486SOL     OW 2241  17.444   8.460  11.837
  486SOL    HW1 2242  17.513   8.444  11.907
  486SOL    HW2 2243  17.371   8.517  11.875
  487SOL     OW 2244  17.800   8.149  22.774
  487SOL    HW1 2245  17.826   8.145  22.870
  487SOL    HW2 2246  17.715   8.098  22.760
  488SOL     OW 2247  17.218   8.600  23.086
  488SOL    HW1 2248  17.147   8.573  23.151
  488SOL    HW2 2249  17.192   8.572  22.993
  489SOL     OW 2250  16.989  10.744  17.297
  489SOL    HW1 2251  16.963  10.840  17.297
  489SOL    HW2 2252  16.918  10.690  17.342
  490SOL     OW 2253  17.618  10.266  17.620
  490SOL    HW1 2254  17.672  10.197  17.668
  490SOL    HW2 2255  17.586  10.335  17.686
  491SOL     OW 2256  17.014  10.658  20.773
  491SOL    HW1 2257  16.918  10.659  20.746
  491SOL    HW2 2258  17.026  10.711  20.857
  492SOL     OW 2259  18.381   9.677  26.443
  492SOL    HW1 2260  18.383   9.601  26.507
  492SOL    HW2 2261  18.333   9.754  26.483
  493SOL     OW 2262  16.989  11.800   0.113
  493SOL    HW1 2263  16.896  11.798   0.150
  493SOL    HW2 2264  16.990  11.761   0.021
  494SOL     OW 2265  16.956  12.148   4.988
  494SOL    HW1 2266  17.045  12.103   4.974
  494SOL    HW2 2267  16.883  12.083   4.969
  495SOL     OW 2268  17.647  12.686  16.092
  495SOL    HW1 2269  17.624  12.661  15.998
  495SOL    HW2 2270  17.708  12.617  16.131
  496SOL     OW 2271  17.986  12.742  21.276
  496SOL    HW1 2272  18.007  12.816  21.211
  496SOL    HW2 2273  18.054  12.742  21.349
  497SOL     OW 2274  18.225  11.762  27.061
  497SOL    HW1 2275  18.195  11.667  27.068
  497SOL    HW2 2276  18.298  11.778  27.127
  498SOL     OW 2277  18.400  14.142  11.604
  498SOL    HW1 2278  18.486  14.144  11.552
  498SOL    HW2 2279  18.414  14.189  11.692
  499SOL     OW 2280  18.381  13.401  13.408
  499SOL    HW1 2281  18.383  13.325  13.472
  499SOL    HW2 2282  18.333  13.478  13.448
  500SOL     OW 2283  18.464  14.521  14.138
  500SOL    HW1 2284  18.371  14.496  14.111
  500SOL    HW2 2285  18.490  14.471  14.220
  501SOL     OW 2286  18.554  14.100  23.218
  501SOL    HW1 2287  18.492  14.085  23.142
  501SOL    HW2 2288  18.502  14.111  23.303
  502SOL     OW 2289  17.377  14.601  23.629
  502SOL    HW1 2290  17.372  14.683  23.686
  502SOL    HW2 2291  17.466  14.598  23.584
  503SOL     OW 2292  18.487  15.832   5.578
  503SOL    HW1 2293  18.441  15.825   5.489
  503SOL    HW2 2294  18.425  15.876   5.644
  504SOL     OW 2295  18.153  15.365  10.984
  504SOL    HW1 2296  18.133  15.408  11.072
  504SOL    HW2 2297  18.231  15.303  10.993
  505SOL     OW 2298  18.263  18.366   0.044
  505SOL    HW1 2299  18.171  18.403   0.051
  505SOL    HW2 2300  18.301  18.386  -0.046
  506SOL     OW 2301  18.039  17.686  17.431
  506SOL    HW1 2302  18.099  17.605  17.433
  506SOL    HW2 2303  18.079  17.755  17.371
  507SOL     OW 2304  17.581  21.485   1.372
  507SOL    HW1 2305  17.621  21.484   1.280
  507SOL    HW2 2306  17.591  21.577   1.412
  508SOL     OW 2307  16.864  21.496  18.485
  508SOL    HW1 2308  16.787  21.463  18.539
  508SOL    HW2 2309  16.949  21.466  18.527
  509SOL     OW 2310  18.448  21.405  21.095
  509SOL    HW1 2311  18.543  21.376  21.103
  509SOL    HW2 2312  18.440  21.470  21.020
  510SOL     OW 2313  18.299  20.757  28.056
  510SOL    HW1 2314  18.238  20.682  28.079
  510SOL    HW2 2315  18.321  20.809  28.139
  511SOL     OW 2316  18.352  22.566   2.744
  511SOL    HW1 2317  18.268  22.565   2.798
  511SOL    HW2 2318  18.354  22.649   2.688
  512SOL     OW 2319  18.423  23.625  24.864
  512SOL    HW1 2320  18.522  23.633  24.878
  512SOL    HW2 2321  18.378  23.709  24.895
  513SOL     OW 2322  17.464  25.257  15.264
  513SOL    HW1 2323  17.450  25.264  15.363
  513SOL    HW2 2324  17.548  25.206  15.246
  514SOL     OW 2325  17.919  24.414  25.684
  514SOL    HW1 2326  17.919  24.478  25.761
  514SOL    HW2 2327  17.947  24.462  25.601
  515SOL     OW 2328  17.689  27.747   5.189
  515SOL    HW1 2329  17.665  27.729   5.094
  515SOL    HW2 2330  17.719  27.841   5.199
  516SOL     OW 2331  16.918  27.206   7.052
  516SOL    HW1 2332  16.940  27.145   7.128
  516SOL    HW2 2333  16.928  27.157   6.966
  517SOL     OW 2334  17.739  27.642   9.148
  517SOL    HW1 2335  17.719  27.686   9.060
  517SOL    HW2 2336  17.778  27.551   9.132
  518SOL     OW 2337  18.110  26.659  16.330
  518SOL    HW1 2338  18.138  26.616  16.415
  518SOL    HW2 2339  18.135  26.755  16.331
  519SOL     OW 2340  18.030  27.866  21.074
  519SOL    HW1 2341  18.074  27.930  21.010
  519SOL    HW2 2342  17.980  27.918  21.144
  520SOL     OW 2343  17.760  27.965  16.051
  520SOL    HW1 2344  17.697  27.893  16.020
  520SOL    HW2 2345  17.853  27.929  16.051
  521SOL     OW 2346  20.213   1.629   9.073
  521SOL    HW1 2347  20.240   1.663   8.983
  521SOL    HW2 2348  20.292   1.591   9.119
  522SOL     OW 2349  19.924   0.838   7.490
  522SOL    HW1 2350  19.958   0.745   7.505
  522SOL    HW2 2351  19.942   0.865   7.395
  523SOL     OW 2352  19.895   0.386  16.159
  523SOL    HW1 2353  19.916   0.460  16.223
  523SOL    HW2 2354  19.806   0.403  16.116
  524SOL     OW 2355  18.851   2.490   7.561
  524SOL    HW1 2356  18.758   2.488   7.598
  524SOL    HW2 2357  18.852   2.451   7.469
  525SOL     OW 2358  19.480   5.098  14.912
  525SOL    HW1 2359  19.434   5.113  15.000
  525SOL    HW2 2360  19.524   5.183  14.882
  526SOL     OW 2361  18.852   5.437  22.828
  526SOL    HW1 2362  18.886   5.514  22.882
  526SOL    HW2 2363  18.896   5.437  22.738
  527SOL     OW 2364  19.815   5.336  22.376
  527SOL    HW1 2365  19.821   5.243  22.413
  527SOL    HW2 2366  19.756   5.336  22.296
  528SOL     OW 2367  19.031   6.399   3.113
  528SOL    HW1 2368  19.117   6.411   3.163
  528SOL    HW2 2369  18.989   6.312   3.140
  529SOL     OW 2370  20.375   6.809   7.174
  529SOL    HW1 2371  20.466   6.770   7.161
  529SOL    HW2 2372  20.383   6.905   7.198
  530SOL     OW 2373  19.215   6.331   6.238
  530SOL    HW1 2374  19.265   6.416   6.219
  530SOL    HW2 2375  19.127   6.333   6.190
  531SOL     OW 2376  18.842   6.900  22.327
  531SOL    HW1 2377  18.777   6.827  22.306
  531SOL    HW2 2378  18.846   6.914  22.425
  532SOL     OW 2379  20.146   8.447   0.190
  532SOL    HW1 2380  20.083   8.371   0.203
  532SOL    HW2 2381  20.194   8.465   0.276
  533SOL     OW 2382  19.219   8.177   0.270
  533SOL    HW1 2383  19.243   8.246   0.202
  533SOL    HW2 2384  19.141   8.210   0.324
  534SOL     OW 2385  18.697   8.259  15.685
  534SOL    HW1 2386  18.796   8.247  15.694
  534SOL    HW2 2387  18.673   8.354  15.706
  535SOL     OW 2388  18.823   7.733  25.705
  535SOL    HW1 2389  18.743   7.793  25.692
  535SOL    HW2 2390  18.813   7.684  25.791
  536SOL     OW 2391  19.638   9.349   6.339
  536SOL    HW1 2392  19.566   9.354   6.270
  536SOL    HW2 2393  19.614   9.280   6.408
  537SOL     OW 2394  19.171   9.506  10.195
  537SOL    HW1 2395  19.166   9.501  10.295
  537SOL    HW2 2396  19.173   9.602  10.166
  538SOL     OW 2397  19.443  10.312  25.579
  538SOL    HW1 2398  19.483  10.311  25.487
  538SOL    HW2 2399  19.453  10.404  25.619
  539SOL     OW 2400  19.873  11.041  27.197
  539SOL    HW1 2401  19.957  11.046  27.143
  539SOL    HW2 2402  19.850  10.945  27.215
  540SOL     OW 2403  18.846  11.447   0.996
  540SOL    HW1 2404  18.881  11.430   1.088
  540SOL    HW2 2405  18.758  11.402   0.984
  541SOL     OW 2406  19.983  12.316   0.545
  541SOL    HW1 2407  20.066  12.287   0.497
  541SOL    HW2 2408  19.934  12.383   0.489
  542SOL     OW 2409  19.241  12.958  18.198
  542SOL    HW1 2410  19.149  12.941  18.233
  542SOL    HW2 2411  19.269  13.050  18.224
  543SOL     OW 2412  20.203  11.811  19.093
  543SOL    HW1 2413  20.172  11.872  19.166
  543SOL    HW2 2414  20.253  11.863  19.024
  544SOL     OW 2415  20.259  14.133   4.803
  544SOL    HW1 2416  20.264  14.214   4.862
  544SOL    HW2 2417  20.173  14.135   4.752
  545SOL     OW 2418  20.071  14.254  10.943
  545SOL    HW1 2419  20.062  14.244  11.042
  545SOL    HW2 2420  20.167  14.247  10.917
  546SOL     OW 2421  18.696  13.379  11.205
  546SOL    HW1 2422  18.604  13.351  11.176
  546SOL    HW2 2423  18.727  13.456  11.149
  547SOL     OW 2424  19.125  14.946   3.602
  547SOL    HW1 2425  19.083  14.889   3.532
  547SOL    HW2 2426  19.059  15.015   3.634
  548SOL     OW 2427  18.842  16.211   3.706
  548SOL    HW1 2428  18.777  16.138   3.685
  548SOL    HW2 2429  18.846  16.225   3.804
  549SOL     OW 2430  19.187  15.433  10.175
  549SOL    HW1 2431  19.199  15.499  10.101
  549SOL    HW2 2432  19.233  15.467  10.258
  550SOL     OW 2433  20.376  15.503  16.990
  550SOL    HW1 2434  20.364  15.490  16.891
  550SOL    HW2 2435  20.346  15.422  17.039
  551SOL     OW 2436  19.402  15.160  20.370
  551SOL    HW1 2437  19.469  15.099  20.413
  551SOL    HW2 2438  19.329  15.179  20.435
  552SOL     OW 2439  19.873  16.628  21.611
  552SOL    HW1 2440  19.957  16.633  21.557
  552SOL    HW2 2441  19.850  16.532  21.629
  553SOL     OW 2442  18.940  17.569   8.397
  553SOL    HW1 2443  19.033  17.605   8.402
  553SOL    HW2 2444  18.934  17.484   8.449
  554SOL     OW 2445  19.537  17.669  26.360
  554SOL    HW1 2446  19.600  17.707  26.292
  554SOL    HW2 2447  19.577  17.586  26.399
  555SOL     OW 2448  19.601  19.737   7.305
  555SOL    HW1 2449  19.502  19.743   7.315
  555SOL    HW2 2450  19.624  19.657   7.249
  556SOL     OW 2451  20.009  20.194   6.063
  556SOL    HW1 2452  20.076  20.206   5.989
  556SOL    HW2 2453  19.969  20.283   6.086
  557SOL     OW 2454  19.428  19.226  10.775
  557SOL    HW1 2455  19.381  19.223  10.864
  557SOL    HW2 2456  19.377  19.171  10.709
  558SOL     OW 2457  19.893  20.066  16.039
  558SOL    HW1 2458  19.940  20.079  16.126
  558SOL    HW2 2459  19.827  19.992  16.048
  559SOL     OW 2460  20.146  19.620  16.949
  559SOL    HW1 2461  20.083  19.544  16.962
  559SOL    HW2 2462  20.194  19.638  17.035
  560SOL     OW 2463  20.349  21.418   7.440
  560SOL    HW1 2464  20.303  21.411   7.351
  560SOL    HW2 2465  20.287  21.462   7.506
  561SOL     OW 2466  18.696  20.828   7.481
  561SOL    HW1 2467  18.604  20.800   7.452
  561SOL    HW2 2468  18.727  20.905   7.425
  562SOL     OW 2469  20.213  22.112  23.970
  562SOL    HW1 2470  20.240  22.146  23.880
  562SOL    HW2 2471  20.292  22.074  24.016
  563SOL     OW 2472  20.349  23.280   7.440
  563SOL    HW1 2473  20.303  23.273   7.351
  563SOL    HW2 2474  20.287  23.324   7.506
  564SOL     OW 2475  19.756  23.048   8.165
  564SOL    HW1 2476  19.813  23.126   8.140
  564SOL    HW2 2477  19.696  23.074   8.241
  565SOL     OW 2478  19.059  22.737  12.671
  565SOL    HW1 2479  19.141  22.681  12.680
  565SOL    HW2 2480  18.978  22.679  12.675
  566SOL     OW 2481  18.726  23.358  12.898
  566SOL    HW1 2482  18.649  23.325  12.952
  566SOL    HW2 2483  18.811  23.328  12.940
  567SOL     OW 2484  19.487  26.523   0.642
  567SOL    HW1 2485  19.455  26.595   0.580
  567SOL    HW2 2486  19.511  26.442   0.589
  568SOL     OW 2487  19.389  27.213  23.368
  568SOL    HW1 2488  19.311  27.230  23.428
  568SOL    HW2 2489  19.423  27.300  23.332
  569SOL     OW 2490  19.536  26.158  23.747
  569SOL    HW1 2491  19.561  26.138  23.652
  569SOL    HW2 2492  19.608  26.214  23.789
  570SOL     OW 2493  19.486  28.279  26.264
  570SOL    HW1 2494  19.545  28.342  26.215
  570SOL    HW2 2495  19.505  28.185  26.235
  571SOL     OW 2496  21.474   0.410   1.242
  571SOL    HW1 2497  21.397   0.444   1.296
  571SOL    HW2 2498  21.440   0.359   1.163
  572SOL     OW 2499  20.800   0.251  14.835
  572SOL    HW1 2500  20.871   0.322  14.841
  572SOL    HW2 2501  20.712   0.290  14.863
  573SOL     OW 2502  21.907   2.076   6.698
  573SOL    HW1 2503  21.959   2.011   6.753
  573SOL    HW2 2504  21.858   2.139   6.759
  574SOL     OW 2505  21.474   2.272   8.690
  574SOL    HW1 2506  21.397   2.306   8.744
  574SOL    HW2 2507  21.440   2.221   8.611
  575SOL     OW 2508  21.566   2.846  24.294
  575SOL    HW1 2509  21.543   2.899  24.212
  575SOL    HW2 2510  21.647   2.790  24.275
  576SOL     OW 2511  22.115   5.101   5.667
  576SOL    HW1 2512  22.083   5.195   5.657
  576SOL    HW2 2513  22.039   5.038   5.655
  577SOL     OW 2514  21.456   4.614  22.055
  577SOL    HW1 2515  21.502   4.530  22.026
  577SOL    HW2 2516  21.400   4.648  21.980
  578SOL     OW 2517  21.522   4.822  24.903
  578SOL    HW1 2518  21.452   4.775  24.957
  578SOL    HW2 2519  21.581   4.754  24.860
  579SOL     OW 2520  21.423   5.422  26.973
  579SOL    HW1 2521  21.503   5.365  26.994
  579SOL    HW2 2522  21.374   5.382  26.896
  580SOL     OW 2523  21.101   5.291  27.353
  580SOL    HW1 2524  21.096   5.373  27.410
  580SOL    HW2 2525  21.190   5.288  27.308
  581SOL     OW 2526  21.547   6.933   3.202
  581SOL    HW1 2527  21.467   6.910   3.257
  581SOL    HW2 2528  21.630   6.907   3.251
  582SOL     OW 2529  20.680   8.424  18.023
  582SOL    HW1 2530  20.769   8.379  18.009
  582SOL    HW2 2531  20.607   8.359  18.004
  583SOL     OW 2532  21.551   8.781  21.332
  583SOL    HW1 2533  21.558   8.697  21.277
  583SOL    HW2 2534  21.613   8.850  21.296
  584SOL     OW 2535  21.677   9.060  24.238
  584SOL    HW1 2536  21.683   8.967  24.275
  584SOL    HW2 2537  21.618   9.060  24.158
  585SOL     OW 2538  21.484   9.344  10.464
  585SOL    HW1 2539  21.421   9.272  10.433
  585SOL    HW2 2540  21.577   9.308  10.464
  586SOL     OW 2541  21.456  12.062  10.882
  586SOL    HW1 2542  21.502  11.978  10.853
  586SOL    HW2 2543  21.400  12.096  10.807
  587SOL     OW 2544  21.710  12.722  10.816
  587SOL    HW1 2545  21.716  12.645  10.880
  587SOL    HW2 2546  21.658  12.696  10.736
  588SOL     OW 2547  20.885  11.923  22.081
  588SOL    HW1 2548  20.953  11.978  22.034
  588SOL    HW2 2549  20.925  11.835  22.108
  589SOL     OW 2550  21.077  13.779  11.824
  589SOL    HW1 2551  21.127  13.864  11.805
  589SOL    HW2 2552  20.989  13.781  11.776
  590SOL     OW 2553  22.278  14.100  15.769
  590SOL    HW1 2554  22.216  14.085  15.693
  590SOL    HW2 2555  22.226  14.111  15.854
  591SOL     OW 2556  21.883  13.141  17.185
  591SOL    HW1 2557  21.859  13.104  17.095
  591SOL    HW2 2558  21.982  13.157  17.189
  592SOL     OW 2559  21.883  15.003   7.874
  592SOL    HW1 2560  21.859  14.966   7.784
  592SOL    HW2 2561  21.982  15.019   7.878
  593SOL     OW 2562  21.835  16.811   2.030
  593SOL    HW1 2563  21.870  16.770   1.946
  593SOL    HW2 2564  21.745  16.773   2.050
  594SOL     OW 2565  22.121  17.858  10.389
  594SOL    HW1 2566  22.126  17.939  10.448
  594SOL    HW2 2567  22.035  17.860  10.338
  595SOL     OW 2568  21.052  19.896  12.337
  595SOL    HW1 2569  20.959  19.889  12.300
  595SOL    HW2 2570  21.063  19.985  12.381
  596SOL     OW 2571  21.155  20.237  11.326
  596SOL    HW1 2572  21.164  20.247  11.227
  596SOL    HW2 2573  21.115  20.148  11.347
  597SOL     OW 2574  20.704  19.935  14.878
  597SOL    HW1 2575  20.639  19.862  14.857
  597SOL    HW2 2576  20.708  19.949  14.976
  598SOL     OW 2577  22.211  19.556  18.613
  598SOL    HW1 2578  22.165  19.549  18.524
  598SOL    HW2 2579  22.149  19.600  18.679
  599SOL     OW 2580  22.023  20.757   1.987
  599SOL    HW1 2581  21.962  20.682   2.010
  599SOL    HW2 2582  22.045  20.809   2.070
  600SOL     OW 2583  21.056  21.353   6.615
  600SOL    HW1 2584  21.100  21.442   6.606
  600SOL    HW2 2585  20.993  21.353   6.692
  601SOL     OW 2586  21.496  20.588  25.977
  601SOL    HW1 2587  21.502  20.673  25.925
  601SOL    HW2 2588  21.528  20.512  25.920
  602SOL     OW 2589  21.500  22.384   2.615
  602SOL    HW1 2590  21.428  22.389   2.546
  602SOL    HW2 2591  21.476  22.315   2.684
  603SOL     OW 2592  21.621  24.587   5.402
  603SOL    HW1 2593  21.576  24.650   5.466
  603SOL    HW2 2594  21.714  24.618   5.385
  604SOL     OW 2595  21.188  25.257   9.678
  604SOL    HW1 2596  21.174  25.264   9.777
  604SOL    HW2 2597  21.272  25.206   9.660
  605SOL     OW 2598  21.097  28.053  22.462
  605SOL    HW1 2599  21.195  28.031  22.469
  605SOL    HW2 2600  21.066  28.036  22.369
  606SOL     OW 2601  22.428   1.258  21.505
  606SOL    HW1 2602  22.423   1.257  21.605
  606SOL    HW2 2603  22.345   1.217  21.467
  607SOL     OW 2604  23.017   3.478   9.464
  607SOL    HW1 2605  23.026   3.488   9.365
  607SOL    HW2 2606  22.977   3.389   9.485
  608SOL     OW 2607  23.325   3.435  18.459
  608SOL    HW1 2608  23.305   3.479  18.371
  608SOL    HW2 2609  23.364   3.344  18.443
  609SOL     OW 2610  22.783   2.254  20.120
  609SOL    HW1 2611  22.865   2.198  20.129
  609SOL    HW2 2612  22.702   2.196  20.124
  610SOL     OW 2613  22.712   2.962  20.984
  610SOL    HW1 2614  22.705   3.045  20.928
  610SOL    HW2 2615  22.716   2.882  20.924
  611SOL     OW 2616  22.809   3.605  28.254
  611SOL    HW1 2617  22.842   3.644  28.340
  611SOL    HW2 2618  22.885   3.598  28.189
  612SOL     OW 2619  23.033   5.386   7.302
  612SOL    HW1 2620  22.977   5.467   7.311
  612SOL    HW2 2621  23.085   5.390   7.216
  613SOL     OW 2622  23.280   3.960   7.928
  613SOL    HW1 2623  23.232   4.001   7.850
  613SOL    HW2 2624  23.379   3.958   7.909
  614SOL     OW 2625  22.712   4.824   9.811
  614SOL    HW1 2626  22.705   4.907   9.755
  614SOL    HW2 2627  22.716   4.744   9.751
  615SOL     OW 2628  22.712   4.824  17.260
  615SOL    HW1 2629  22.705   4.907  17.204
  615SOL    HW2 2630  22.716   4.744  17.200
  616SOL     OW 2631  22.652   5.649   9.928
  616SOL    HW1 2632  22.641   5.743   9.961
  616SOL    HW2 2633  22.647   5.586  10.005
  617SOL     OW 2634  23.285   7.284  12.076
  617SOL    HW1 2635  23.365   7.227  12.097
  617SOL    HW2 2636  23.236   7.244  11.999
  618SOL     OW 2637  22.680   7.021  21.544
  618SOL    HW1 2638  22.602   6.990  21.491
  618SOL    HW2 2639  22.738   7.079  21.487
  619SOL     OW 2640  23.017   7.202  20.637
  619SOL    HW1 2641  23.026   7.212  20.538
  619SOL    HW2 2642  22.977   7.113  20.658
  620SOL     OW 2643  23.714   8.398  20.281
  620SOL    HW1 2644  23.753   8.487  20.301
  620SOL    HW2 2645  23.724   8.378  20.184
  621SOL     OW 2646  22.433   9.249  21.410
  621SOL    HW1 2647  22.391   9.163  21.383
  621SOL    HW2 2648  22.527   9.252  21.376
  622SOL     OW 2649  22.918   8.318  27.098
  622SOL    HW1 2650  22.962   8.407  27.089
  622SOL    HW2 2651  22.855   8.318  27.175
  623SOL     OW 2652  23.647  10.165   2.171
  623SOL    HW1 2653  23.561  10.134   2.213
  623SOL    HW2 2654  23.643  10.151   2.072
  624SOL     OW 2655  24.019  10.193   3.116
  624SOL    HW1 2656  23.992  10.104   3.079
  624SOL    HW2 2657  24.020  10.261   3.043
  625SOL     OW 2658  24.204  10.828   5.329
  625SOL    HW1 2659  24.218  10.855   5.234
  625SOL    HW2 2660  24.287  10.850   5.382
  626SOL     OW 2661  23.714  10.260  22.143
  626SOL    HW1 2662  23.753  10.349  22.163
  626SOL    HW2 2663  23.724  10.240  22.046
  627SOL     OW 2664  23.113  10.454  25.230
  627SOL    HW1 2665  23.035  10.471  25.290
  627SOL    HW2 2666  23.147  10.541  25.194
  628SOL     OW 2667  23.932  11.951  10.980
  628SOL    HW1 2668  23.840  11.989  10.975
  628SOL    HW2 2669  23.992  11.998  10.915
  629SOL     OW 2670  23.472  14.375   3.552
  629SOL    HW1 2671  23.519  14.375   3.640
  629SOL    HW2 2672  23.424  14.288   3.541
  630SOL     OW 2673  23.692  14.093   4.958
  630SOL    HW1 2674  23.716  14.030   4.884
  630SOL    HW2 2675  23.602  14.133   4.940
  631SOL     OW 2676  22.818  13.534  18.812
  631SOL    HW1 2677  22.879  13.614  18.816
  631SOL    HW2 2678  22.723  13.565  18.819
  632SOL     OW 2679  23.220  16.543   2.199
  632SOL    HW1 2680  23.143  16.508   2.145
  632SOL    HW2 2681  23.188  16.614   2.261
  633SOL     OW 2682  23.616  16.694   6.177
  633SOL    HW1 2683  23.660  16.758   6.113
  633SOL    HW2 2684  23.566  16.746   6.247
  634SOL     OW 2685  22.684  15.405  15.903
  634SOL    HW1 2686  22.632  15.322  15.886
  634SOL    HW2 2687  22.761  15.410  15.839
  635SOL     OW 2688  23.648  15.734  16.801
  635SOL    HW1 2689  23.682  15.641  16.816
  635SOL    HW2 2690  23.666  15.761  16.706
  636SOL     OW 2691  22.911  15.433  23.210
  636SOL    HW1 2692  22.923  15.499  23.136
  636SOL    HW2 2693  22.957  15.467  23.293
  637SOL     OW 2694  23.017  16.288  23.969
  637SOL    HW1 2695  22.939  16.238  24.007
  637SOL    HW2 2696  23.014  16.383  24.000
  638SOL     OW 2697  23.359  15.132  27.040
  638SOL    HW1 2698  23.351  15.096  26.947
  638SOL    HW2 2699  23.357  15.056  27.105
  639SOL     OW 2700  22.963  20.188   1.284
  639SOL    HW1 2701  22.958  20.270   1.341
  639SOL    HW2 2702  23.052  20.185   1.239
  640SOL     OW 2703  22.570  18.896   8.444
  640SOL    HW1 2704  22.605  18.879   8.536
  640SOL    HW2 2705  22.482  18.851   8.432
  641SOL     OW 2706  23.645  20.936   2.553
  641SOL    HW1 2707  23.586  21.016   2.557
  641SOL    HW2 2708  23.660  20.901   2.646
  642SOL     OW 2709  23.336  20.893  23.587
  642SOL    HW1 2710  23.259  20.927  23.641
  642SOL    HW2 2711  23.302  20.842  23.508
  643SOL     OW 2712  23.148  21.885  25.131
  643SOL    HW1 2713  23.238  21.899  25.089
  643SOL    HW2 2714  23.077  21.887  25.060
  644SOL     OW 2715  23.358  22.450   3.632
  644SOL    HW1 2716  23.364  22.535   3.580
  644SOL    HW2 2717  23.390  22.374   3.575
  645SOL     OW 2718  23.152  24.812   1.465
  645SOL    HW1 2719  23.105  24.809   1.554
  645SOL    HW2 2720  23.101  24.757   1.399
  646SOL     OW 2721  23.779  25.395   0.041
  646SOL    HW1 2722  23.811  25.319   0.098
  646SOL    HW2 2723  23.687  25.422   0.071
  647SOL     OW 2724  22.372  25.803   5.703
  647SOL    HW1 2725  22.353  25.707   5.724
  647SOL    HW2 2726  22.339  25.861   5.778
  648SOL     OW 2727  23.647  25.062   5.895
  648SOL    HW1 2728  23.561  25.031   5.937
  648SOL    HW2 2729  23.643  25.048   5.796
  649SOL     OW 2730  22.818  24.707   7.639
  649SOL    HW1 2731  22.879  24.787   7.643
  649SOL    HW2 2732  22.723  24.738   7.646
  650SOL     OW 2733  23.157  25.793  13.721
  650SOL    HW1 2734  23.189  25.803  13.627
  650SOL    HW2 2735  23.078  25.731  13.723
  651SOL     OW 2736  23.126  26.333  12.921
  651SOL    HW1 2737  23.193  26.272  12.964
  651SOL    HW2 2738  23.053  26.352  12.986
  652SOL     OW 2739  25.224   0.039   6.339
  652SOL    HW1 2740  25.152   0.044   6.270
  652SOL    HW2 2741  25.200  -0.030   6.408
  653SOL     OW 2742  25.209   2.658   1.238
  653SOL    HW1 2743  25.250   2.626   1.324
  653SOL    HW2 2744  25.113   2.631   1.235
  654SOL     OW 2745  25.794   2.641   3.532
  654SOL    HW1 2746  25.702   2.679   3.527
  654SOL    HW2 2747  25.854   2.688   3.467
  655SOL     OW 2748  25.187   3.435  12.872
  655SOL    HW1 2749  25.167   3.479  12.784
  655SOL    HW2 2750  25.226   3.344  12.856
  656SOL     OW 2751  25.123   2.772  20.774
  656SOL    HW1 2752  25.186   2.810  20.706
  656SOL    HW2 2753  25.163   2.689  20.813
  657SOL     OW 2754  25.500   4.952  27.492
  657SOL    HW1 2755  25.537   4.879  27.434
  657SOL    HW2 2756  25.552   4.957  27.577
  658SOL     OW 2757  24.470   4.050  26.789
  658SOL    HW1 2758  24.391   4.101  26.755
  658SOL    HW2 2759  24.461   4.035  26.887
  659SOL     OW 2760  24.797   7.073  15.387
  659SOL    HW1 2761  24.839   7.015  15.317
  659SOL    HW2 2762  24.753   7.152  15.343
  660SOL     OW 2763  24.514   5.799  23.576
  660SOL    HW1 2764  24.491   5.836  23.666
  660SOL    HW2 2765  24.484   5.704  23.570
  661SOL     OW 2766  25.881   8.331   3.116
  661SOL    HW1 2767  25.854   8.242   3.079
  661SOL    HW2 2768  25.882   8.399   3.043
  662SOL     OW 2769  24.879   7.651  10.799
  662SOL    HW1 2770  24.969   7.635  10.759
  662SOL    HW2 2771  24.887   7.656  10.898
  663SOL     OW 2772  24.557   8.346  12.976
  663SOL    HW1 2773  24.633   8.390  13.024
  663SOL    HW2 2774  24.592   8.299  12.894
  664SOL     OW 2775  25.275   8.781  12.021
  664SOL    HW1 2776  25.282   8.697  11.966
  664SOL    HW2 2777  25.337   8.850  11.985
  665SOL     OW 2778  24.975   8.592  21.506
  665SOL    HW1 2779  24.897   8.609  21.566
  665SOL    HW2 2780  25.009   8.679  21.470
  666SOL     OW 2781  25.434  10.860  25.713
  666SOL    HW1 2782  25.440  10.783  25.777
  666SOL    HW2 2783  25.382  10.834  25.633
  667SOL     OW 2784  24.226  11.540   4.371
  667SOL    HW1 2785  24.144  11.583   4.410
  667SOL    HW2 2786  24.198  11.467   4.308
  668SOL     OW 2787  25.434  12.742   6.379
  668SOL    HW1 2788  25.455  12.816   6.314
  668SOL    HW2 2789  25.502  12.742   6.452
  669SOL     OW 2790  25.576  12.122  10.970
  669SOL    HW1 2791  25.615  12.211  10.990
  669SOL    HW2 2792  25.586  12.102  10.873
  670SOL     OW 2793  25.187  12.288  12.891
  670SOL    HW1 2794  25.088  12.294  12.901
  670SOL    HW2 2795  25.210  12.208  12.835
  671SOL     OW 2796  24.234  14.630  13.151
  671SOL    HW1 2797  24.215  14.534  13.172
  671SOL    HW2 2798  24.201  14.688  13.226
  672SOL     OW 2799  25.783  14.696  18.928
  672SOL    HW1 2800  25.872  14.742  18.931
  672SOL    HW2 2801  25.762  14.672  18.833
  673SOL     OW 2802  25.926  13.619  26.038
  673SOL    HW1 2803  25.900  13.708  26.002
  673SOL    HW2 2804  25.924  13.551  25.965
  674SOL     OW 2805  25.762  16.408   0.703
  674SOL    HW1 2806  25.705  16.392   0.784
  674SOL    HW2 2807  25.703  16.418   0.623
  675SOL     OW 2808  25.394  16.689   3.478
  675SOL    HW1 2809  25.418  16.749   3.402
  675SOL    HW2 2810  25.401  16.594   3.448
  676SOL     OW 2811  24.504  14.931  11.343
  676SOL    HW1 2812  24.553  15.015  11.322
  676SOL    HW2 2813  24.566  14.866  11.388
  677SOL     OW 2814  24.801  15.641  17.411
  677SOL    HW1 2815  24.851  15.726  17.392
  677SOL    HW2 2816  24.713  15.643  17.363
  678SOL     OW 2817  25.147  16.595  23.249
  678SOL    HW1 2818  25.227  16.538  23.270
  678SOL    HW2 2819  25.098  16.555  23.172
  679SOL     OW 2820  24.409  17.044   3.360
  679SOL    HW1 2821  24.329  17.104   3.347
  679SOL    HW2 2822  24.399  16.995   3.446
  680SOL     OW 2823  24.542  18.194   8.509
  680SOL    HW1 2824  24.464  18.163   8.456
  680SOL    HW2 2825  24.600  18.252   8.452
  681SOL     OW 2826  24.825  18.326  10.594
  681SOL    HW1 2827  24.820  18.408  10.651
  681SOL    HW2 2828  24.914  18.323  10.549
  682SOL     OW 2829  26.068  18.328  21.334
  682SOL    HW1 2830  25.997  18.316  21.264
  682SOL    HW2 2831  26.069  18.249  21.394
  683SOL     OW 2832  24.456  20.406   1.241
  683SOL    HW1 2833  24.513  20.341   1.291
  683SOL    HW2 2834  24.440  20.373   1.148
  684SOL     OW 2835  25.342  19.324   2.579
  684SOL    HW1 2836  25.399  19.402   2.554
  684SOL    HW2 2837  25.282  19.350   2.655
  685SOL     OW 2838  25.569  21.627   7.993
  685SOL    HW1 2839  25.652  21.598   7.945
  685SOL    HW2 2840  25.520  21.694   7.937
  686SOL     OW 2841  25.754  20.705  11.039
  686SOL    HW1 2842  25.749  20.742  11.131
  686SOL    HW2 2843  25.682  20.636  11.027
  687SOL     OW 2844  24.645  20.875  27.568
  687SOL    HW1 2845  24.727  20.819  27.577
  687SOL    HW2 2846  24.564  20.817  27.572
  688SOL     OW 2847  24.462  23.693   2.152
  688SOL    HW1 2848  24.366  23.694   2.125
  688SOL    HW2 2849  24.474  23.746   2.236
  689SOL     OW 2850  25.510  23.183   5.628
  689SOL    HW1 2851  25.544  23.090   5.643
  689SOL    HW2 2852  25.528  23.210   5.533
  690SOL     OW 2853  25.558  22.935  10.743
  690SOL    HW1 2854  25.586  22.892  10.828
  690SOL    HW2 2855  25.583  23.031  10.744
  691SOL     OW 2856  24.528  25.150   7.690
  691SOL    HW1 2857  24.610  25.189   7.648
  691SOL    HW2 2858  24.501  25.068   7.641
  692SOL     OW 2859  24.558  26.008  10.163
  692SOL    HW1 2860  24.608  25.922  10.169
  692SOL    HW2 2861  24.623  26.085  10.160
  693SOL     OW 2862  24.574  25.307  19.122
  693SOL    HW1 2863  24.567  25.390  19.066
  693SOL    HW2 2864  24.578  25.227  19.062
  694SOL     OW 2865  25.137  25.885  23.810
  694SOL    HW1 2866  25.113  25.867  23.715
  694SOL    HW2 2867  25.167  25.979  23.820
  695SOL     OW 2868  25.665  24.942  26.797
  695SOL    HW1 2869  25.660  24.877  26.872
  695SOL    HW2 2870  25.745  25.001  26.810
  696SOL     OW 2871  25.558  26.659  20.054
  696SOL    HW1 2872  25.586  26.616  20.139
  696SOL    HW2 2873  25.583  26.755  20.055
  697SOL     OW 2874  24.470  26.395  28.651
  697SOL    HW1 2875  24.391  26.446  28.617
  697SOL    HW2 2876  24.461  26.380  28.749
  698SOL     OW 2877  27.429   0.862  19.666
  698SOL    HW1 2878  27.354   0.862  19.600
  698SOL    HW2 2879  27.466   0.770  19.675
  699SOL     OW 2880  27.824   0.607  24.438
  699SOL    HW1 2881  27.812   0.594  24.339
  699SOL    HW2 2882  27.794   0.526  24.487
  700SOL     OW 2883  27.420   2.452   7.019
  700SOL    HW1 2884  27.448   2.409   7.104
  700SOL    HW2 2885  27.445   2.548   7.020
  701SOL     OW 2886  26.667   2.591   9.580
  701SOL    HW1 2887  26.691   2.660   9.512
  701SOL    HW2 2888  26.589   2.624   9.634
  702SOL     OW 2889  27.733   3.142  13.691
  702SOL    HW1 2890  27.832   3.150  13.705
  702SOL    HW2 2891  27.688   3.226  13.722
  703SOL     OW 2892  27.529   5.229   3.201
  703SOL    HW1 2893  27.553   5.323   3.227
  703SOL    HW2 2894  27.513   5.175   3.283
  704SOL     OW 2895  27.350   4.069  25.151
  704SOL    HW1 2896  27.264   4.019  25.138
  704SOL    HW2 2897  27.412   4.015  25.207
  705SOL     OW 2898  27.661   7.215   1.625
  705SOL    HW1 2899  27.688   7.249   1.535
  705SOL    HW2 2900  27.740   7.177   1.671
  706SOL     OW 2901  27.624   7.097   4.427
  706SOL    HW1 2902  27.567   7.081   4.508
  706SOL    HW2 2903  27.565   7.107   4.347
  707SOL     OW 2904  27.252   6.921  11.291
  707SOL    HW1 2905  27.153   6.910  11.293
  707SOL    HW2 2906  27.286   6.936  11.384
  708SOL     OW 2907  27.498   6.759  13.901
  708SOL    HW1 2908  27.443   6.675  13.894
  708SOL    HW2 2909  27.524   6.788  13.809
  709SOL     OW 2910  27.133   8.795   3.202
  709SOL    HW1 2911  27.053   8.772   3.257
  709SOL    HW2 2912  27.216   8.769   3.251
  710SOL     OW 2913  27.758   8.370   9.922
  710SOL    HW1 2914  27.853   8.341   9.930
  710SOL    HW2 2915  27.750   8.435   9.847
  711SOL     OW 2916  27.416   8.507  12.406
  711SOL    HW1 2917  27.440   8.444  12.332
  711SOL    HW2 2918  27.326   8.547  12.388
  712SOL     OW 2919  27.463   7.917  24.019
  712SOL    HW1 2920  27.443   7.960  24.107
  712SOL    HW2 2921  27.541   7.855  24.028
  713SOL     OW 2922  27.778   9.695   5.105
  713SOL    HW1 2923  27.851   9.764   5.109
  713SOL    HW2 2924  27.806   9.620   5.046
  714SOL     OW 2925  27.369   9.763   4.415
  714SOL    HW1 2926  27.310   9.843   4.419
  714SOL    HW2 2927  27.384   9.728   4.508
  715SOL     OW 2928  26.404  10.745  14.095
  715SOL    HW1 2929  26.326  10.714  14.042
  715SOL    HW2 2930  26.462  10.803  14.038
  716SOL     OW 2931  27.701  10.687  24.288
  716SOL    HW1 2932  27.669  10.781  24.278
  716SOL    HW2 2933  27.625  10.624  24.276
  717SOL     OW 2934  26.199  11.104  27.920
  717SOL    HW1 2935  26.158  11.030  27.973
  717SOL    HW2 2936  26.263  11.155  27.978
  718SOL     OW 2937  27.928  12.690   7.191
  718SOL    HW1 2938  27.942  12.717   7.096
  718SOL    HW2 2939  28.011  12.712   7.244
  719SOL     OW 2940  26.299  12.606  17.297
  719SOL    HW1 2941  26.273  12.702  17.297
  719SOL    HW2 2942  26.228  12.552  17.342
  720SOL     OW 2943  26.557  12.557  20.657
  720SOL    HW1 2944  26.470  12.542  20.704
  720SOL    HW2 2945  26.540  12.583  20.562
  721SOL     OW 2946  26.451  13.734   2.342
  721SOL    HW1 2947  26.496  13.644   2.339
  721SOL    HW2 2948  26.357  13.723   2.375
  722SOL     OW 2949  26.191  13.677   4.287
  722SOL    HW1 2950  26.146  13.589   4.304
  722SOL    HW2 2951  26.190  13.731   4.371
  723SOL     OW 2952  27.263  14.646   5.617
  723SOL    HW1 2953  27.269  14.553   5.654
  723SOL    HW2 2954  27.204  14.646   5.537
  724SOL     OW 2955  27.529  14.539  14.373
  724SOL    HW1 2956  27.553  14.633  14.399
  724SOL    HW2 2957  27.513  14.485  14.455
  725SOL     OW 2958  26.471  13.785  16.495
  725SOL    HW1 2959  26.539  13.840  16.448
  725SOL    HW2 2960  26.511  13.697  16.522
  726SOL     OW 2961  26.659  14.521  19.112
  726SOL    HW1 2962  26.701  14.463  19.042
  726SOL    HW2 2963  26.615  14.600  19.068
  727SOL     OW 2964  27.042  13.924  25.779
  727SOL    HW1 2965  27.088  13.840  25.750
  727SOL    HW2 2966  26.986  13.958  25.704
  728SOL     OW 2967  26.935  15.350   0.642
  728SOL    HW1 2968  26.903  15.422   0.580
  728SOL    HW2 2969  26.959  15.269   0.589
  729SOL     OW 2970  27.196  16.238   5.414
  729SOL    HW1 2971  27.243  16.238   5.502
  729SOL    HW2 2972  27.148  16.151   5.403
  730SOL     OW 2973  27.535  15.486   4.716
  730SOL    HW1 2974  27.505  15.391   4.723
  730SOL    HW2 2975  27.608  15.502   4.782
  731SOL     OW 2976  26.077  18.085  13.234
  731SOL    HW1 2977  25.984  18.106  13.203
  731SOL    HW2 2978  26.087  17.986  13.247
  732SOL     OW 2979  26.471  17.510  20.219
  732SOL    HW1 2980  26.539  17.565  20.172
  732SOL    HW2 2981  26.511  17.422  20.246
  733SOL     OW 2982  26.675  19.585  13.157
  733SOL    HW1 2983  26.682  19.669  13.103
  733SOL    HW2 2984  26.721  19.598  13.245
  734SOL     OW 2985  26.630  18.843  16.044
  734SOL    HW1 2986  26.668  18.759  16.081
  734SOL    HW2 2987  26.542  18.862  16.088
  735SOL     OW 2988  27.101  19.170  27.947
  735SOL    HW1 2989  27.060  19.252  27.908
  735SOL    HW2 2990  27.165  19.196  28.020
  736SOL     OW 2991  26.533  22.226  20.806
  736SOL    HW1 2992  26.566  22.265  20.892
  736SOL    HW2 2993  26.609  22.219  20.741
  737SOL     OW 2994  27.710  23.453  17.191
  737SOL    HW1 2995  27.796  23.455  17.139
  737SOL    HW2 2996  27.724  23.500  17.279
  738SOL     OW 2997  27.701  25.584   7.529
  738SOL    HW1 2998  27.669  25.678   7.519
  738SOL    HW2 2999  27.625  25.521   7.517
  739SOL     OW 3000  27.204  24.910  11.889
  739SOL    HW1 3001  27.261  24.988  11.864
  739SOL    HW2 3002  27.144  24.936  11.965
  740SOL     OW 3003  26.390  27.012   0.242
  740SOL    HW1 3004  26.472  27.051   0.200
  740SOL    HW2 3005  26.363  26.930   0.193
  741SOL     OW 3006  27.369  26.522   2.553
  741SOL    HW1 3007  27.310  26.602   2.557
  741SOL    HW2 3008  27.384  26.487   2.646
  742SOL     OW 3009  27.083  26.305   4.695
  742SOL    HW1 3010  27.075  26.269   4.602
  742SOL    HW2 3011  27.081  26.229   4.760
  743SOL     OW 3012  26.106  27.379  25.489
  743SOL    HW1 3013  26.159  27.330  25.557
  743SOL    HW2 3014  26.128  27.477  25.494
  744SOL     OW 3015  28.303   5.012  14.524
  744SOL    HW1 3016  28.290   5.105  14.490
  744SOL    HW2 3017  28.219   4.960  14.511
  745SOL     OW 3018  27.995   5.288  23.676
  745SOL    HW1 3019  27.949   5.370  23.642
  745SOL    HW2 3020  28.093   5.307  23.685
  746SOL     OW 3021  28.298   6.686   4.225
  746SOL    HW1 3022  28.291   6.769   4.169
  746SOL    HW2 3023  28.302   6.606   4.165
  747SOL     OW 3024  28.282   7.387  23.198
  747SOL    HW1 3025  28.332   7.301  23.204
  747SOL    HW2 3026  28.347   7.464  23.195
  748SOL     OW 3027  27.958   7.182  24.324
  748SOL    HW1 3028  27.939   7.086  24.345
  748SOL    HW2 3029  27.925   7.240  24.399
  749SOL     OW 3030  28.238   7.511   4.342
  749SOL    HW1 3031  28.227   7.605   4.375
  749SOL    HW2 3032  28.233   7.448   4.419
  750SOL     OW 3033  27.970   8.525   7.748
  750SOL    HW1 3034  28.069   8.514   7.739
  750SOL    HW2 3035  27.930   8.439   7.780
  751SOL     OW 3036  28.003   9.476   7.766
  751SOL    HW1 3037  27.986   9.559   7.712
  751SOL    HW2 3038  28.093   9.439   7.744
  752SOL     OW 3039  28.321  12.913  10.870
  752SOL    HW1 3040  28.230  12.954  10.868
  752SOL    HW2 3041  28.314  12.819  10.902
  753NA      NA 3042   1.450   3.082  12.805
  754NA      NA 3043   1.795   2.928  17.632
  755NA      NA 3044   1.674  10.193  19.875
  756NA      NA 3045   0.402  10.061  22.081
  757NA      NA 3046   1.638  12.271   4.803
  758NA      NA 3047   0.130  14.855  22.054
  759NA      NA 3048   1.622  13.401  24.581
  760NA      NA 3049   0.255  16.245  24.497
  761NA      NA 3050   0.189  17.279  16.619
  762NA      NA 3051   1.632  18.136  24.288
  763NA      NA 3052   1.594  18.735   1.480
  764NA      NA 3053   0.606  19.585   7.571
  765NA      NA 3054   0.768  21.627  10.333
  766NA      NA 3055   0.875  27.715  28.268
  767NA      NA 3056   2.842   5.297  20.321
  768NA      NA 3057   3.494   6.963  14.977
  769NA      NA 3058   3.484   7.815   4.098
  770NA      NA 3059   2.632   8.778   5.887
  771NA      NA 3060   2.938  21.166  20.085
  772NA      NA 3061   2.534  20.686  27.558
  773NA      NA 3062   2.727  22.693   0.195
  774NA      NA 3063   2.669  22.950  25.672
  775NA      NA 3064   5.279   1.511  15.599
  776NA      NA 3065   4.338   3.846   9.427
  777NA      NA 3066   4.788   6.933  25.547
  778NA      NA 3067   4.732  16.353   0.477
  779NA      NA 3068   3.829  25.220  24.071
  780NA      NA 3069   4.664  27.767   8.352
  781NA      NA 3070   3.926  26.354  18.257
  782NA      NA 3071   5.075  26.659  25.640
  783NA      NA 3072   3.802  28.487  23.731
  784NA      NA 3073   6.697   1.195   6.686
  785NA      NA 3074   6.516   3.540   8.913
  786NA      NA 3075   6.976   6.161  26.147
  787NA      NA 3076   7.015   6.759  28.798
  788NA      NA 3077   6.627  15.597  11.601
  789NA      NA 3078   5.775  17.279   5.446
  790NA      NA 3079   6.258  18.824  18.248
  791NA      NA 3080   7.488   2.406  14.148
  792NA      NA 3081   9.115   5.438   4.296
  793NA      NA 3082   8.370   4.227  17.658
  794NA      NA 3083   7.952  10.878   6.496
  795NA      NA 3084   7.907  10.462  21.224
  796NA      NA 3085   7.456  12.498   3.924
  797NA      NA 3086   8.817  12.122   5.384
  798NA      NA 3087   8.461  13.139  24.115
  799NA      NA 3088   8.038  16.384  19.112
  800NA      NA 3089   8.336  18.273  17.954
  801NA      NA 3090   9.174  16.894  21.006
  802NA      NA 3091   8.642  23.957  18.652
  803NA      NA 3092   7.536  26.008  19.548
  804NA      NA 3093   9.329   0.368  24.854
  805NA      NA 3094  10.026   2.427  24.053
  806NA      NA 3095  10.960   5.444  25.601
  807NA      NA 3096  10.612  15.751  24.516
  808NA      NA 3097   9.350  19.165   1.114
  809NA      NA 3098   9.627  22.596  26.008
  810NA      NA 3099  10.897  24.986  20.291
  811NA      NA 3100  12.107   5.822  11.652
  812NA      NA 3101  11.762   7.073  17.250
  813NA      NA 3102  12.748   7.248  20.790
  814NA      NA 3103  12.031  14.408   3.740
  815NA      NA 3104  11.302  16.691  18.610
  816NA      NA 3105  12.248  19.304  10.774
  817NA      NA 3106  12.519  21.542   1.234
  818NA      NA 3107  11.904  26.703  15.961
  819NA      NA 3108  11.511  28.440  15.903
  820NA      NA 3109  13.283   5.509  18.000
  821NA      NA 3110  13.900   6.040   0.642
  822NA      NA 3111  14.172   7.828  22.161
  823NA      NA 3112  14.637  11.619  23.082
  824NA      NA 3113  14.308  15.282   1.262
  825NA      NA 3114  14.581  18.843  18.488
  826NA      NA 3115  13.373  22.854  10.316
  827NA      NA 3116  14.057  26.835  15.863
  828NA      NA 3117  16.331   3.050  13.075
  829NA      NA 3118  16.024   6.927  16.587
  830NA      NA 3119  15.581   6.598  19.286
  831NA      NA 3120  16.032  13.737  15.613
  832NA      NA 3121  16.297  13.141  20.909
  833NA      NA 3122  16.627  17.693   5.241
  834NA      NA 3123  16.473  18.421  11.479
  835NA      NA 3124  16.200  21.321  24.249
  836NA      NA 3125  15.465  23.620  21.648
  837NA      NA 3126  15.677  24.471  20.370
  838NA      NA 3127  17.078   2.672  10.259
  839NA      NA 3128  18.062   2.700  18.663
  840NA      NA 3129  16.990   9.161   9.793
  841NA      NA 3130  18.400  10.418   0.432
  842NA      NA 3131  17.767  10.766  11.649
  843NA      NA 3132  18.381  20.850  13.408
  844NA      NA 3133  16.881  22.988   9.873
  845NA      NA 3134  17.618  27.025   4.585
  846NA      NA 3135  20.480   8.966  10.915
  847NA      NA 3136  20.045  13.248  10.422
  848NA      NA 3137  19.556  18.857   2.342
  849NA      NA 3138  19.023  19.372  25.805
  850NA      NA 3139  18.942  21.426  15.138
  851NA      NA 3140  18.988  25.307   7.949
  852NA      NA 3141  19.509  27.583  19.816
  853NA      NA 3142  21.500   0.039  10.063
  854NA      NA 3143  21.594   1.776  24.444
  855NA      NA 3144  21.708   4.049  19.070
  856NA      NA 3145  21.551   8.781   4.573
  857NA      NA 3146  21.907  13.248   8.560
  858NA      NA 3147  20.562  14.274  19.274
  859NA      NA 3148  21.907  18.835  25.319
  860NA      NA 3149  21.333  23.143  12.995
  861NA      NA 3150  20.873  25.948  27.629
  862NA      NA 3151  20.987  27.981  22.223
  863NA      NA 3152  20.555  28.097  20.801
  864NA      NA 3153  23.384   4.822  15.592
  865NA      NA 3154  23.774  12.345  15.763
  866NA      NA 3155  23.803  19.356  17.487
  867NA      NA 3156  22.872  20.739   7.776
  868NA      NA 3157  23.648  21.321  20.525
  869NA      NA 3158  23.325  25.780   9.148
  870NA      NA 3159  23.707  25.351  15.441
  871NA      NA 3160  22.958  25.572  19.347
  872NA      NA 3161  23.838  25.974  21.442
  873NA      NA 3162  25.845   6.685  12.251
  874NA      NA 3163  25.066  17.715   2.723
  875NA      NA 3164  25.390  18.094   5.705
  876NA      NA 3165  24.437  20.055  24.745
  877NA      NA 3166  25.507  22.798   4.415
  878NA      NA 3167  27.701   5.101   3.805
  879NA      NA 3168  26.596   7.704  11.500
  880NA      NA 3169  26.675   8.412  15.019
  881NA      NA 3170  26.106  14.344   8.730
  882NA      NA 3171  27.180  14.229  15.997
  883NA      NA 3172  27.733  18.039  13.691
  884NA      NA 3173  26.839  19.951   0.301
  885NA      NA 3174  27.726  22.949  27.275
  886NA      NA 3175  27.609  24.481   5.711
  887NA      NA 3176  26.199  27.863   7.437
  888NA      NA 3177  27.070  27.965  17.913
  889NA      NA 3178  28.266   5.159  27.130
  890NA      NA 3179  28.341  10.123  27.320
  891NA      NA 3180  27.950  28.299  11.819
  892CL      CL 3181   1.160   5.793  27.546
  893CL      CL 3182   0.973  12.062   5.296
  894CL      CL 3183   0.076  11.983  11.961
  895CL      CL 3184   0.781  15.160  24.094
  896CL      CL 3185   0.807  19.226  10.775
  897CL      CL 3186   0.064  25.771  16.228
  898CL      CL 3187   0.037  27.379  12.454
  899CL      CL 3188   1.400  28.038   9.736
  900CL      CL 3189   3.000   0.380   7.264
  901CL      CL 3190   2.272   0.813  25.458
  902CL      CL 3191   2.665   5.126  19.545
  903CL      CL 3192   3.438   5.386  24.514
  904CL      CL 3193   2.567   8.498   7.816
  905CL      CL 3194   2.669  11.777  14.499
  906CL      CL 3195   2.092  13.662   7.561
  907CL      CL 3196   3.209  14.093  12.406
  908CL      CL 3197   3.136  15.282  10.572
  909CL      CL 3198   3.134  16.342  25.349
  910CL      CL 3199   3.087  17.084  19.070
  911CL      CL 3200   2.216  20.131  18.088
  912CL      CL 3201   2.475  21.325  21.914
  913CL      CL 3202   1.945  25.465  27.091
  914CL      CL 3203   4.114   3.603  25.767
  915CL      CL 3204   4.907   6.921   9.429
  916CL      CL 3205   4.765   6.287  17.188
  917CL      CL 3206   5.429  10.797   8.552
  918CL      CL 3207   5.454  13.968   5.241
  919CL      CL 3208   4.907  21.818  22.464
  920CL      CL 3209   4.395  22.809  19.890
  921CL      CL 3210   4.995  27.866  24.798
  922CL      CL 3211   4.106  26.769  26.549
  923CL      CL 3212   4.041  28.182  18.560
  924CL      CL 3213   6.180   0.745  17.411
  925CL      CL 3214   6.813   5.274  10.816
  926CL      CL 3215   6.938   3.776  11.340
  927CL      CL 3216   6.980   6.055   1.674
  928CL      CL 3217   7.079  11.077   0.959
  929CL      CL 3218   6.451   9.658  16.954
  930CL      CL 3219   6.858  12.617   3.004
  931CL      CL 3220   6.398  18.345  13.721
  932CL      CL 3221   6.955  17.709  24.005
  933CL      CL 3222   7.046  23.850  14.373
  934CL      CL 3223   7.316  25.141   8.965
  935CL      CL 3224   7.802   7.096  27.398
  936CL      CL 3225   7.838   9.189  27.629
  937CL      CL 3226   8.836  14.607  11.649
  938CL      CL 3227   8.973  27.068   9.500
  939CL      CL 3228   9.814   0.050  11.050
  940CL      CL 3229  10.760   1.220  27.702
  941CL      CL 3230  10.232   2.365  25.106
  942CL      CL 3231  10.913   4.171  21.220
  943CL      CL 3232   9.664   7.096  27.398
  944CL      CL 3233  10.613  10.148  16.801
  945CL      CL 3234   9.565  18.107  11.462
  946CL      CL 3235  10.612  17.614  28.240
  947CL      CL 3236  10.333  19.387  21.449
  948CL      CL 3237   9.900  23.832  20.974
  949CL      CL 3238  11.169  25.725  16.502
  950CL      CL 3239  11.833   3.652  10.263
  951CL      CL 3240  11.940   6.730   6.609
  952CL      CL 3241  12.031   8.822   9.326
  953CL      CL 3242  11.770  17.488   5.856
  954CL      CL 3243  12.031  21.857  16.775
  955CL      CL 3244  14.145   7.362   5.823
  956CL      CL 3245  14.110   6.269  25.671
  957CL      CL 3246  14.308  11.558  18.021
  958CL      CL 3247  14.500  20.038  12.125
  959CL      CL 3248  13.654  22.269  14.473
  960CL      CL 3249  13.507  22.845  15.087
  961CL      CL 3250  13.255  25.521  24.189
  962CL      CL 3251  14.286  25.555  26.457
  963CL      CL 3252  15.711   0.572   9.635
  964CL      CL 3253  15.423   2.118   5.914
  965CL      CL 3254  15.510   1.984  26.186
  966CL      CL 3255  15.026   9.269   1.571
  967CL      CL 3256  16.355  13.769   6.314
  968CL      CL 3257  16.149  16.245   0.388
  969CL      CL 3258  15.213  21.030   6.866
  970CL      CL 3259  15.826  22.161  21.948
  971CL      CL 3260  16.489  25.836  14.659
  972CL      CL 3261  15.502  25.171  15.019
  973CL      CL 3262  16.989   0.628  13.147
  974CL      CL 3263  17.373   3.846   7.565
  975CL      CL 3264  18.381   5.953  15.270
  976CL      CL 3265  17.870   6.781  27.169
  977CL      CL 3266  17.161  10.061  10.908
  978CL      CL 3267  17.098  11.681  15.903
  979CL      CL 3268  18.040  18.966   0.944
  980CL      CL 3269  18.252  27.836   0.959
  981CL      CL 3270  17.078  26.879  13.983
  982CL      CL 3271  19.082   1.266   1.727
  983CL      CL 3272  19.662   0.701  13.463
  984CL      CL 3273  20.208   0.779  18.429
  985CL      CL 3274  20.347   1.997   0.523
  986CL      CL 3275  18.697   6.397   0.789
  987CL      CL 3276  19.551  12.850  27.534
  988CL      CL 3277  20.011  17.334  11.250
  989CL      CL 3278  19.219  19.350  28.201
  990CL      CL 3279  21.708   7.773  13.483
  991CL      CL 3280  21.834  11.762   1.433
  992CL      CL 3281  22.121  14.133  10.389
  993CL      CL 3282  20.558  17.104  24.240
  994CL      CL 3283  20.672  19.141   1.722
  995CL      CL 3284  22.340  19.454  11.549
  996CL      CL 3285  20.562  19.861  21.136
  997CL      CL 3286  21.559  19.304  27.533
  998CL      CL 3287  21.763  19.548  26.741
  999CL      CL 3288  22.213  21.417   3.379
 1000CL      CL 3289  22.150  22.197   6.158
 1001CL      CL 3290  21.188  21.533   7.816
 1002CL      CL 3291  21.418  22.581   4.204
 1003CL      CL 3292  22.237  23.568  18.347
 1004CL      CL 3293  22.342  27.587   7.191
 1005CL      CL 3294  22.951   6.550   7.571
 1006CL      CL 3295  23.017  10.701  25.831
 1007CL      CL 3296  22.755  11.985  14.285
 1008CL      CL 3297  22.421  13.845   6.375
 1009CL      CL 3298  23.626  13.379  15.841
 1010CL      CL 3299  22.585  15.988   4.610
 1011CL      CL 3300  23.480  15.599  17.476
 1012CL      CL 3301  23.938  16.980   8.330
 1013CL      CL 3302  23.995  22.203   3.256
 1014CL      CL 3303  24.204  25.725   9.053
 1015CL      CL 3304  23.570  24.532  11.621
 1016CL      CL 3305  23.811  27.486  19.574
 1017CL      CL 3306  25.401   7.198   3.755
 1018CL      CL 3307  25.010  10.712  25.131
 1019CL      CL 3308  26.068  10.879  26.920
 1020CL      CL 3309  25.367  15.103  25.684
 1021CL      CL 3310  24.895  27.731  14.750
 1022CL      CL 3311  26.436   1.100  15.397
 1023CL      CL 3312  26.404   5.159   2.923
 1024CL      CL 3313  27.846  11.514   1.642
 1025CL      CL 3314  27.371  12.027  13.343
 1026CL      CL 3315  26.881  18.345   4.411
 1027CL      CL 3316  26.419  19.519  24.149
 1028CL      CL 3317  27.795  22.480  19.144
 1029CL      CL 3318  27.340  27.866   2.453
 1030CL      CL 3319  28.019  16.698   4.651
  28.44732  28.44732  28.44732
