PET
   875
   3.5400032   1.4197788   0.0000019   3.9739191   1.8406752   0.9118129
   3.8698782   1.9705135  -0.8846012   2.1173645   1.4178293   0.0819797
   1.5515726   2.6414837   0.2079375   2.1316557   3.7075418   0.2649345
   0.0675948   2.4905359   0.2409320  -0.5372408   1.2269964   0.1839600
  -1.9251774   1.1090463   0.1709642  -2.3592200   0.1140384   0.1149716
   0.0597752   0.3198922   0.1359708  -0.7372009   3.6363412   0.3119111
  -0.2821469   4.6243405   0.3639132  -2.1310920   3.5173966   0.3009150
  -2.7482435   4.4146746   0.3469180  -2.7321042   2.2524969   0.2159340
  -4.2149616   2.1585696   0.1569361  -4.9597932   3.1174376   0.2019157
  -4.5790596   0.8584795   0.0419431  -5.9841234   0.5895508  -0.0220659
  -6.0952246  -0.4048823  -0.4692519  -6.4791911   1.2997206  -0.6942137
  -6.6083255   0.6046114   1.3703496  -7.6832004   0.4137046   1.2853580
  -6.4842346   1.5929573   1.8275037  -5.9802840  -0.4305877   2.2925268
  -6.4682797  -0.4085462   3.2725264  -4.9135387  -0.2356903   2.4444959
  -6.1045512  -1.8604581   1.7471081  -5.6022465  -1.9281026   0.7764696
  -7.1622878  -2.1169344   1.6269485  -5.4860281  -2.7363197   2.6871993
  -5.5482371  -4.0915827   2.2480316  -5.0427130  -4.1987044   1.2803646
  -6.5932498  -4.3972237   2.1140874  -4.8799207  -4.9892068   3.2795877
  -5.3856088  -4.8875528   4.2477587  -3.8333012  -4.6892370   3.4138062
  -4.9484983  -6.3406595   2.8297557  -4.3344179  -7.2271115   3.7612776
  -4.8342898  -7.1558256   4.7362907  -3.2811380  -6.9558005   3.9041088
  -4.4345458  -8.6503774   3.2342770  -3.9337213  -8.7222772   2.2609249
  -5.4874780  -8.9221838   3.0898333  -3.8215248  -9.5346039   4.1686075
  -3.8878217 -10.8851807   3.7189720  -3.3816324 -10.9881088   2.7511977
  -4.9334609 -11.1882471   3.5840706  -3.2186442 -11.7826926   4.7500675
  -3.7253399 -11.6799544   5.7175970  -2.1740914 -11.4793676   4.8846755
  -3.2848354 -13.1339800   4.3025567  -2.6706538 -14.0170884   5.2371826
  -3.1705301 -13.9450651   6.2098862  -1.6178950 -13.7440607   5.3805836
  -2.7681615 -15.4400065   4.7087535  -2.2692916 -15.5094897   3.7353487
  -3.8213635 -15.7105181   4.5638467  -2.1572219 -16.3336374   5.6370060
  -2.2266149 -17.6826478   5.1800251  -1.7101938 -17.7732172   4.2187076
  -3.2740819 -17.9758013   5.0539344  -1.5463327 -18.5664170   6.2353077
  -2.0666586 -18.4618970   7.1919542  -0.5042633 -18.2588765   6.3543005
  -1.6156786 -19.9144816   5.7786481  -2.8680818 -20.3757987   5.5506373
  -3.9066403 -19.7644009   5.7049546  -2.7859617 -21.7760224   5.0420177
  -1.5529208 -22.4279361   4.8998109  -1.4932625 -23.7194232   4.3812062
  -0.5189943 -24.1895771   4.2747832  -0.6230302 -21.9380517   5.1770938
  -3.9640819 -22.4455557   4.6823482  -4.9299868 -21.9551009   4.7937164
  -3.9039582 -23.7433791   4.1634644  -4.8247083 -24.2520641   3.8778795
  -2.6656702 -24.3816223   3.9970385  -2.6276842 -25.7420691   3.3979470
  -3.6146960 -26.3631770   3.0569811  -1.3404995 -26.1529910   3.2963410
  -1.1252684 -27.4551140   2.7406656  -0.0856650 -27.4828986   2.3947338
  -1.7597329 -27.6045551   1.8595651  -1.3524836 -28.5415612   3.7878913
  -1.1977016 -29.5231839   3.3280172  -2.3868392 -28.5059328   4.1485229
  -0.4239216 -28.3893621   4.9841739  -0.5972318 -29.1980897   5.7017729
  -0.5919384 -27.4394252   5.5022619   1.0593801 -28.4321514   4.5899173
   1.2770026 -27.6183967   3.8918630   1.2840947 -29.3891130   4.1120294
   1.8268417 -28.2812498   5.7810749   1.5827943 -27.1456253   6.4768579
   0.7984951 -26.2663813   6.1801596   2.4210563 -27.1413289   7.7111035
   3.3169310 -28.1840016   7.9865053   4.0582764 -28.1842911   9.1658509
   4.7348488 -29.0146108   9.3512912   3.4414705 -29.0147642   7.2966557
   2.2963073 -26.0824899   8.6215439   1.6099717 -25.2617961   8.4182557
   3.0425314 -26.0820763   9.8049080   2.9315540 -25.2590853  10.5109319
   3.9173906 -27.1413495  10.0894613   4.6614296 -27.1392305  11.3769280
   4.5823726 -26.2555285  12.2070158   5.4147655 -28.2622268  11.4628890
   6.2044521 -28.4152392  12.6476279   6.4434277 -29.4815134  12.7322801
   5.6191522 -28.1471536  13.5346285   7.4918258 -27.6009851  12.5563300
   8.0630284 -27.7251426  13.4822552   7.2564841 -26.5353950  12.4546051
   8.3509201 -28.0158510  11.3704433   9.2754832 -27.4294906  11.3507041
   7.8290961 -27.8514564  10.4219186   8.7458266 -29.4988632  11.4171005
   7.8444911 -30.1188511  11.4103722   9.3155439 -29.6979001  12.3283938
   9.5417000 -29.7697213  10.2665153   8.9410240 -29.5050975   9.0822524
   7.8150339 -29.0791537   8.9181086   9.8984180 -29.7951611   7.9753090
  11.1809674 -30.2983838   8.2349973  12.0763530 -30.5207612   7.1913106
  13.0660422 -30.9010403   7.4310439  11.5059248 -30.5118453   9.2500864
   9.5134194 -29.5419761   6.6511951   8.5181005 -29.1577791   6.4328973
  10.4122164 -29.7673757   5.6030730  10.1067761 -29.5585265   4.5777983
  11.7041792 -30.2448921   5.8699419  12.6548512 -30.4290959   4.7414647
  12.3795510 -30.2137669   3.5778203  13.8460721 -30.8597836   5.2226361
  14.8795173 -31.0941873   4.2594799  15.8301535 -31.0711832   4.8044365
  14.9110956 -30.2798787   3.5265950  14.7013526 -32.4512613   3.5847329
  15.4949661 -32.5919925   2.8435194  13.7437699 -32.4839054   3.0525811
  14.7315550 -33.5982565   4.5847199  14.6261704 -34.5557724   4.0640642
  13.9143123 -33.5185809   5.3091445  16.0407455 -33.6498205   5.3852288
  16.1671034 -32.7159873   5.9429152  16.8850037 -33.7804709   4.7002590
  15.9549221 -34.7549544   6.2823294  17.1339616 -34.8675670   7.0764707
  17.2857478 -33.9507839   7.6594618  18.0114808 -35.0022193   6.4320812
  17.0001235 -36.0579128   8.0154318  16.8521779 -36.9772258   7.4354449
  16.1256511 -35.9254131   8.6643931  18.1841713 -36.1601912   8.8034965
  18.1118115 -37.2620348   9.7042349  17.9797557 -38.1981852   9.1458553
  17.2508347 -37.1472417  10.3742726  19.3952315 -37.3247147  10.5180808
  19.5265447 -36.3901869  11.0773873  20.2569765 -37.4381665   9.8488027
  19.3208158 -38.4284473  11.4163356  20.5028345 -38.5302658  12.2056959
  20.6512558 -37.6117245  12.7867829  21.3792275 -38.6631629  11.5594121
  20.3685911 -39.7200292  13.1453372  20.2206936 -40.6384863  12.5639838
  19.4927540 -39.5869150  13.7906325  21.5502521 -39.8240478  13.9349462
  21.4742452 -40.9274740  14.8334441  21.3425395 -41.8612309  14.2749035
  20.6121181 -40.8126329  15.5019927  22.7564375 -40.9883546  15.6493593
  22.8871650 -40.0531424  16.2056905  23.6175828 -41.1009341  14.9791626
  22.6923133 -42.0903148  16.5521592  23.8777947 -42.1852342  17.3389884
  24.0089228 -41.2665909  17.9203014  24.7447594 -42.3227556  16.6844006
  23.7180114 -43.3905211  18.2766483  23.5808805 -44.3001972  17.6846005
  22.8465191 -43.2418477  18.9193351  24.9026622 -43.4853750  19.0629244
  26.0484203 -43.6203909  18.3541755  26.1522118 -43.6755627  17.1448747
  27.2024869 -43.6663398  19.2986770  27.0103936 -43.6107817  20.6863431
  28.1029942 -43.6099787  21.5504451  27.9165910 -43.5547172  22.6199165
  26.0124995 -43.5544669  21.1136663  28.5051416 -43.7482940  18.7868388
  28.6701918 -43.7993523  17.7116307  29.6021410 -43.7495413  19.6550506
  30.6114259 -43.8040207  19.2470360  29.4063699 -43.6659363  21.0418068
  30.5918172 -43.6200705  21.9383447  31.7415754 -43.6748814  21.5494015
  30.1793242 -43.5041957  23.2238203  31.2033940 -43.4520510  24.2234133
  30.7516226 -43.0026908  25.1151498  32.0143382 -42.7867046  23.9057663
  31.7192995 -44.8501047  24.5519913  32.5112277 -44.7742386  25.3044001
  32.1567862 -45.3092952  23.6581427  30.6158108 -45.7632180  25.0667931
  31.0258185 -46.7476636  25.3153602  29.8322393 -45.9061449  24.3153860
  29.9357170 -45.2143472  26.3291981  29.4889385 -44.2398767  26.1109502
  30.6761520 -45.1031520  27.1254648  28.9286088 -46.1453197  26.7160421
  27.9878683 -46.3922005  25.7740372  27.9227617 -45.8986613  24.6657028
  27.0288503 -47.4078284  26.2982971  27.1549848 -47.9276724  27.5942355
  26.2763965 -48.9079390  28.0498767  26.4111094 -49.2958902  29.0563137
  27.9433003 -47.5885818  28.2614276  25.9925236 -47.8639743  25.4715192
  25.8771964 -47.4645906  24.4649839  25.1090692 -48.8469954  25.9301899
  24.3123272 -49.2019702  25.2765117  25.2558734 -49.3843224  27.2178767
  24.3328653 -50.4624919  27.6614705  23.4266949 -50.9041811  26.9832441
  24.6716149 -50.8581483  28.9123620  23.8728933 -51.8938611  29.4954288
  24.4698125 -52.3375811  30.3004233  23.6821786 -52.6873797  28.7638742
  22.5741392 -51.3291620  30.0637849  21.9798758 -52.1466260  30.4852451
  21.9820970 -50.8695403  29.2641288  22.8253246 -50.2788776  31.1363018
  21.8740193 -49.9147679  31.5381319  23.3705516 -49.4188686  30.7336395
  23.6462846 -50.8222535  32.3145295  24.6183906 -51.1714812  31.9541325
  23.1123677 -51.6545073  32.7802929  23.8170368 -49.7591484  33.2479512
  24.4255127 -48.6562272  32.7513246  24.8347110 -48.5006400  31.6179340
  24.4997553 -47.6182033  33.8204637  24.0190040 -47.8688797  35.1133842
  24.0564355 -46.8720572  36.0856973  23.6647096 -47.0985745  37.0740342
  23.5980469 -48.8352722  35.3788080  25.0444868 -46.3617309  33.5202158
  25.4285061 -46.1541811  32.5225319  25.0838016 -45.3615029  34.4975588
  25.5006270 -44.3848187  34.2517040  24.5763454 -45.6078609  35.7821619
  24.5864512 -44.5114117  36.7865850  25.0337451 -43.4012560  36.5775216
  24.0222346 -44.9506248  37.9375744  23.9575726 -44.0132485  39.0182078
  23.1820263 -44.3742392  39.7033573  23.6316160 -43.0321154  38.6544140
  25.2948117 -43.9263450  39.7482183  25.2174748 -43.1903694  40.5553019
  26.0764610 -43.5816569  39.0616103  25.7228874 -45.2684438  40.3244179
  26.6715655 -45.1634590  40.8610864  25.8642887 -46.0150945  39.5360376
  24.6957490 -45.8425969  41.3107180  23.7387431 -45.9873994  40.8008083
  24.5606164 -45.1487697  42.1443798  25.1997958 -47.0896902  41.7811647
  25.4503691 -48.0046632  40.8150625  25.2800926 -47.8645559  39.6202400
  26.0073859 -49.2372753  41.4447161  26.1659698 -49.3372504  42.8341261
  26.7292660 -50.4788704  43.3996791  26.8470554 -50.5168904  44.4796093
  25.8668306 -48.5265874  43.4936033  26.3964565 -50.3088330  40.6286326
  26.2729690 -50.2490438  39.5483099  26.9602515 -51.4560627  41.1971396
  27.2682999 -52.2800155  40.5534721  27.1425322 -51.5405885  42.5856778
  27.7887975 -52.7512843  43.1581511  28.1564825 -53.7027989  42.4981111
  27.8980663 -52.6102411  44.5013533  28.4979738 -53.6982079  45.2134369
  28.8392551 -53.2966513  46.1744236  29.3870650 -54.0583099  44.6832865
  27.4907213 -54.8201766  45.4486062  27.9839536 -55.6419357  45.9781899
  27.1344469 -55.2129549  44.4894348  26.2850200 -54.3508973  46.2501953
  25.5971588 -55.1856126  46.4208486  25.7347915 -53.5654469  45.7216679
  26.6728143 -53.7842426  47.6235020  27.3407360 -52.9278952  47.4916471
  27.1828195 -54.5548638  48.2071856  25.4731182 -53.3803113  48.2778672
  24.7391849 -52.4611908  47.6071398  25.0089166 -51.9587068  46.5343025
  23.5012051 -52.1647753  48.3853479  23.2579120 -52.7716992  49.6255317
  22.0754629 -52.5163080  50.3162114  21.9157623 -53.0131787  51.2697229
  23.9758374 -53.4594459  50.0650276  22.5548240 -51.2757139  47.8566356
  22.7327499 -50.7909495  46.8978516  21.3683088 -51.0178679  48.5515444
  20.6344216 -50.3323792  48.1277346  21.1165619 -51.6487065  49.7791743
  19.8259612 -51.3937366  50.4723619  18.9657913 -50.6441293  50.0547236
  19.7755502 -52.1246830  51.6121869  18.5928199 -51.9900902  52.4082132
  18.5444017 -52.8744335  53.0538204  17.7000133 -52.0086019  51.7727845
  18.6487852 -50.7268676  53.2625038  17.7248293 -50.6442245  53.8443119
  18.7142704 -49.8411151  52.6203431  19.8440172 -50.7232531  54.2047836
  19.8383546 -49.8161559  54.8181086  20.7888892 -50.7485393  53.6519703
  19.8473856 -51.9258230  55.1593870  19.8805583 -52.8535458  54.5805383
  18.9406882 -51.9118733  55.7695955  21.0026128 -51.8167306  55.9865350
  22.1799669 -51.7736051  55.3192318  22.3349149 -51.8274103  54.1153543
  23.2914138 -51.6191003  56.3025314  23.0428794 -51.5768462  57.6816795
  24.0890562 -51.3872596  58.5816905  23.8576726 -51.3486389  59.6430760
  22.0342311 -51.6774113  58.0742152  24.6078103 -51.4955339  55.8362317
  24.8176637 -51.5335478  54.7683190  25.6585082 -51.3072019  56.7405359
  26.6773960 -51.2027195  56.3676405  25.4018465 -51.2378836  58.1181166
  26.5311331 -50.9883410  59.0527874  27.6879192 -50.8611459  58.7036568
  26.0591843 -50.9236917  60.3212943  27.0245853 -50.6927480  61.3534231
  26.4742194 -50.3107062  62.2208085  27.7282641 -49.9089962  61.0504623
  27.7474645 -51.9840814  61.7256862  28.4890224 -51.7706972  62.5025929
  28.2854081 -52.3781678  60.8558997  26.7882071 -53.0571047  62.2205904
  27.3426898 -53.9585928  62.5014696  26.0656932 -53.3352869  61.4462432
  25.9832018 -52.6089455  63.4488302  25.3929733 -51.7228573  63.1972072
  26.6666835 -52.3684675  64.2671651  25.1265014 -53.6856718  63.8194377
  24.2726740 -54.0944679  62.8513568  24.1687231 -53.6329197  61.7322534
  23.4721199 -55.2450797  63.3625022  23.6337324 -55.7201698  64.6716144
  22.9092600 -56.8237658  65.1162093  23.0684700 -57.1712093  66.1338066
  24.3322605 -55.2487983  65.3582266  22.5536880 -55.8743108  62.5103549
  22.4117518 -55.5124442  61.4930901  21.8247524 -56.9813732  62.9578668
  21.1199935 -57.4696027  62.2847794  22.0098730 -57.4704711  64.2597587
  21.2578530 -58.6780309  64.6926957  20.4600788 -59.2698965  63.9930699
  21.6106993 -58.9967073  65.9615415  20.9693506 -60.1403487  66.5371978
  21.6006727 -60.4705483  67.3700342  20.9359433 -60.9640232  65.8149372
  19.5767347 -59.7862164  67.0508973  19.1075818 -60.6835217  67.4677471
  18.9474592 -59.4394644  66.2232552  19.6159636 -58.6948226  68.1109940
  18.6044332 -58.4844817  68.4737446  20.0292019 -57.7632411  67.7104756
  20.4708610 -59.0820099  69.3261851  21.4990032 -59.2737384  69.0052491
  20.0620119 -59.9835262  69.7896068  20.4337186 -57.9928762  70.2443534
  20.8734645 -56.8126214  69.7474246  21.2927959 -56.6079245  68.6256022
  20.7402976 -55.7620694  70.7984579  20.2600091 -56.0700559  72.0791106
  20.1006955 -55.0674241  73.0329437  19.7152979 -55.3412150  74.0117574
  19.9914754 -57.0882852  72.3486801  21.0852692 -54.4380185  70.4927003
  21.4664699 -54.1843174  69.5046503  20.9270809 -53.4316538  71.4515577
  21.1891698 -52.4036779  71.2012081  20.4200586 -53.7398222  72.7229229
  20.2165347 -52.6428938  73.7060277  20.4857699 -51.4777911  73.4909164
  19.6895318 -53.1523428  74.8456569  19.4352309 -52.2234725  75.9054470
  18.7039970 -52.6962607  76.5710177  18.9683352 -51.3131639  75.5123026
  20.7135943 -51.9110506  76.6780113  20.4892244 -51.1866169  77.4678714
  21.4535346 -51.4533773  76.0114984  21.3318702 -53.1581029  77.2937056
  22.2310981 -52.8934547  77.8597227  21.6204697 -53.8824277  76.5248825
  20.3760957 -53.8779838  78.2558489  19.4741242 -54.1829111  77.7170514
  20.1005807 -53.2041547  79.0711371  21.0577572 -55.0203920  78.7665994
  21.4876449 -55.8954690  77.8270501  21.3402242 -55.8008575  76.6247436
  22.2134548 -57.0128643  78.4983858  22.3358306 -57.0671678  79.8939786
  23.0554412 -58.0946245  80.4997362  23.1387487 -58.0985624  81.5835320
  21.8859804 -56.3069958  80.5274945  22.7998179 -58.0179644  77.7163653
  22.7073867 -57.9934769  76.6315714  23.5207205 -59.0508355  78.3251984
  23.9809339 -59.8224633  77.7080320  23.6640003 -59.0860638  79.7204184
  24.4763489 -60.1681254  80.3371852  25.0165842 -61.0561607  79.7080872
  24.5128041 -59.9932419  81.6803575  25.2545569 -60.9598592  82.4327389
  25.4915178 -60.4954253  83.3967755  26.2087187 -61.1780562  81.9396046
  24.4340621 -62.2270910  82.6554220  25.0341769 -62.9507975  83.2167918
  24.1808308 -62.6852712  81.6925301  23.1402135 -61.9488883  83.4071155
  22.5906014 -62.8817567  83.5705411  22.4897199 -61.2702368  82.8455861
  23.3814702 -61.3084884  84.7815741  23.9065208 -60.3569905  84.6558382
  23.9879073 -61.9782934  85.3965897  22.1094228 -61.0957612  85.3876001
  21.2612918 -60.3169234  84.6752790  21.4848277 -59.7917644  83.6026818
  19.9643945 -60.2148285  85.4058254  19.7777690 -60.8365045  86.6485216
  18.5454271 -60.7670529  87.2942453  18.4338049 -61.2704257  88.2511807
  20.5810674 -61.3927480  87.1248344  18.9064791 -59.4982045  84.8288774
  19.0382220 -59.0038912  83.8675142  17.6695778 -59.4269337  85.4786441
  16.8503364 -58.8752969  85.0175147  17.4789339 -60.0737449  86.7089689
  16.1399114 -60.0222172  87.3535872  15.1855451 -59.4277165  86.8931756
  16.1671743 -60.7363220  88.5048196  14.9502751 -60.7846923  89.2581061
  15.0221445 -61.6564477  89.9184797  14.0957372 -60.9562815  88.5936228
  14.7704440 -59.5177875  90.0895439  13.8248785 -59.5783129  90.6384224
  14.7150537 -58.6418272  89.4331587  15.9145573 -59.3077330  91.0710560
  15.7402113 -58.4054301  91.6664365  16.8704325 -59.1868343  90.5507570
  16.0777733 -60.4809323  92.0479987  16.2813382 -61.3986619  91.4883830
  15.1593051 -60.6060555  92.6271441  17.1695440 -60.1748376  92.9111138
  18.3477683 -59.9502656  92.2828856  18.5527497 -59.9943524  91.0861132
  19.3833840 -59.6043726  93.2997052  19.0816459 -59.5845138  94.6687062
  20.0502305 -59.2157093  95.5994457  19.7774692 -59.2009114  96.6515633
  18.0890044 -59.8420778  95.0291125  20.6784703 -59.2751868  92.8754503
  20.9301363 -59.2929655  91.8160783  21.6515612 -58.9068293  93.8106550
  22.6529585 -58.6434763  93.4701425  21.3374904 -58.8616063  95.1773017
  22.3770948 -58.4197007  96.1443131  23.5099568 -58.1112528  95.8317296
  21.8554035 -58.4154648  97.3948511  22.7328720 -58.0171859  98.4541182
  22.0970330 -57.7178828  99.2951548  23.3110986 -57.1338086  98.1599845
  23.6410402 -59.1690661  98.8749253  24.3098119 -58.8278388  99.6720033
  24.2666619 -59.4823001  98.0313034  22.8505867 -60.3767402  99.3578233
  23.5329743 -61.1725105  99.6742437  22.2109769 -60.7787783  98.5651761
  21.9399065 -60.0486677 100.5496636  21.2236993 -59.2734978 100.2615752
  22.5455288 -59.6895725 101.3856787  21.2556813 -61.2450266 100.9118600
  20.5146784 -61.7998317  99.9237193  20.3779791 -61.3762925  98.7931651
  19.8926906 -63.0581011 100.4296375  20.0815821 -63.4831031 101.7522476
  19.5294297 -64.6835351 102.1933143  19.7058482 -64.9868880 103.2221109
  20.6694812 -62.8955173 102.4527378  19.1194170 -63.8393274  99.5593863
  18.9576905 -63.5189375  98.5312249  18.5633181 -65.0438644 100.0032845
  17.9715105 -65.6489129  99.3164220  18.7779177 -65.4789713 101.3197335
  18.2158226 -66.7866053 101.7502117  17.5499931 -67.5093505 101.0356941
  18.5694804 -67.0268011 103.0360022  18.1010431 -68.2515061 103.6115785
  18.7469397 -68.4637458 104.4712226  18.2273095 -69.0792951 102.9044448
  16.6518689 -68.1210895 104.0715367  16.3191700 -69.0769411 104.4894892
  16.0051278 -67.8921166 103.2168359  16.4758724 -67.0236796 105.1113447
  15.4312133 -66.9753491 105.4359621  16.7472992 -66.0428592 104.7071866
  17.3376594 -67.2507608 106.3616289  18.3941826 -67.2774722 106.0789962
  17.0634302 -68.2003621 106.8282173  17.0918371 -66.1698696 107.2571012
  17.3526946 -64.9406838 106.7527485  17.7736640 -64.6857334 105.6418885
  17.0136115 -63.9116545 107.7785095  16.5434852 -64.2762762 109.0480118
  16.1898720 -63.3000715 109.9766835  15.8186999 -63.6196070 110.9470945
  16.4334986 -65.3208732 109.3278137  17.1508581 -62.5534002 107.4592719
  17.5214719 -62.2544912 106.4798743  16.7975698 -61.5732626 108.3929306
  16.8989312 -60.5198367 108.1319329  16.3014438 -61.9425244 109.6522612
  15.8879326 -60.8800589 110.6069049  15.9729055 -59.6897031 110.3787432
  15.4093918 -61.4529236 111.7377673  14.9701984 -60.5634839 112.7705452
  14.3014416 -61.1396541 113.4201668  14.3768170 -59.7463085 112.3447060
  16.1525123 -60.0375295 113.5793603  15.7856273 -59.3485629 114.3473092
  16.8323322 -59.4748731 112.9293768  16.9415734 -61.1594235 114.2390727
  17.7651681 -60.7448680 114.8297167  17.3710236 -61.8375830 113.4942927
  16.0806033 -62.0118380 115.1822446  15.2598301 -62.4662159 114.6194765
  15.6705404 -61.3807561 115.9748562  16.9190513 -63.0216083 115.7372166
  17.5183700 -63.8278812 114.8294407  17.4011132 -63.7745522 113.6212885
  18.3905145 -64.8036597 115.5458793  18.4695772 -64.8186905 116.9455675
  19.3234398 -65.7076137 117.5945539  19.3670932 -65.6834650 118.6804085
  17.8801955 -64.1331291 117.5490605  19.1594743 -65.7107316 114.8032317
  19.1035377 -65.7160980 113.7156825  20.0153750 -66.6047463 115.4554377
  20.6162379 -67.2997108 114.8688475  20.1119833 -66.5975707 116.8550892
  21.0657314 -67.5251814 117.5192217  21.7647566 -68.3221821 116.9256068
  21.0249100 -67.3287193 118.8592818  21.8854805 -68.1520582 119.6543639
  22.0092887 -67.6424648 120.6167578  22.8795417 -68.2191919 119.1976895
  21.2730939 -69.5324922 119.8735907  21.9616194 -70.1416915 120.4684300
  21.1321878 -70.0385389 118.9116768  19.9250005 -69.4577843 120.5761197
  19.5278535 -70.4651707 120.7388216  19.1940798 -68.9012128 119.9802942
  20.0097823 -68.7683750 121.9454188  20.3783347 -67.7460863 121.8192013
  20.6938935 -69.3226472 122.5930478  18.6990323 -68.7566853 122.5043668
  17.7624562 -68.1353398 121.7493364  17.9367606 -67.5952976 120.6750006
  16.4405838 -68.2351696 122.4339907  16.3121370 -68.8621760 123.6813753
  15.0622679 -68.9848797 124.2840528  14.9989875 -69.4868239 125.2461425
  17.1770453 -69.2743290 124.1948269  15.3022869 -67.7074208 121.8083987
  15.3870344 -67.2112111 120.8427306  14.0474814 -67.8290149 122.4149289
  13.1670464 -67.4237896 121.9162038  13.9195809 -68.4816389 123.6502962
  12.5674413 -68.6393456 124.2486408  11.5467935 -68.2137352 123.7452933
  12.6681714 -69.3240822 125.4135504  11.4486905 -69.5590910 126.1264747
  11.6366187 -70.3987183 126.8053893  10.6576837 -69.8758991 125.4371584
  11.0365494 -68.3271045 126.9271151  10.0940019 -68.5328359 127.4450956
  10.8640491 -67.4806022 126.2526573  12.0954666 -67.9211280 127.9421824
  11.7561896 -67.0511558 128.5140778  13.0373913 -67.6537732 127.4519537
  12.4107691 -69.0391224 128.9462372  12.7800633 -69.9190973 128.4113521
  11.5042924 -69.3037897 129.4966010  13.4068194 -68.5484623 129.8394120
  14.5551641 -68.1441983 129.2467983  14.8076606 -68.1704857 128.0586150
  15.4838516 -67.6213191 130.2909252  15.1336306 -67.6323225 131.6484332
  15.9956183 -67.0988630 132.6038636  15.6862358 -67.1144058 133.6457897
  14.1833105 -68.0426263 131.9802638  16.7231697 -67.0921484 129.9040493
  17.0124920 -67.0830654 128.8542250  17.5895124 -66.5583391 130.8641008
  18.5468133 -66.1406367 130.5523319  17.2231144 -66.5463484 132.2183599
  18.1420161 -65.9287571 133.2110179  19.2206691 -65.4448637 132.9306969
  17.5816825 -65.9924381 134.4430877  18.3444068 -65.4429536 135.5233388
  17.6385995 -65.2395026 136.3367635  18.7824926 -64.4815088 135.2319273
  19.4110126 -66.4265362 135.9961952  19.9866118 -65.9707057 136.8085555
  20.1090887 -66.6454242 135.1801108  18.8092290 -67.7398474 136.4753134
  19.5993847 -68.4100874 136.8295128  18.2720577 -68.2508885 135.6695163
  17.8150570 -67.5478884 137.6295347  16.9938551 -66.9030799 137.3029073
  18.3240846 -67.0841491 138.4783491  17.3205648 -68.8344226 137.9913802
  16.7151521 -69.5152591 136.9897550  16.5527135 -69.1346874 135.8473873
  16.2868540 -70.8508580 137.4984792  16.4940645 -71.2218343 138.8345347
  16.1276313 -72.4899087 139.2796896  16.3134901 -72.7468177 140.3194123
  16.9535776 -70.5373413 139.5429739  15.6819546 -71.7587515 136.6178941
  15.5078084 -71.4826411 135.5789730  15.3121906 -73.0314785 137.0658246
  14.8511532 -73.7336526 136.3712053  15.5466101 -73.4083377 138.3967768
  15.1880807 -74.7839394 138.8330628  14.6740654 -75.6146178 138.1105764
  15.5292422 -74.9463423 140.1343157  15.2444336 -76.2229855 140.7171450
  15.8846696 -76.3161149 141.6018149  15.5282873 -77.0287331 140.0305491
  13.7775816 -76.3231957 141.1257755  13.5888752 -77.3146657 141.5505132
  13.1336297 -76.2136270 140.2456979  13.3890922 -75.2550304 142.1379924
  12.3393242 -75.3724348 142.4264858  13.5128387 -74.2486777 141.7245121
  14.2305286 -75.3225525 143.4205207  15.2869863 -75.1813305 143.1739655
  14.0967178 -76.2977203 143.8956957  13.7810600 -74.2839452 144.2864871
  13.8578588 -73.0355953 143.7677962  14.2719254 -72.7306488 142.6669867
  13.3200944 -72.0615393 144.7618226  12.8695465 -72.4805422 146.0216031
  12.3294968 -71.5622642 146.9191335  11.9800508 -71.9247396 147.8824964
  12.9198098 -73.5253025 146.3174386  13.2474431 -70.7034105 144.4215110
  13.5999969 -70.3614975 143.4495427  12.7068981 -69.7811324 145.3239605
  12.6460225 -68.7288080 145.0464581  12.2318268 -70.2090670 146.5727952
  11.6178261 -69.2150455 147.4926286  11.5174710 -68.0298350 147.2447779
  11.1976447 -69.8427375 148.6175621  10.5834604 -69.0225535 149.6179120
   9.9936034 -69.6908076 150.2556590   9.8815737 -68.3182234 149.1569454
  11.6352293 -68.3010068 150.4556642  11.1343210 -67.6704435 151.1976249
  12.2381940 -67.6442968 149.8181836  12.5708985 -69.2711207 151.1626906
  13.2947860 -68.7205938 151.7725529  13.1309246 -69.8805627 150.4457693
  11.8255300 -70.2391789 152.0926057  11.1092005 -70.8287044 151.5109212
  11.2895261 -69.6713643 152.8602719  12.7962450 -71.0926555 152.6949063
  12.1817616 -72.0355869 153.5705584  11.4638776 -72.6532361 153.0168789
  11.6309632 -71.5123628 154.3619286  13.2518887 -72.9222460 154.1911609
  13.9694176 -72.3080354 154.7491096  13.8027455 -73.4503630 153.4030884
  12.6257833 -73.8600530 155.0640791  13.5855156 -74.7190152 155.6737699
  14.3072678 -74.1279868 156.2528754  14.1427714 -75.2694476 154.9057209
  12.8668921 -75.6965809 156.5910412  12.1469328 -76.2883928 156.0123994
  12.3082138 -75.1470331 157.3586900  13.8291239 -76.5527656 157.2006991
  13.2041615 -77.4915930 158.0717044  12.4870054 -78.1069408 157.5145301
  12.6526092 -76.9663784 158.8612287  14.2741983 -78.3788839 158.6915592
  14.9909163 -77.7633443 159.2490854  14.8251161 -78.9031986 157.9023827
  13.6511292 -79.3178623 159.5637573  14.6142154 -80.1740804 160.1720176
  15.3339454 -79.5829909 160.7497874  15.1720407 -80.7228838 159.4032168
  13.8952933 -81.1535695 161.0870003  13.1748998 -81.7423698 160.5077219
  13.3362692 -80.6030498 161.8537005  14.8498672 -82.0156794 161.7026552
  14.2172289 -82.9526132 162.5717928  13.5114935 -83.5658607 162.0018016
  13.6744752 -82.4178045 163.3581916  15.3154968 -83.8341723 163.1834416
  16.0174331 -83.2096749 163.7439096  15.8517308 -84.3568212 162.3872380
  14.6833023 -84.7704478 164.0519710  13.9479929 -84.2195412 165.0465251
  13.7916622 -83.0342922 165.2632521  13.3166562 -85.3095022 165.8461895
  13.5502099 -86.6595833 165.5489731  12.9164881 -87.6626289 166.2788671
  13.1127171 -88.6982406 166.0132140  14.2158528 -86.9498901 164.7401403
  12.4588564 -84.9759158 166.9037828  12.2730708 -83.9318386 167.1513862
  11.8241714 -85.9835807 167.6379405  11.1516614 -85.7139742 168.4522762
  12.0392940 -87.3328675 167.3192613  11.3140420 -88.3815037 168.0844675
  10.5506115 -88.1496808 169.0007955  11.6382871 -89.6019922 167.5932466
  11.0263795 -90.7311483 168.2266496  11.0878828 -91.5634407 167.5162111
   9.9618651 -90.5398325 168.4039159  11.7545360 -91.0960637 169.5171149
  11.2528277 -91.9496203 169.9848274  11.7095663 -90.2595463 170.2238202
  13.2175693 -91.4380250 169.2740507  13.7011279 -91.7183052 170.2156658
  13.7635119 -90.5851458 168.8574349  13.3961729 -92.6089509 168.2970725
  12.9476143 -92.3535466 167.3325001  12.9071115 -93.4997875 168.6994131
  14.7949156 -92.8367295 168.1478718  15.5018951 -91.7716554 167.7016508
  15.0618972 -90.6754858 167.4169776  16.9460226 -92.1402217 167.6329575
  17.3849286 -93.4298917 167.9641927  18.7422245 -93.7420575 167.9368170
  19.0470223 -94.7489092 168.2105265  16.6816029 -94.2041887 168.2597702
  17.8836456 -91.1719509 167.2470574  17.5575087 -90.1678550 166.9799487
  19.2465314 -91.4864043 167.2176907  19.9686469 -90.7240208 166.9254227
  19.6837989 -92.7703051 167.5765848  21.1418010 -93.0624592 167.5832829
  21.9981355 -92.2591746 167.2707925  21.3428915 -94.3387693 167.9914743
  22.7017960 -94.7867269 168.0492351  22.7198949 -95.6549954 168.7178144
  23.3384365 -94.0193076 168.5041772  23.2054375 -95.1871886 166.6655256
  24.2498965 -95.5072344 166.7410318  23.1728914 -94.3252060 165.9894023
  22.3746801 -96.3060366 166.0535573  22.7787269 -96.5839605 165.0745121
  21.3332338 -95.9989299 165.9117828  22.3575757 -97.5720594 166.9220889
  21.9327158 -97.3380862 167.9038097  23.3795238 -97.9444763 167.0483926
  21.5553569 -98.5432449 166.2537179  21.4777986 -99.7532428 167.0042948
  21.0444047 -99.5574544 167.9928521  22.4819527-100.1678768 167.1564861
  20.6160002-100.7594122 166.2550214  21.0488072-100.9605994 165.2672912
  19.6095020-100.3500618 166.1040164  20.5461095-101.9641890 167.0146950
  19.7476192-102.9442088 166.3569721  20.1701844-103.1753452 165.3702510
  18.7301198-102.5634535 166.2048884  19.7059934-104.2046597 167.2072496
  19.2822700-103.9743619 168.1925568  20.7232184-104.5854655 167.3610329
  18.9086056-105.1833475 166.5462141  18.8365583-106.3869963 167.3055979
  18.4030584-106.1870537 168.2932769  19.8417437-106.7990227 167.4580625
  17.9739616-107.3928253 166.5567861  18.4079576-107.5929672 165.5693654
  16.9699074-106.9806398 166.4044896  17.9015423-108.5976368 167.3142884
  17.1031279-109.5751493 166.6527533  17.5259839-109.8050396 165.6680913
  16.0863185-109.1929517 166.4996760  17.0590761-110.8345524 167.5044600
  16.6376011-110.6022026 168.4891369  18.0767735-111.2140443 167.6583654
  16.2630308-111.8211706 166.8514881  16.1948528-113.0220530 167.6174574
  15.7523075-112.8102424 168.5963931  17.2023984-113.4268646 167.7588946
  15.3210614-114.0186844 166.8424299  15.7700662-114.2167414 165.8635565
  14.3194681-113.5984030 166.7038680  15.2528850-115.2195675 167.6083984
  14.4639653-116.2078161 166.9492728  14.8928553-116.4399143 165.9666270
  13.4458312-115.8323252 166.7885911  14.4168485-117.4685391 167.8006491
  13.9846666-117.2408187 168.7828768  15.4330407-117.8495557 167.9606137
  13.6257390-118.4484632 167.1317914  13.5485694-119.6540233 167.8876319
  13.1032840-119.4550928 168.8713755  14.5531828-120.0632062 168.0511263
  12.6968231-120.6619890 167.1313420  13.1424059-120.8622099 166.1491116
  11.6923393-120.2531632 166.9661677  12.6198340-121.8655706 167.8903473
  11.8310732-122.8461320 167.2217810  12.2629070-123.0752247 166.2397193
  10.8139709-122.4680670 167.0606020  11.7847609-124.1071911 168.0727035
  11.3524242-123.8779232 169.0545030  12.8011457-124.4843792 168.2336604
  10.9955131-125.0887029 167.4061095  10.9200872-126.2920972 168.1655686
  10.4754014-126.0922254 169.1471601  11.9252082-126.6996852 168.3299243
  10.0707947-127.3010768 167.4078725  10.5161615-127.4982221 166.4260384
   9.0668653-126.8909852 167.2424650   9.9872223-128.5101131 168.1593530
   9.1974049-129.4865340 167.4838777   9.6441408-129.7125421 166.5100336
   8.1837631-129.1007656 167.3330868   9.1660936-130.7465523 168.3607053
   8.7244901-130.5063806 169.3323740  10.1840883-131.1165840 168.5070347
   8.3768285-131.7222878 167.6857047   7.1077983-131.3385812 167.4106639
   6.5950512-130.2725553 167.6879799   6.4167503-132.4356197 166.6724070
   7.0644521-133.6479261 166.3960024   6.4178361-134.6431104 165.6666568
   6.9547672-135.5657434 165.4616635   8.0821694-133.8304929 166.7313975
   5.1001495-132.2423675 166.2310230   4.5812413-131.3089622 166.4441188
   4.4503227-133.2428729 165.5003281   3.4300155-133.0794397 165.1533944
   5.1120284-134.4435794 165.2022368   4.4147421-135.4696968 164.3824539
   3.2805335-135.3502523 163.9634923   5.2409239-136.5254461 164.1853699
   4.7183821-137.6131358 163.4143282   5.5799627-138.1817828 163.0461768
   4.1841761-137.2363750 162.5346173   3.8301201-138.5128303 164.2688551
   3.4333296-139.3223664 163.6473781   2.9761391-137.9430959 164.6526976
   4.5814054-139.1037585 165.4532782   3.9216928-139.7617966 166.0284219
   4.9446953-138.3208028 166.1270926
