GROningen MAchine for Chemical Simulation
  875
    1PET     C9    1   0.354   0.142   0.000
    1PET     H6    2   0.397   0.184   0.091
    1PET     H7    3   0.387   0.197  -0.088
    1PET     O2    4   0.212   0.142   0.008
    1PET     C8    5   0.155   0.264   0.021
    1PET     O1    6   0.213   0.371   0.026
    1PET     C4    7   0.007   0.249   0.024
    1PET     C5    8  -0.054   0.123   0.018
    1PET     C6    9  -0.193   0.111   0.017
    1PET     H4   10  -0.236   0.011   0.011
    1PET     H3   11   0.006   0.032   0.014
    1PET     C3   12  -0.074   0.364   0.031
    1PET     H2   13  -0.028   0.462   0.036
    1PET     C2   14  -0.213   0.352   0.030
    1PET     H1   15  -0.275   0.441   0.035
    1PET     C1   16  -0.273   0.225   0.022
    1PET     C7   17  -0.421   0.216   0.016
    1PET     O3   18  -0.496   0.312   0.020
    1PET     O4   19  -0.458   0.086   0.004
    1PET    C10   20  -0.598   0.059  -0.002
    1PET     H8   21  -0.610  -0.040  -0.047
    1PET     H9   22  -0.648   0.130  -0.069
    1PET    C11   23  -0.661   0.060   0.137
    1PET    H10   24  -0.768   0.041   0.129
    1PET    H11   25  -0.648   0.159   0.183
    1PET    C12   26  -0.598  -0.043   0.229
    1PET    H13   27  -0.647  -0.041   0.327
    1PET    H14   28  -0.491  -0.024   0.244
    2PET     C9   29  -0.610  -0.186   0.175
    2PET     H6   30  -0.560  -0.193   0.078
    2PET     H7   31  -0.716  -0.212   0.163
    2PET     O2   32  -0.549  -0.274   0.269
    2PET     C8   33  -0.418  -0.247   0.294
    2PET     O1   34  -0.351  -0.158   0.245
    2PET     C4   35  -0.368  -0.343   0.397
    2PET     C5   36  -0.451  -0.444   0.448
    2PET     C6   37  -0.404  -0.530   0.547
    2PET     H4   38  -0.471  -0.607   0.586
    2PET     H3   39  -0.553  -0.456   0.414
    2PET     C3   40  -0.237  -0.331   0.444
    2PET     H2   41  -0.171  -0.254   0.404
    2PET     C2   42  -0.189  -0.418   0.543
    2PET     H1   43  -0.087  -0.407   0.579
    2PET     C1   44  -0.273  -0.517   0.596
    2PET     C7   45  -0.221  -0.605   0.704
    2PET     O3   46  -0.109  -0.598   0.750
    2PET     O4   47  -0.319  -0.690   0.743
    2PET    C10   48  -0.286  -0.782   0.848
    2PET     H8   49  -0.380  -0.817   0.891
    2PET     H9   50  -0.230  -0.732   0.927
    2PET    C11   51  -0.208  -0.902   0.792
    2PET    H10   52  -0.182  -0.969   0.874
    2PET    H11   53  -0.114  -0.868   0.747
    2PET    C12   54  -0.287  -0.978   0.687
    2PET    H13   55  -0.230  -1.064   0.651
    2PET    H14   56  -0.310  -0.914   0.600
    3PET     C9   57  -0.421  -1.030   0.740
    3PET     H6   58  -0.483  -0.947   0.774
    3PET     H7   59  -0.403  -1.098   0.824
    3PET     O2   60  -0.486  -1.099   0.633
    3PET     C8   61  -0.508  -1.025   0.523
    3PET     O1   62  -0.480  -0.908   0.507
    3PET     C4   63  -0.573  -1.110   0.418
    3PET     C5   64  -0.604  -1.244   0.444
    3PET     C6   65  -0.660  -1.324   0.344
    3PET     H4   66  -0.682  -1.428   0.366
    3PET     H3   67  -0.584  -1.289   0.541
    3PET     C3   68  -0.600  -1.055   0.292
    3PET     H2   69  -0.577  -0.951   0.271
    3PET     C2   70  -0.657  -1.135   0.192
    3PET     H1   71  -0.677  -1.092   0.094
    3PET     C1   72  -0.685  -1.270   0.217
    3PET     C7   73  -0.741  -1.354   0.107
    3PET     O3   74  -0.765  -1.312  -0.004
    3PET     O4   75  -0.757  -1.481   0.151
    3PET    C10   76  -0.811  -1.575   0.057
    3PET     H8   77  -0.784  -1.674   0.094
    3PET     H9   78  -0.763  -1.563  -0.040
    3PET    C11   79  -0.963  -1.562   0.047
    3PET    H10   80  -1.000  -1.634  -0.027
    3PET    H11   81  -0.990  -1.461   0.012
    3PET    C12   82  -1.031  -1.586   0.181
    3PET    H13   83  -1.140  -1.578   0.169
    3PET    H14   84  -1.000  -1.512   0.256
    4PET     C9   85  -1.001  -1.724   0.239
    4PET     H6   86  -0.893  -1.735   0.254
    4PET     H7   87  -1.035  -1.802   0.170
    4PET     O2   88  -1.070  -1.735   0.363
    4PET     C8   89  -1.038  -1.641   0.455
    4PET     O1   90  -0.958  -1.551   0.441
    4PET     C4   91  -1.120  -1.662   0.577
    4PET     C5   92  -1.210  -1.769   0.587
    4PET     C6   93  -1.290  -1.785   0.700
    4PET     H4   94  -1.359  -1.869   0.704
    4PET     H3   95  -1.221  -1.841   0.506
    4PET     C3   96  -1.109  -1.572   0.684
    4PET     H2   97  -1.039  -1.489   0.679
    4PET     C2   98  -1.188  -1.588   0.798
    4PET     H1   99  -1.179  -1.517   0.880
    4PET     C1  100  -1.280  -1.694   0.806
    4PET     C7  101  -1.367  -1.706   0.926
    4PET     O3  102  -1.362  -1.630   1.021
    4PET     O4  103  -1.450  -1.812   0.912
    4PET    C10  104  -1.540  -1.838   1.020
    4PET     H8  105  -1.621  -1.899   0.979
    4PET     H9  106  -1.585  -1.744   1.055
    4PET    C11  107  -1.470  -1.912   1.133
    4PET    H10  108  -1.541  -1.929   1.215
    4PET    H11  109  -1.388  -1.852   1.173
    4PET    C12  110  -1.413  -2.046   1.087
    4PET    H13  111  -1.366  -2.098   1.171
    4PET    H14  112  -1.338  -2.033   1.009
    5PET     C9  113  -1.521  -2.139   1.030
    5PET     H6  114  -1.569  -2.092   0.944
    5PET     H7  115  -1.596  -2.160   1.106
    5PET     O2  116  -1.457  -2.260   0.990
    5PET     C8  117  -1.357  -2.245   0.899
    5PET     O1  118  -1.320  -2.141   0.849
    5PET     C4  119  -1.297  -2.378   0.871
    5PET     C5  120  -1.346  -2.495   0.931
    5PET     C6  121  -1.285  -2.618   0.907
    5PET     H4  122  -1.325  -2.706   0.956
    5PET     H3  123  -1.430  -2.492   0.999
    5PET     C3  124  -1.188  -2.387   0.783
    5PET     H2  125  -1.150  -2.297   0.734
    5PET     C2  126  -1.127  -2.510   0.758
    5PET     H1  127  -1.042  -2.516   0.690
    5PET     C1  128  -1.174  -2.626   0.821
    5PET     C7  129  -1.105  -2.755   0.796
    5PET     O3  130  -1.009  -2.768   0.722
    5PET     O4  131  -1.164  -2.853   0.869
    5PET    C10  132  -1.109  -2.985   0.857
    5PET     H8  133  -1.142  -3.041   0.945
    5PET     H9  134  -1.000  -2.981   0.860
    5PET    C11  135  -1.160  -3.053   0.730
    5PET    H10  136  -1.115  -3.153   0.723
    5PET    H11  137  -1.129  -2.996   0.642
    5PET    C12  138  -1.312  -3.066   0.729
    5PET    H13  139  -1.344  -3.118   0.638
    5PET    H14  140  -1.360  -2.968   0.730
    6PET     C9  141  -1.366  -3.145   0.849
    6PET     H6  142  -1.337  -3.095   0.941
    6PET     H7  143  -1.324  -3.246   0.848
    6PET     O2  144  -1.508  -3.150   0.836
    6PET     C8  145  -1.569  -3.030   0.831
    6PET     O1  146  -1.515  -2.921   0.837
    6PET     C4  147  -1.716  -3.050   0.814
    6PET     C5  148  -1.771  -3.179   0.810
    6PET     C6  149  -1.908  -3.197   0.790
    6PET     H4  150  -1.947  -3.298   0.786
    6PET     H3  151  -1.709  -3.268   0.821
    6PET     C3  152  -1.800  -2.939   0.801
    6PET     H2  153  -1.758  -2.838   0.805
    6PET     C2  154  -1.937  -2.957   0.781
    6PET     H1  155  -2.001  -2.869   0.770
    6PET     C1  156  -1.992  -3.086   0.774
    6PET     C7  157  -2.137  -3.101   0.748
    6PET     O3  158  -2.214  -3.008   0.734
    6PET     O4  159  -2.168  -3.233   0.741
    6PET    C10  160  -2.305  -3.266   0.717
    6PET     H8  161  -2.306  -3.369   0.679
    6PET     H9  162  -2.346  -3.202   0.638
    6PET    C11  163  -2.387  -3.257   0.846
    6PET    H10  164  -2.491  -3.281   0.823
    6PET    H11  165  -2.384  -3.154   0.885
    6PET    C12  166  -2.335  -3.351   0.954
    6PET    H13  167  -2.398  -3.343   1.043
    6PET    H14  168  -2.232  -3.326   0.982
    7PEO     C1  169  -2.335  -3.498   0.909
    7PEO     H3  170  -2.271  -3.510   0.821
    7PEO     H4  171  -2.437  -3.528   0.884
    7PEO      O  172  -2.285  -3.576   1.018
    7PEO     C2  173  -2.281  -3.714   0.984
    7PEO     H5  174  -2.217  -3.730   0.897
    7PEO     H6  175  -2.382  -3.750   0.958
    7PEO     C3  176  -2.227  -3.793   1.102
    7PEO     H7  177  -2.292  -3.778   1.190
    7PEO     H8  178  -2.127  -3.758   1.128
    7PEO     O1  179  -2.224  -3.932   1.068
    7PEO     C4  180  -2.174  -4.011   1.175
    7PEO     H9  181  -2.238  -3.998   1.264
    7PEO    H10  182  -2.073  -3.978   1.202
    7PEO     C5  183  -2.172  -4.157   1.133
    7PEO    H11  184  -2.108  -4.169   1.045
    7PEO    H12  185  -2.273  -4.189   1.106
    7PEO     O2  186  -2.122  -4.235   1.241
    7PEO     C6  187  -2.119  -4.374   1.206
    7PEO    H13  188  -2.054  -4.389   1.119
    7PEO    H14  189  -2.219  -4.409   1.181
    7PEO     C7  190  -2.065  -4.453   1.325
    7PEO    H15  191  -2.129  -4.437   1.412
    7PEO    H16  192  -1.964  -4.417   1.350
    7PEO     O3  193  -2.061  -4.591   1.290
    7PEO     C8  194  -2.011  -4.670   1.398
    7PEO    H17  195  -2.075  -4.657   1.486
    7PEO    H18  196  -1.910  -4.637   1.425
    7PEO     C9  197  -2.009  -4.816   1.356
    7PEO    H19  198  -1.945  -4.828   1.267
    7PEO    H20  199  -2.110  -4.848   1.329
    7PEO     O4  200  -1.959  -4.895   1.463
    7PEO    C10  201  -1.956  -5.034   1.428
    7PEO    H21  202  -1.890  -5.048   1.341
    7PEO    H22  203  -2.057  -5.068   1.403
    8PET     C9  204  -1.901  -5.111   1.548
    8PET     H6  205  -1.967  -5.096   1.635
    8PET     H7  206  -1.801  -5.075   1.573
    8PET     O2  207  -1.897  -5.249   1.513
    8PET     C8  208  -2.017  -5.302   1.476
    8PET     O1  209  -2.123  -5.244   1.472
    8PET     C4  210  -1.997  -5.445   1.438
    8PET     C5  211  -1.871  -5.506   1.447
    8PET     C6  212  -1.854  -5.638   1.407
    8PET     H4  213  -1.755  -5.682   1.414
    8PET     H3  214  -1.785  -5.451   1.484
    8PET     C3  215  -2.106  -5.519   1.391
    8PET     H2  216  -2.205  -5.473   1.385
    8PET     C2  217  -2.089  -5.652   1.351
    8PET     H1  218  -2.175  -5.708   1.314
    8PET     C1  219  -1.962  -5.712   1.357
    8PET     C7  220  -1.946  -5.851   1.309
    8PET     O3  221  -2.037  -5.920   1.267
    8PET     O4  222  -1.816  -5.888   1.321
    8PET    C10  223  -1.783  -6.021   1.279
    8PET     H8  224  -1.675  -6.022   1.260
    8PET     H9  225  -1.832  -6.045   1.185
    8PET    C11  226  -1.817  -6.122   1.388
    8PET    H10  227  -1.793  -6.223   1.353
    8PET    H11  228  -1.925  -6.120   1.409
    8PET    C12  229  -1.743  -6.095   1.518
    8PET    H13  230  -1.769  -6.171   1.593
    8PET    H14  231  -1.770  -5.997   1.559
    9PET     C9  232  -1.591  -6.096   1.501
    9PET     H6  233  -1.562  -6.019   1.429
    9PET     H7  234  -1.559  -6.194   1.464
    9PET     O2  235  -1.533  -6.069   1.628
    9PET     C8  236  -1.570  -5.952   1.684
    9PET     O1  237  -1.646  -5.869   1.637
    9PET     C4  238  -1.505  -5.939   1.818
    9PET     C5  239  -1.418  -6.037   1.866
    9PET     C6  240  -1.361  -6.025   1.993
    9PET     H4  241  -1.295  -6.104   2.027
    9PET     H3  242  -1.393  -6.124   1.806
    9PET     C3  243  -1.534  -5.827   1.898
    9PET     H2  244  -1.601  -5.750   1.861
    9PET     C2  245  -1.477  -5.815   2.025
    9PET     H1  246  -1.501  -5.729   2.087
    9PET     C1  247  -1.392  -5.915   2.074
    9PET     C7  248  -1.337  -5.903   2.212
    9PET     O3  249  -1.359  -5.809   2.285
    9PET     O4  250  -1.260  -6.011   2.240
    9PET    C10  251  -1.199  -6.014   2.369
    9PET     H8  252  -1.174  -6.119   2.389
    9PET     H9  253  -1.271  -5.983   2.446
    9PET    C11  254  -1.073  -5.929   2.372
    9PET    H10  255  -1.029  -5.932   2.472
    9PET    H11  256  -1.098  -5.824   2.350
    9PET    C12  257  -0.969  -5.975   2.270
    9PET    H13  258  -0.879  -5.913   2.277
    9PET    H14  259  -1.008  -5.968   2.168
   10PET     C9  260  -0.927  -6.121   2.292
   10PET     H6  261  -1.014  -6.187   2.284
   10PET     H7  262  -0.883  -6.132   2.392
   10PET     O2  263  -0.831  -6.153   2.192
   10PET     C8  264  -0.874  -6.138   2.065
   10PET     O1  265  -0.984  -6.101   2.029
   10PET     C4  266  -0.762  -6.171   1.971
   10PET     C5  267  -0.637  -6.214   2.019
   10PET     C6  268  -0.533  -6.241   1.931
   10PET     H4  269  -0.438  -6.273   1.972
   10PET     H3  270  -0.619  -6.227   2.126
   10PET     C3  271  -0.782  -6.157   1.833
   10PET     H2  272  -0.878  -6.125   1.795
   10PET     C2  273  -0.677  -6.184   1.745
   10PET     H1  274  -0.693  -6.172   1.637
   10PET     C1  275  -0.551  -6.224   1.793
   10PET     C7  276  -0.441  -6.247   1.697
   10PET     O3  277  -0.452  -6.235   1.576
   10PET     O4  278  -0.328  -6.282   1.765
   10PET    C10  279  -0.212  -6.308   1.686
   10PET     H8  280  -0.126  -6.298   1.753
   10PET     H9  281  -0.200  -6.232   1.608
   10PET    C11  282  -0.215  -6.449   1.628
   10PET    H10  283  -0.126  -6.465   1.567
   10PET    H11  284  -0.302  -6.460   1.562
   10PET    C12  285  -0.224  -6.556   1.736
   10PET    H13  286  -0.224  -6.656   1.690
   10PET    H14  287  -0.315  -6.546   1.795
   11PET     C9  288  -0.106  -6.550   1.834
   11PET     H6  289  -0.104  -6.452   1.883
   11PET     H7  290  -0.012  -6.565   1.779
   11PET     O2  291  -0.124  -6.654   1.930
   11PET     C8  292  -0.240  -6.647   1.999
   11PET     O1  293  -0.327  -6.563   1.988
   11PET     C4  294  -0.247  -6.764   2.092
   11PET     C5  295  -0.143  -6.857   2.101
   11PET     C6  296  -0.153  -6.967   2.185
   11PET     H4  297  -0.071  -7.038   2.189
   11PET     H3  298  -0.052  -6.845   2.042
   11PET     C3  299  -0.362  -6.781   2.171
   11PET     H2  300  -0.444  -6.710   2.166
   11PET     C2  301  -0.373  -6.892   2.256
   11PET     H1  302  -0.462  -6.905   2.316
   11PET     C1  303  -0.269  -6.986   2.262
   11PET     C7  304  -0.285  -7.106   2.350
   11PET     O3  305  -0.382  -7.127   2.419
   11PET     O4  306  -0.175  -7.185   2.338
   11PET    C10  307  -0.174  -7.304   2.417
   11PET     H8  308  -0.101  -7.372   2.371
   11PET     H9  309  -0.272  -7.354   2.412
   11PET    C11  310  -0.134  -7.275   2.561
   11PET    H10  311  -0.136  -7.368   2.619
   11PET    H11  312  -0.205  -7.206   2.607
   11PET    C12  313   0.005  -7.213   2.570
   11PET    H13  314   0.032  -7.195   2.675
   11PET    H14  315   0.009  -7.116   2.518
   12PET     C9  316   0.114  -7.302   2.508
   12PET     H6  317   0.092  -7.319   2.403
   12PET     H7  318   0.117  -7.397   2.561
   12PET     O2  319   0.238  -7.233   2.523
   12PET     C8  320   0.243  -7.111   2.465
   12PET     O1  321   0.154  -7.056   2.404
   12PET     C4  322   0.377  -7.050   2.491
   12PET     C5  323   0.476  -7.119   2.562
   12PET     C6  324   0.598  -7.059   2.589
   12PET     H4  325   0.672  -7.116   2.645
   12PET     H3  326   0.459  -7.221   2.598
   12PET     C3  327   0.403  -6.920   2.445
   12PET     H2  328   0.327  -6.865   2.390
   12PET     C2  329   0.526  -6.860   2.472
   12PET     H1  330   0.545  -6.758   2.437
   12PET     C1  331   0.624  -6.928   2.546
   12PET     C7  332   0.752  -6.860   2.577
   12PET     O3  333   0.780  -6.747   2.541
   12PET     O4  334   0.830  -6.943   2.651
   12PET    C10  335   0.959  -6.892   2.690
   12PET     H8  336   0.992  -6.952   2.775
   12PET     H9  337   0.950  -6.788   2.724
   12PET    C11  338   1.059  -6.905   2.575
   12PET    H10  339   1.155  -6.864   2.607
   12PET    H11  340   1.025  -6.846   2.489
   12PET    C12  341   1.078  -7.049   2.531
   12PET    H13  342   1.152  -7.055   2.451
   12PET    H14  343   0.984  -7.092   2.493
   13PET     C9  344   1.126  -7.140   2.645
   13PET     H6  345   1.052  -7.139   2.726
   13PET     H7  346   1.222  -7.104   2.683
   13PET     O2  347   1.139  -7.272   2.593
   13PET     C8  348   1.027  -7.324   2.538
   13PET     O1  349   0.918  -7.270   2.532
   13PET     C4  350   1.057  -7.459   2.484
   13PET     C5  351   1.184  -7.516   2.496
   13PET     C6  352   1.212  -7.641   2.441
   13PET     H4  353   1.312  -7.681   2.451
   13PET     H3  354   1.264  -7.464   2.547
   13PET     C3  355   0.956  -7.531   2.418
   13PET     H2  356   0.856  -7.488   2.408
   13PET     C2  357   0.983  -7.656   2.362
   13PET     H1  358   0.904  -7.710   2.310
   13PET     C1  359   1.112  -7.711   2.372
   13PET     C7  360   1.139  -7.843   2.308
   13PET     O3  361   1.056  -7.908   2.249
   13PET     O4  362   1.270  -7.875   2.327
   13PET    C10  363   1.313  -8.000   2.271
   13PET     H8  364   1.422  -7.994   2.262
   13PET     H9  365   1.273  -8.013   2.170
   13PET    C11  366   1.275  -8.116   2.362
   13PET    H10  367   1.307  -8.210   2.316
   13PET    H11  368   1.166  -8.121   2.373
   13PET    C12  369   1.336  -8.104   2.501
   13PET    H13  370   1.308  -8.190   2.562
   13PET    H14  371   1.300  -8.013   2.552
   14PET     C9  372   1.489  -8.096   2.498
   14PET     H6  373   1.520  -8.010   2.439
   14PET     H7  374   1.529  -8.187   2.452
   14PET     O2  375   1.535  -8.085   2.632
   14PET     C8  376   1.486  -7.978   2.700
   14PET     O1  377   1.411  -7.893   2.657
   14PET     C4  378   1.539  -7.981   2.839
   14PET     C5  379   1.627  -8.081   2.882
   14PET     C6  380   1.671  -8.084   3.014
   14PET     H4  381   1.739  -8.164   3.044
   14PET     H3  382   1.661  -8.158   2.814
   14PET     C3  383   1.498  -7.882   2.930
   14PET     H2  384   1.430  -7.803   2.898
   14PET     C2  385   1.543  -7.885   3.062
   14PET     H1  386   1.509  -7.809   3.132
   14PET     C1  387   1.629  -7.987   3.105
   14PET     C7  388   1.671  -7.991   3.248
   14PET     O3  389   1.637  -7.909   3.331
   14PET     O4  390   1.750  -8.099   3.268
   14PET    C10  391   1.800  -8.118   3.401
   14PET     H8  392   1.829  -8.223   3.410
   14PET     H9  393   1.721  -8.100   3.475
   14PET    C11  394   1.921  -8.028   3.427
   14PET    H10  395   1.956  -8.043   3.530
   14PET    H11  396   1.893  -7.923   3.417
   14PET    C12  397   2.035  -8.057   3.330
   14PET    H13  398   2.121  -7.993   3.353
   14PET    H14  399   2.005  -8.037   3.227
   15PET     C9  400   2.083  -8.202   3.337
   15PET     H6  401   2.000  -8.269   3.311
   15PET     H7  402   2.119  -8.225   3.438
   15PET     O2  403   2.189  -8.217   3.242
   15PET     C8  404   2.156  -8.186   3.115
   15PET     O1  405   2.048  -8.149   3.074
   15PET     C4  406   2.277  -8.202   3.028
   15PET     C5  407   2.399  -8.246   3.082
   15PET     C6  408   2.512  -8.256   3.000
   15PET     H4  409   2.605  -8.290   3.045
   15PET     H3  410   2.409  -8.272   3.187
   15PET     C3  411   2.269  -8.170   2.892
   15PET     H2  412   2.175  -8.137   2.849
   15PET     C2  413   2.382  -8.181   2.811
   15PET     H1  414   2.375  -8.155   2.705
   15PET     C1  415   2.505  -8.222   2.865
   15PET     C7  416   2.625  -8.228   2.777
   15PET     O3  417   2.623  -8.200   2.658
   15PET     O4  418   2.732  -8.267   2.850
   15PET    C10  419   2.856  -8.277   2.779
   15PET     H8  420   2.936  -8.273   2.855
   15PET     H9  421   2.871  -8.191   2.713
   15PET    C11  422   2.865  -8.409   2.703
   15PET    H10  423   2.960  -8.413   2.649
   15PET    H11  424   2.785  -8.415   2.628
   15PET    C12  425   2.853  -8.530   2.795
   15PET    H13  426   2.862  -8.622   2.737
   15PET    H14  427   2.756  -8.532   2.846
   16PET     C9  428   2.961  -8.532   2.903
   16PET     H6  429   2.954  -8.442   2.965
   16PET     H7  430   3.060  -8.536   2.856
   16PET     O2  431   2.940  -8.649   2.983
   16PET     C8  432   2.819  -8.657   3.041
   16PET     O1  433   2.729  -8.575   3.033
   16PET     C4  434   2.809  -8.785   3.117
   16PET     C5  435   2.917  -8.874   3.123
   16PET     C6  436   2.905  -8.995   3.191
   16PET     H4  437   2.991  -9.062   3.193
   16PET     H3  438   3.012  -8.851   3.075
   16PET     C3  439   2.689  -8.817   3.182
   16PET     H2  440   2.605  -8.749   3.179
   16PET     C2  441   2.677  -8.939   3.251
   16PET     H1  442   2.583  -8.964   3.300
   16PET     C1  443   2.785  -9.029   3.254
   16PET     C7  444   2.768  -9.159   3.323
   16PET     O3  445   2.666  -9.193   3.380
   16PET     O4  446   2.881  -9.232   3.312
   16PET    C10  447   2.882  -9.361   3.373
   16PET     H8  448   2.962  -9.419   3.326
   16PET     H9  449   2.788  -9.414   3.353
   16PET    C11  450   2.909  -9.350   3.523
   16PET    H10  451   2.906  -9.450   3.568
   16PET    H11  452   2.830  -9.291   3.571
   16PET    C12  453   3.042  -9.284   3.553
   16PET    H13  454   3.059  -9.280   3.661
   16PET    H14  455   3.046  -9.181   3.515
   17PEO     C1  456   3.161  -9.359   3.491
   17PEO     H3  457   3.149  -9.363   3.382
   17PEO     H4  458   3.164  -9.461   3.530
   17PEO      O  459   3.280  -9.289   3.525
   17PEO     C2  460   3.395  -9.352   3.470
   17PEO     H5  461   3.387  -9.356   3.360
   17PEO     H6  462   3.403  -9.455   3.507
   17PEO     C3  463   3.519  -9.273   3.509
   17PEO     H7  464   3.528  -9.269   3.618
   17PEO     H8  465   3.512  -9.171   3.472
   17PEO     O1  466   3.634  -9.338   3.453
   17PEO     C4  467   3.754  -9.268   3.487
   17PEO     H9  468   3.765  -9.264   3.596
   17PEO    H10  469   3.749  -9.165   3.449
   17PEO     C5  470   3.872  -9.341   3.425
   17PEO    H11  471   3.861  -9.345   3.316
   17PEO    H12  472   3.877  -9.444   3.462
   17PEO     O2  473   3.992  -9.271   3.459
   17PEO     C6  474   4.106  -9.335   3.403
   17PEO    H13  475   4.098  -9.339   3.294
   17PEO    H14  476   4.114  -9.438   3.440
   17PEO     C7  477   4.231  -9.257   3.442
   17PEO    H15  478   4.239  -9.252   3.551
   17PEO    H16  479   4.223  -9.154   3.405
   17PEO     O3  480   4.345  -9.320   3.386
   17PEO     C8  481   4.465  -9.251   3.420
   17PEO    H17  482   4.477  -9.246   3.529
   17PEO    H18  483   4.460  -9.148   3.383
   17PEO     C9  484   4.583  -9.323   3.358
   17PEO    H19  485   4.571  -9.327   3.249
   17PEO    H20  486   4.588  -9.426   3.395
   17PEO     O4  487   4.704  -9.254   3.391
   17PEO    C10  488   4.818  -9.319   3.335
   17PEO    H21  489   4.808  -9.321   3.226
   17PEO    H22  490   4.825  -9.421   3.373
   18PET     C9  491   4.942  -9.238   3.376
   18PET     H6  492   4.950  -9.235   3.485
   18PET     H7  493   4.933  -9.136   3.338
   18PET     O2  494   5.056  -9.302   3.319
   18PET     C8  495   5.072  -9.431   3.357
   18PET     O1  496   5.001  -9.495   3.432
   18PET     C4  497   5.192  -9.487   3.288
   18PET     C5  498   5.270  -9.407   3.202
   18PET     C6  499   5.379  -9.462   3.135
   18PET     H4  500   5.437  -9.398   3.069
   18PET     H3  501   5.247  -9.303   3.186
   18PET     C3  502   5.226  -9.622   3.307
   18PET     H2  503   5.167  -9.684   3.373
   18PET     C2  504   5.336  -9.677   3.239
   18PET     H1  505   5.361  -9.782   3.254
   18PET     C1  506   5.412  -9.597   3.152
   18PET     C7  507   5.525  -9.660   3.078
   18PET     O3  508   5.558  -9.776   3.090
   18PET     O4  509   5.583  -9.567   2.997
   18PET    C10  510   5.694  -9.611   2.919
   18PET     H8  511   5.704  -9.540   2.836
   18PET     H9  512   5.673  -9.709   2.874
   18PET    C11  513   5.822  -9.613   3.002
   18PET    H10  514   5.905  -9.648   2.940
   18PET    H11  515   5.812  -9.683   3.086
   18PET    C12  516   5.856  -9.475   3.058
   18PET    H13  517   5.949  -9.480   3.115
   18PET    H14  518   5.778  -9.439   3.126
   19PET     C9  519   5.874  -9.369   2.949
   19PET     H6  520   5.781  -9.360   2.891
   19PET     H7  521   5.955  -9.399   2.882
   19PET     O2  522   5.905  -9.246   3.013
   19PET     C8  523   5.813  -9.203   3.102
   19PET     O1  524   5.708  -9.258   3.131
   19PET     C4  525   5.860  -9.076   3.164
   19PET     C5  526   5.981  -9.017   3.125
   19PET     C6  527   6.026  -8.900   3.187
   19PET     H4  528   6.121  -8.858   3.155
   19PET     H3  529   6.043  -9.061   3.047
   19PET     C3  530   5.783  -9.015   3.264
   19PET     H2  531   5.688  -9.059   3.294
   19PET     C2  532   5.828  -8.898   3.326
   19PET     H1  533   5.767  -8.852   3.404
   19PET     C1  534   5.950  -8.841   3.289
   19PET     C7  535   5.998  -8.719   3.360
   19PET     O3  536   5.936  -8.663   3.448
   19PET     O4  537   6.119  -8.683   3.311
   19PET    C10  538   6.179  -8.567   3.369
   19PET     H8  539   6.287  -8.573   3.347
   19PET     H9  540   6.169  -8.568   3.478
   19PET    C11  541   6.121  -8.439   3.308
   19PET    H10  542   6.168  -8.352   3.355
   19PET    H11  543   6.013  -8.434   3.328
   19PET    C12  544   6.142  -8.433   3.158
   19PET    H13  545   6.101  -8.339   3.118
   19PET    H14  546   6.091  -8.515   3.106
   20PET     C9  547   6.290  -8.439   3.118
   20PET     H6  548   6.334  -8.532   3.154
   20PET     H7  549   6.343  -8.354   3.163
   20PET     O2  550   6.297  -8.431   2.976
   20PET     C8  551   6.230  -8.529   2.910
   20PET     O1  552   6.166  -8.619   2.961
   20PET     C4  553   6.242  -8.507   2.763
   20PET     C5  554   6.318  -8.401   2.712
   20PET     C6  555   6.325  -8.379   2.575
   20PET     H4  556   6.384  -8.295   2.539
   20PET     H3  557   6.372  -8.333   2.778
   20PET     C3  558   6.175  -8.593   2.675
   20PET     H2  559   6.117  -8.676   2.713
   20PET     C2  560   6.183  -8.571   2.537
   20PET     H1  561   6.130  -8.637   2.469
   20PET     C1  562   6.257  -8.463   2.486
   20PET     C7  563   6.259  -8.439   2.340
   20PET     O3  564   6.202  -8.510   2.258
   20PET     O4  565   6.333  -8.329   2.313
   20PET    C10  566   6.345  -8.292   2.175
   20PET     H8  567   6.374  -8.186   2.173
   20PET     H9  568   6.249  -8.300   2.124
   20PET    C11  569   6.452  -8.376   2.106
   20PET    H10  570   6.458  -8.347   2.000
   20PET    H11  571   6.425  -8.482   2.109
   20PET    C12  572   6.589  -8.360   2.171
   20PET    H13  573   6.664  -8.419   2.117
   20PET    H14  574   6.588  -8.394   2.275
   21PET     C9  575   6.638  -8.214   2.171
   21PET     H6  576   6.567  -8.152   2.226
   21PET     H7  577   6.645  -8.178   2.068
   21PET     O2  578   6.765  -8.212   2.234
   21PET     C8  579   6.768  -8.260   2.360
   21PET     O1  580   6.673  -8.303   2.423
   21PET     C4  581   6.908  -8.254   2.412
   21PET     C5  582   7.012  -8.202   2.334
   21PET     C6  583   7.143  -8.202   2.382
   21PET     H4  584   7.221  -8.162   2.318
   21PET     H3  585   6.993  -8.162   2.235
   21PET     C3  586   6.936  -8.304   2.540
   21PET     H2  587   6.856  -8.345   2.602
   21PET     C2  588   7.067  -8.304   2.588
   21PET     H1  589   7.088  -8.344   2.687
   21PET     C1  590   7.172  -8.255   2.509
   21PET     C7  591   7.311  -8.260   2.561
   21PET     O3  592   7.341  -8.303   2.670
   21PET     O4  593   7.396  -8.211   2.467
   21PET    C10  594   7.535  -8.208   2.502
   21PET     H8  595   7.590  -8.202   2.408
   21PET     H9  596   7.564  -8.302   2.549
   21PET    C11  597   7.567  -8.088   2.590
   21PET    H10  598   7.673  -8.090   2.616
   21PET    H11  599   7.510  -8.094   2.683
   21PET    C12  600   7.534  -7.956   2.522
   21PET    H13  601   7.561  -7.872   2.587
   21PET    H14  602   7.427  -7.948   2.499
   22PET     C9  603   7.609  -7.938   2.389
   22PET     H6  604   7.583  -8.019   2.320
   22PET     H7  605   7.717  -7.940   2.407
   22PET     O2  606   7.571  -7.812   2.335
   22PET     C8  607   7.438  -7.797   2.313
   22PET     O1  608   7.351  -7.880   2.334
   22PET     C4  609   7.412  -7.660   2.260
   22PET     C5  610   7.517  -7.570   2.237
   22PET     C6  611   7.490  -7.441   2.191
   22PET     H4  612   7.574  -7.373   2.175
   22PET     H3  613   7.620  -7.598   2.254
   22PET     C3  614   7.280  -7.620   2.235
   22PET     H2  615   7.197  -7.689   2.252
   22PET     C2  616   7.253  -7.491   2.189
   22PET     H1  617   7.150  -7.460   2.171
   22PET     C1  618   7.358  -7.400   2.169
   22PET     C7  619   7.327  -7.261   2.125
   22PET     O3  620   7.214  -7.221   2.103
   22PET     O4  621   7.441  -7.190   2.115
   22PET    C10  622   7.429  -7.054   2.073
   22PET     H8  623   7.520  -7.002   2.104
   22PET     H9  624   7.345  -7.005   2.125
   22PET    C11  625   7.413  -7.044   1.921
   22PET    H10  626   7.402  -6.939   1.893
   22PET    H11  627   7.323  -7.097   1.889
   22PET    C12  628   7.532  -7.105   1.848
   22PET    H13  629   7.519  -7.094   1.740
   22PET    H14  630   7.543  -7.211   1.870
   23PEO     C1  631   7.665  -7.037   1.885
   23PEO     H3  632   7.683  -7.048   1.992
   23PEO     H4  633   7.660  -6.931   1.860
   23PEO      O  634   7.768  -7.101   1.810
   23PEO     C2  635   7.896  -7.045   1.840
   23PEO     H5  636   7.918  -7.055   1.947
   23PEO     H6  637   7.896  -6.938   1.816
   23PEO     C3  638   8.003  -7.116   1.759
   23PEO     H7  639   7.982  -7.105   1.652
   23PEO     H8  640   8.003  -7.223   1.783
   23PEO     O1  641   8.130  -7.059   1.789
   23PEO     C4  642   8.234  -7.122   1.715
   23PEO     H9  643   8.216  -7.111   1.608
   23PEO    H10  644   8.237  -7.229   1.738
   23PEO     C5  645   8.367  -7.058   1.752
   23PEO    H11  646   8.385  -7.068   1.859
   23PEO    H12  647   8.364  -6.950   1.729
   23PEO     O2  648   8.471  -7.121   1.678
   23PEO     C6  649   8.598  -7.064   1.708
   23PEO    H13  650   8.620  -7.075   1.815
   23PEO    H14  651   8.598  -6.957   1.685
   23PEO     C7  652   8.705  -7.135   1.627
   23PEO    H15  653   8.684  -7.125   1.520
   23PEO    H16  654   8.705  -7.242   1.651
   23PEO     O3  655   8.832  -7.078   1.657
   23PEO     C8  656   8.936  -7.142   1.583
   23PEO    H17  657   8.918  -7.131   1.476
   23PEO    H18  658   8.939  -7.249   1.606
   23PEO     C9  659   9.069  -7.078   1.620
   23PEO    H19  660   9.087  -7.088   1.727
   23PEO    H20  661   9.066  -6.970   1.597
   23PEO     O4  662   9.174  -7.140   1.546
   23PEO    C10  663   9.301  -7.083   1.577
   23PEO    H21  664   9.321  -7.095   1.684
   23PEO    H22  665   9.300  -6.976   1.553
   24PET     C9  666   9.407  -7.156   1.494
   24PET     H6  667   9.385  -7.144   1.388
   24PET     H7  668   9.406  -7.262   1.519
   24PET     O2  669   9.533  -7.099   1.525
   24PET     C8  670   9.543  -6.966   1.502
   24PET     O1  671   9.456  -6.893   1.458
   24PET     C4  672   9.678  -6.919   1.543
   24PET     C5  673   9.775  -7.008   1.592
   24PET     C6  674   9.899  -6.962   1.634
   24PET     H4  675   9.971  -7.034   1.673
   24PET     H3  676   9.754  -7.115   1.600
   24PET     C3  677   9.710  -6.783   1.534
   24PET     H2  678   9.636  -6.712   1.495
   24PET     C2  679   9.835  -6.736   1.575
   24PET     H1  680   9.858  -6.630   1.568
   24PET     C1  681   9.930  -6.826   1.627
   24PET     C7  682  10.060  -6.773   1.675
   24PET     O3  683  10.092  -6.656   1.671
   24PET     O4  684  10.135  -6.875   1.724
   24PET    C10  685  10.265  -6.841   1.774
   24PET     H8  686  10.295  -6.923   1.841
   24PET     H9  687  10.260  -6.751   1.836
   24PET    C11  688  10.365  -6.827   1.661
   24PET    H10  689  10.463  -6.800   1.702
   24PET    H11  690  10.334  -6.747   1.593
   24PET    C12  691  10.379  -6.955   1.579
   24PET    H13  692  10.454  -6.942   1.501
   24PET    H14  693  10.284  -6.982   1.532
   25PET     C9  694  10.423  -7.075   1.665
   25PET     H6  695  10.349  -7.093   1.744
   25PET     H7  696  10.520  -7.054   1.711
   25PET     O2  697  10.432  -7.188   1.579
   25PET     C8  698  10.318  -7.219   1.513
   25PET     O1  699  10.211  -7.162   1.522
   25PET     C4  700  10.343  -7.337   1.425
   25PET     C5  701  10.468  -7.399   1.421
   25PET     C6  702  10.492  -7.506   1.334
   25PET     H4  703  10.590  -7.551   1.333
   25PET     H3  704  10.550  -7.365   1.484
   25PET     C3  705  10.240  -7.384   1.342
   25PET     H2  706  10.142  -7.337   1.345
   25PET     C2  707  10.263  -7.491   1.255
   25PET     H1  708  10.183  -7.527   1.191
   25PET     C1  709  10.390  -7.552   1.250
   25PET     C7  710  10.413  -7.662   1.153
   25PET     O3  711  10.328  -7.706   1.078
   25PET     O4  712  10.542  -7.703   1.162
   25PET    C10  713  10.581  -7.810   1.075
   25PET     H8  714  10.690  -7.806   1.067
   25PET     H9  715  10.541  -7.794   0.974
   25PET    C11  716  10.537  -7.945   1.131
   25PET    H10  717  10.567  -8.024   1.062
   25PET    H11  718  10.428  -7.949   1.141
   25PET    C12  719  10.598  -7.972   1.268
   25PET    H13  720  10.567  -8.071   1.305
   25PET    H14  721  10.566  -7.898   1.342
   26PET     C9  722  10.751  -7.970   1.266
   26PET     H6  723  10.786  -7.872   1.233
   26PET     H7  724  10.788  -8.047   1.198
   26PET     O2  725  10.797  -7.996   1.399
   26PET     C8  726  10.752  -7.909   1.493
   26PET     O1  727  10.680  -7.813   1.474
   26PET     C4  728  10.803  -7.951   1.626
   26PET     C5  729  10.888  -8.062   1.640
   26PET     C6  730  10.931  -8.103   1.767
   26PET     H4  731  10.995  -8.190   1.774
   26PET     H3  732  10.919  -8.120   1.554
   26PET     C3  733  10.765  -7.879   1.740
   26PET     H2  734  10.701  -7.792   1.731
   26PET     C2  735  10.809  -7.919   1.867
   26PET     H1  736  10.778  -7.863   1.955
   26PET     C1  737  10.891  -8.032   1.881
   26PET     C7  738  10.932  -8.075   2.017
   26PET     O3  739  10.901  -8.017   2.119
   26PET     O4  740  11.007  -8.188   2.008
   26PET    C10  741  11.056  -8.243   2.131
   26PET     H8  742  11.081  -8.348   2.111
   26PET     H9  743  10.977  -8.243   2.207
   26PET    C11  744  11.180  -8.168   2.179
   26PET    H10  745  11.213  -8.211   2.274
   26PET    H11  746  11.156  -8.063   2.197
   26PET    C12  747  11.293  -8.174   2.078
   26PET    H13  748  11.381  -8.121   2.116
   26PET    H14  749  11.265  -8.126   1.983
   27PET     C9  750  11.336  -8.318   2.045
   27PET     H6  751  11.251  -8.372   2.003
   27PET     H7  752  11.370  -8.367   2.136
   27PET     O2  753  11.442  -8.311   1.950
   27PET     C8  754  11.411  -8.246   1.835
   27PET     O1  755  11.305  -8.195   1.806
   27PET     C4  756  11.532  -8.243   1.747
   27PET     C5  757  11.652  -8.304   1.786
   27PET     C6  758  11.765  -8.296   1.705
   27PET     H4  759  11.856  -8.344   1.739
   27PET     H3  760  11.660  -8.357   1.880
   27PET     C3  761  11.526  -8.175   1.624
   27PET     H2  762  11.433  -8.128   1.592
   27PET     C2  763  11.639  -8.168   1.542
   27PET     H1  764  11.633  -8.114   1.448
   27PET     C1  765  11.760  -8.227   1.583
   27PET     C7  766  11.880  -8.213   1.496
   27PET     O3  767  11.880  -8.155   1.390
   27PET     O4  768  11.985  -8.274   1.556
   27PET    C10  769  12.109  -8.270   1.485
   27PET     H8  770  12.188  -8.289   1.558
   27PET     H9  771  12.127  -8.170   1.444
   27PET    C11  772  12.113  -8.377   1.376
   27PET    H10  773  12.209  -8.370   1.322
   27PET    H11  774  12.034  -8.359   1.303
   27PET    C12  775  12.097  -8.517   1.432
   27PET    H13  776  12.102  -8.591   1.352
   27PET    H14  777  11.999  -8.529   1.482
   28PEO     C1  778  12.204  -8.553   1.536
   28PEO     H3  779  12.200  -8.482   1.619
   28PEO     H4  780  12.303  -8.547   1.489
   28PEO      O  781  12.178  -8.685   1.581
   28PEO     C2  782  12.274  -8.726   1.679
   28PEO     H5  783  12.271  -8.658   1.765
   28PEO     H6  784  12.375  -8.722   1.637
   28PEO     C3  785  12.243  -8.868   1.725
   28PEO     H7  786  12.246  -8.936   1.639
   28PEO     H8  787  12.142  -8.872   1.767
   28PEO     O1  788  12.339  -8.907   1.822
   28PEO     C4  789  12.314  -9.040   1.869
   28PEO     H9  790  12.318  -9.110   1.785
   28PEO    H10  791  12.214  -9.046   1.913
   28PEO     C5  792  12.419  -9.076   1.972
   28PEO    H11  793  12.415  -9.006   2.056
   28PEO    H12  794  12.520  -9.070   1.928
   28PEO     O2  795  12.395  -9.209   2.018
   28PEO     C6  796  12.491  -9.248   2.116
   28PEO    H13  797  12.487  -9.180   2.202
   28PEO    H14  798  12.592  -9.244   2.074
   28PEO     C7  799  12.459  -9.390   2.162
   28PEO    H15  800  12.462  -9.458   2.076
   28PEO    H16  801  12.358  -9.394   2.204
   28PEO     O3  802  12.555  -9.430   2.259
   28PEO     C8  803  12.530  -9.562   2.305
   28PEO    H17  804  12.534  -9.633   2.222
   28PEO    H18  805  12.430  -9.569   2.350
   28PEO     C9  806  12.635  -9.599   2.409
   28PEO    H19  807  12.631  -9.528   2.493
   28PEO    H20  808  12.735  -9.592   2.365
   28PEO     O4  809  12.611  -9.732   2.456
   28PEO    C10  810  12.707  -9.770   2.554
   28PEO    H21  811  12.703  -9.702   2.639
   28PEO    H22  812  12.808  -9.766   2.510
   29PEO     C1  813  12.674  -9.913   2.598
   29PEO     H3  814  12.678  -9.981   2.512
   29PEO     H4  815  12.573  -9.916   2.641
   29PEO      O  816  12.770  -9.952   2.696
   29PEO     C2  817  12.747 -10.085   2.742
   29PEO     H5  818  12.751 -10.155   2.658
   29PEO     H6  819  12.646 -10.092   2.786
   29PEO     C3  820  12.851 -10.122   2.846
   29PEO     H7  821  12.846 -10.052   2.930
   29PEO     H8  822  12.952 -10.115   2.802
   29PEO     O1  823  12.827 -10.255   2.891
   29PEO     C4  824  12.922 -10.295   2.989
   29PEO     H9  825  12.918 -10.227   3.075
   29PEO    H10  826  13.024 -10.290   2.947
   29PEO     C5  827  12.891 -10.437   3.034
   29PEO    H11  828  12.896 -10.505   2.947
   29PEO    H12  829  12.790 -10.442   3.075
   29PEO     O2  830  12.987 -10.476   3.132
   29PEO     C6  831  12.963 -10.609   3.177
   29PEO    H13  832  12.968 -10.679   3.092
   29PEO    H14  833  12.862 -10.617   3.220
   29PEO     C7  834  13.067 -10.646   3.281
   29PEO    H15  835  13.063 -10.576   3.365
   29PEO    H16  836  13.168 -10.639   3.237
   29PEO     O3  837  13.043 -10.779   3.326
   29PEO     C8  838  13.139 -10.819   3.424
   29PEO    H17  839  13.135 -10.751   3.510
   29PEO    H18  840  13.240 -10.814   3.382
   29PEO     C9  841  13.108 -10.961   3.468
   29PEO    H19  842  13.112 -11.028   3.382
   29PEO    H20  843  13.007 -10.966   3.510
   29PEO     O4  844  13.204 -11.001   3.566
   29PEO    C10  845  13.179 -11.135   3.611
   29PEO    H21  846  13.185 -11.204   3.526
   29PEO    H22  847  13.078 -11.141   3.655
   30PET     C9  848  13.285 -11.169   3.715
   30PET     H6  849  13.279 -11.100   3.799
   30PET     H7  850  13.385 -11.163   3.670
   30PET     O2  851  13.260 -11.303   3.760
   30PET     C8  852  13.138 -11.323   3.813
   30PET     O1  853  13.050 -11.240   3.827
   30PET     C4  854  13.124 -11.466   3.851
   30PET     C5  855  13.230 -11.557   3.834
   30PET     C6  856  13.214 -11.691   3.866
   30PET     H4  857  13.298 -11.758   3.850
   30PET     H3  858  13.326 -11.524   3.794
   30PET     C3  859  13.002 -11.512   3.904
   30PET     H2  860  12.919 -11.443   3.918
   30PET     C2  861  12.987 -11.648   3.936
   30PET     H1  862  12.891 -11.682   3.976
   30PET     C1  863  13.092 -11.738   3.916
   30PET     C7  864  13.071 -11.882   3.947
   30PET     O3  865  12.967 -11.927   3.991
   30PET     O4  866  13.183 -11.951   3.917
   30PET    C10  867  13.180 -12.092   3.941
   30PET     H8  868  13.259 -12.137   3.881
   30PET     H9  869  13.085 -12.135   3.907
   30PET    C11  870  13.204 -12.123   4.089
   30PET    H10  871  13.199 -12.231   4.105
   30PET    H11  872  13.126 -12.077   4.150
   30PET    C12  873  13.339 -12.071   4.137
   30PET    H13  874  13.354 -12.097   4.242
   30PET    H14  875  13.345 -11.962   4.128
  16.37593  13.19367   4.83066
