%VERSION  VERSION_STAMP = V0001.000  DATE = 12/15/25  12:21:40                  
%FLAG TITLE                                                                     
%FORMAT(20a4)                                                                   
PET                                                                             
%FLAG POINTERS                                                                  
%FORMAT(10I8)                                                                   
     875       7     400     499     946     623    1638    1146       0       0
    4481      30     499     623    1146       9      15      26       8       0
       0       0       0       0       0       0       0       0      35       0
       0
%FLAG ATOM_NAME                                                                 
%FORMAT(20a4)                                                                   
C9  H6  H7  O2  C8  O1  C4  C5  C6  H4  H3  C3  H2  C2  H1  C1  C7  O3  O4  C10 
H8  H9  C11 H10 H11 C12 H13 H14 C1  H3  H4  O   C2  H5  H6  C3  H7  H8  O1  C4  
H9  H10 C5  H11 H12 O2  C6  H13 H14 C7  H15 H16 O3  C8  H17 H18 C9  H19 H20 O4  
C10 H21 H22 C9  H6  H7  O2  C8  O1  C4  C5  C6  H4  H3  C3  H2  C2  H1  C1  C7  
O3  O4  C10 H8  H9  C11 H10 H11 C12 H13 H14 C9  H6  H7  O2  C8  O1  C4  C5  C6  
H4  H3  C3  H2  C2  H1  C1  C7  O3  O4  C10 H8  H9  C11 H10 H11 C12 H13 H14 C9  
H6  H7  O2  C8  O1  C4  C5  C6  H4  H3  C3  H2  C2  H1  C1  C7  O3  O4  C10 H8  
H9  C11 H10 H11 C12 H13 H14 C1  H3  H4  O   C2  H5  H6  C3  H7  H8  O1  C4  H9  
H10 C5  H11 H12 O2  C6  H13 H14 C7  H15 H16 O3  C8  H17 H18 C9  H19 H20 O4  C10 
H21 H22 C9  H6  H7  O2  C8  O1  C4  C5  C6  H4  H3  C3  H2  C2  H1  C1  C7  O3  
O4  C10 H8  H9  C11 H10 H11 C12 H13 H14 C9  H6  H7  O2  C8  O1  C4  C5  C6  H4  
H3  C3  H2  C2  H1  C1  C7  O3  O4  C10 H8  H9  C11 H10 H11 C12 H13 H14 C9  H6  
H7  O2  C8  O1  C4  C5  C6  H4  H3  C3  H2  C2  H1  C1  C7  O3  O4  C10 H8  H9  
C11 H10 H11 C12 H13 H14 C9  H6  H7  O2  C8  O1  C4  C5  C6  H4  H3  C3  H2  C2  
H1  C1  C7  O3  O4  C10 H8  H9  C11 H10 H11 C12 H13 H14 C9  H6  H7  O2  C8  O1  
C4  C5  C6  H4  H3  C3  H2  C2  H1  C1  C7  O3  O4  C10 H8  H9  C11 H10 H11 C12 
H13 H14 C9  H6  H7  O2  C8  O1  C4  C5  C6  H4  H3  C3  H2  C2  H1  C1  C7  O3  
O4  C10 H8  H9  C11 H10 H11 C12 H13 H14 C9  H6  H7  O2  C8  O1  C4  C5  C6  H4  
H3  C3  H2  C2  H1  C1  C7  O3  O4  C10 H8  H9  C11 H10 H11 C12 H13 H14 C9  H6  
H7  O2  C8  O1  C4  C5  C6  H4  H3  C3  H2  C2  H1  C1  C7  O3  O4  C10 H8  H9  
C11 H10 H11 C12 H13 H14 C9  H6  H7  O2  C8  O1  C4  C5  C6  H4  H3  C3  H2  C2  
H1  C1  C7  O3  O4  C10 H8  H9  C11 H10 H11 C12 H13 H14 C9  H6  H7  O2  C8  O1  
C4  C5  C6  H4  H3  C3  H2  C2  H1  C1  C7  O3  O4  C10 H8  H9  C11 H10 H11 C12 
H13 H14 C9  H6  H7  O2  C8  O1  C4  C5  C6  H4  H3  C3  H2  C2  H1  C1  C7  O3  
O4  C10 H8  H9  C11 H10 H11 C12 H13 H14 C9  H6  H7  O2  C8  O1  C4  C5  C6  H4  
H3  C3  H2  C2  H1  C1  C7  O3  O4  C10 H8  H9  C11 H10 H11 C12 H13 H14 C9  H6  
H7  O2  C8  O1  C4  C5  C6  H4  H3  C3  H2  C2  H1  C1  C7  O3  O4  C10 H8  H9  
C11 H10 H11 C12 H13 H14 C9  H6  H7  O2  C8  O1  C4  C5  C6  H4  H3  C3  H2  C2  
H1  C1  C7  O3  O4  C10 H8  H9  C11 H10 H11 C12 H13 H14 C9  H6  H7  O2  C8  O1  
C4  C5  C6  H4  H3  C3  H2  C2  H1  C1  C7  O3  O4  C10 H8  H9  C11 H10 H11 C12 
H13 H14 C9  H6  H7  O2  C8  O1  C4  C5  C6  H4  H3  C3  H2  C2  H1  C1  C7  O3  
O4  C10 H8  H9  C11 H10 H11 C12 H13 H14 C9  H6  H7  O2  C8  O1  C4  C5  C6  H4  
H3  C3  H2  C2  H1  C1  C7  O3  O4  C10 H8  H9  C11 H10 H11 C12 H13 H14 C9  H6  
H7  O2  C8  O1  C4  C5  C6  H4  H3  C3  H2  C2  H1  C1  C7  O3  O4  C10 H8  H9  
C11 H10 H11 C12 H13 H14 C1  H3  H4  O   C2  H5  H6  C3  H7  H8  O1  C4  H9  H10 
C5  H11 H12 O2  C6  H13 H14 C7  H15 H16 O3  C8  H17 H18 C9  H19 H20 O4  C10 H21 
H22 C9  H6  H7  O2  C8  O1  C4  C5  C6  H4  H3  C3  H2  C2  H1  C1  C7  O3  O4  
C10 H8  H9  C11 H10 H11 C12 H13 H14 C9  H6  H7  O2  C8  O1  C4  C5  C6  H4  H3  
C3  H2  C2  H1  C1  C7  O3  O4  C10 H8  H9  C11 H10 H11 C12 H13 H14 C1  H3  H4  
O   C2  H5  H6  C3  H7  H8  O1  C4  H9  H10 C5  H11 H12 O2  C6  H13 H14 C7  H15 
H16 O3  C8  H17 H18 C9  H19 H20 O4  C10 H21 H22 C1  H3  H4  O   C2  H5  H6  C3  
H7  H8  O1  C4  H9  H10 C5  H11 H12 O2  C6  H13 H14 C7  H15 H16 O3  C8  H17 H18 
C9  H19 H20 O4  C10 H21 H22 C9  H6  H7  O2  C8  O1  C4  C5  C6  H4  H3  C3  H2  
C2  H1  C1  C7  O3  O4  C10 H8  H9  C11 H10 H11 C12 H13 H14 
%FLAG CHARGE                                                                    
%FORMAT(5E16.8)                                                                 
  2.36601988E+00  9.82601083E-01  9.82601083E-01 -7.84568415E+00  1.18708809E+01
 -9.58538536E+00 -1.83824740E+00 -1.62145670E+00 -1.62145670E+00  3.02932982E+00
  3.02005467E+00 -1.62145670E+00  3.02005467E+00 -1.62145670E+00  3.02932982E+00
 -1.83824740E+00  1.19079268E+01 -9.63914114E+00 -7.84568415E+00  2.60132444E+00
  1.20802916E+00  1.20802916E+00 -1.97799422E+00  1.06906590E+00  1.06906590E+00
 -1.66803290E+00  6.79983347E-01  6.79983347E-01  2.45724071E+00  4.76968703E-01
  4.76968703E-01 -7.66564783E+00  2.36445276E+00  7.36800478E-01  7.36800478E-01
  2.42012189E+00  7.92487827E-01  7.92487827E-01 -7.70141821E+00  2.42012189E+00
  7.92487827E-01  7.92487827E-01  2.40157158E+00  7.73919303E-01  7.73919303E-01
 -7.68354213E+00  2.40157158E+00  7.73919303E-01  7.73919303E-01  2.42012189E+00
  7.92487827E-01  7.92487827E-01 -7.70141821E+00  2.42012189E+00  7.92487827E-01
  7.92487827E-01  2.36445276E+00  7.36800478E-01  7.36800478E-01 -7.66564783E+00
  2.45724071E+00  4.76968703E-01  4.76968703E-01  2.36601988E+00  9.82601083E-01
  9.82601083E-01 -7.84568415E+00  1.18708809E+01 -9.58538536E+00 -1.83824740E+00
 -1.62145670E+00 -1.62145670E+00  3.02932982E+00  3.02005467E+00 -1.62145670E+00
  3.02005467E+00 -1.62145670E+00  3.02932982E+00 -1.83824740E+00  1.19079268E+01
 -9.63914114E+00 -7.84568415E+00  2.60132444E+00  1.20802916E+00  1.20802916E+00
 -1.97799422E+00  1.06906590E+00  1.06906590E+00 -1.66803290E+00  6.79983347E-01
  6.79983347E-01  2.36601988E+00  9.82601083E-01  9.82601083E-01 -7.84568415E+00
  1.18708809E+01 -9.58538536E+00 -1.83824740E+00 -1.62145670E+00 -1.62145670E+00
  3.02932982E+00  3.02005467E+00 -1.62145670E+00  3.02005467E+00 -1.62145670E+00
  3.02932982E+00 -1.83824740E+00  1.19079268E+01 -9.63914114E+00 -7.84568415E+00
  2.60132444E+00  1.20802916E+00  1.20802916E+00 -1.97799422E+00  1.06906590E+00
  1.06906590E+00 -1.66803290E+00  6.79983347E-01  6.79983347E-01  2.36601988E+00
  9.82601083E-01  9.82601083E-01 -7.84568415E+00  1.18708809E+01 -9.58538536E+00
 -1.83824740E+00 -1.62145670E+00 -1.62145670E+00  3.02932982E+00  3.02005467E+00
 -1.62145670E+00  3.02005467E+00 -1.62145670E+00  3.02932982E+00 -1.83824740E+00
  1.19079268E+01 -9.63914114E+00 -7.84568415E+00  2.60132444E+00  1.20802916E+00
  1.20802916E+00 -1.97799422E+00  1.06906590E+00  1.06906590E+00 -1.66803290E+00
  6.79983347E-01  6.79983347E-01  2.45724071E+00  4.76968703E-01  4.76968703E-01
 -7.66564783E+00  2.36445276E+00  7.36800478E-01  7.36800478E-01  2.42012189E+00
  7.92487827E-01  7.92487827E-01 -7.70141821E+00  2.42012189E+00  7.92487827E-01
  7.92487827E-01  2.40157158E+00  7.73919303E-01  7.73919303E-01 -7.68354213E+00
  2.40157158E+00  7.73919303E-01  7.73919303E-01  2.42012189E+00  7.92487827E-01
  7.92487827E-01 -7.70141821E+00  2.42012189E+00  7.92487827E-01  7.92487827E-01
  2.36445276E+00  7.36800478E-01  7.36800478E-01 -7.66564783E+00  2.45724071E+00
  4.76968703E-01  4.76968703E-01  2.36601988E+00  9.82601083E-01  9.82601083E-01
 -7.84568415E+00  1.18708809E+01 -9.58538536E+00 -1.83824740E+00 -1.62145670E+00
 -1.62145670E+00  3.02932982E+00  3.02005467E+00 -1.62145670E+00  3.02005467E+00
 -1.62145670E+00  3.02932982E+00 -1.83824740E+00  1.19079268E+01 -9.63914114E+00
 -7.84568415E+00  2.60132444E+00  1.20802916E+00  1.20802916E+00 -1.97799422E+00
  1.06906590E+00  1.06906590E+00 -1.66803290E+00  6.79983347E-01  6.79983347E-01
  2.36601988E+00  9.82601083E-01  9.82601083E-01 -7.84568415E+00  1.18708809E+01
 -9.58538536E+00 -1.83824740E+00 -1.62145670E+00 -1.62145670E+00  3.02932982E+00
  3.02005467E+00 -1.62145670E+00  3.02005467E+00 -1.62145670E+00  3.02932982E+00
 -1.83824740E+00  1.19079268E+01 -9.63914114E+00 -7.84568415E+00  2.60132444E+00
  1.20802916E+00  1.20802916E+00 -1.97799422E+00  1.06906590E+00  1.06906590E+00
 -1.66803290E+00  6.79983347E-01  6.79983347E-01  2.36601988E+00  9.82601083E-01
  9.82601083E-01 -7.84568415E+00  1.18708809E+01 -9.58538536E+00 -1.83824740E+00
 -1.62145670E+00 -1.62145670E+00  3.02932982E+00  3.02005467E+00 -1.62145670E+00
  3.02005467E+00 -1.62145670E+00  3.02932982E+00 -1.83824740E+00  1.19079268E+01
 -9.63914114E+00 -7.84568415E+00  2.60132444E+00  1.20802916E+00  1.20802916E+00
 -1.97799422E+00  1.06906590E+00  1.06906590E+00 -1.66803290E+00  6.79983347E-01
  6.79983347E-01  2.36601988E+00  9.82601083E-01  9.82601083E-01 -7.84568415E+00
  1.18708809E+01 -9.58538536E+00 -1.83824740E+00 -1.62145670E+00 -1.62145670E+00
  3.02932982E+00  3.02005467E+00 -1.62145670E+00  3.02005467E+00 -1.62145670E+00
  3.02932982E+00 -1.83824740E+00  1.19079268E+01 -9.63914114E+00 -7.84568415E+00
  2.60132444E+00  1.20802916E+00  1.20802916E+00 -1.97799422E+00  1.06906590E+00
  1.06906590E+00 -1.66803290E+00  6.79983347E-01  6.79983347E-01  2.36601988E+00
  9.82601083E-01  9.82601083E-01 -7.84568415E+00  1.18708809E+01 -9.58538536E+00
 -1.83824740E+00 -1.62145670E+00 -1.62145670E+00  3.02932982E+00  3.02005467E+00
 -1.62145670E+00  3.02005467E+00 -1.62145670E+00  3.02932982E+00 -1.83824740E+00
  1.19079268E+01 -9.63914114E+00 -7.84568415E+00  2.60132444E+00  1.20802916E+00
  1.20802916E+00 -1.97799422E+00  1.06906590E+00  1.06906590E+00 -1.66803290E+00
  6.79983347E-01  6.79983347E-01  2.36601988E+00  9.82601083E-01  9.82601083E-01
 -7.84568415E+00  1.18708809E+01 -9.58538536E+00 -1.83824740E+00 -1.62145670E+00
 -1.62145670E+00  3.02932982E+00  3.02005467E+00 -1.62145670E+00  3.02005467E+00
 -1.62145670E+00  3.02932982E+00 -1.83824740E+00  1.19079268E+01 -9.63914114E+00
 -7.84568415E+00  2.60132444E+00  1.20802916E+00  1.20802916E+00 -1.97799422E+00
  1.06906590E+00  1.06906590E+00 -1.66803290E+00  6.79983347E-01  6.79983347E-01
  2.36601988E+00  9.82601083E-01  9.82601083E-01 -7.84568415E+00  1.18708809E+01
 -9.58538536E+00 -1.83824740E+00 -1.62145670E+00 -1.62145670E+00  3.02932982E+00
  3.02005467E+00 -1.62145670E+00  3.02005467E+00 -1.62145670E+00  3.02932982E+00
 -1.83824740E+00  1.19079268E+01 -9.63914114E+00 -7.84568415E+00  2.60132444E+00
  1.20802916E+00  1.20802916E+00 -1.97799422E+00  1.06906590E+00  1.06906590E+00
 -1.66803290E+00  6.79983347E-01  6.79983347E-01  2.36601988E+00  9.82601083E-01
  9.82601083E-01 -7.84568415E+00  1.18708809E+01 -9.58538536E+00 -1.83824740E+00
 -1.62145670E+00 -1.62145670E+00  3.02932982E+00  3.02005467E+00 -1.62145670E+00
  3.02005467E+00 -1.62145670E+00  3.02932982E+00 -1.83824740E+00  1.19079268E+01
 -9.63914114E+00 -7.84568415E+00  2.60132444E+00  1.20802916E+00  1.20802916E+00
 -1.97799422E+00  1.06906590E+00  1.06906590E+00 -1.66803290E+00  6.79983347E-01
  6.79983347E-01  2.36601988E+00  9.82601083E-01  9.82601083E-01 -7.84568415E+00
  1.18708809E+01 -9.58538536E+00 -1.83824740E+00 -1.62145670E+00 -1.62145670E+00
  3.02932982E+00  3.02005467E+00 -1.62145670E+00  3.02005467E+00 -1.62145670E+00
  3.02932982E+00 -1.83824740E+00  1.19079268E+01 -9.63914114E+00 -7.84568415E+00
  2.60132444E+00  1.20802916E+00  1.20802916E+00 -1.97799422E+00  1.06906590E+00
  1.06906590E+00 -1.66803290E+00  6.79983347E-01  6.79983347E-01  2.36601988E+00
  9.82601083E-01  9.82601083E-01 -7.84568415E+00  1.18708809E+01 -9.58538536E+00
 -1.83824740E+00 -1.62145670E+00 -1.62145670E+00  3.02932982E+00  3.02005467E+00
 -1.62145670E+00  3.02005467E+00 -1.62145670E+00  3.02932982E+00 -1.83824740E+00
  1.19079268E+01 -9.63914114E+00 -7.84568415E+00  2.60132444E+00  1.20802916E+00
  1.20802916E+00 -1.97799422E+00  1.06906590E+00  1.06906590E+00 -1.66803290E+00
  6.79983347E-01  6.79983347E-01  2.36601988E+00  9.82601083E-01  9.82601083E-01
 -7.84568415E+00  1.18708809E+01 -9.58538536E+00 -1.83824740E+00 -1.62145670E+00
 -1.62145670E+00  3.02932982E+00  3.02005467E+00 -1.62145670E+00  3.02005467E+00
 -1.62145670E+00  3.02932982E+00 -1.83824740E+00  1.19079268E+01 -9.63914114E+00
 -7.84568415E+00  2.60132444E+00  1.20802916E+00  1.20802916E+00 -1.97799422E+00
  1.06906590E+00  1.06906590E+00 -1.66803290E+00  6.79983347E-01  6.79983347E-01
  2.36601988E+00  9.82601083E-01  9.82601083E-01 -7.84568415E+00  1.18708809E+01
 -9.58538536E+00 -1.83824740E+00 -1.62145670E+00 -1.62145670E+00  3.02932982E+00
  3.02005467E+00 -1.62145670E+00  3.02005467E+00 -1.62145670E+00  3.02932982E+00
 -1.83824740E+00  1.19079268E+01 -9.63914114E+00 -7.84568415E+00  2.60132444E+00
  1.20802916E+00  1.20802916E+00 -1.97799422E+00  1.06906590E+00  1.06906590E+00
 -1.66803290E+00  6.79983347E-01  6.79983347E-01  2.36601988E+00  9.82601083E-01
  9.82601083E-01 -7.84568415E+00  1.18708809E+01 -9.58538536E+00 -1.83824740E+00
 -1.62145670E+00 -1.62145670E+00  3.02932982E+00  3.02005467E+00 -1.62145670E+00
  3.02005467E+00 -1.62145670E+00  3.02932982E+00 -1.83824740E+00  1.19079268E+01
 -9.63914114E+00 -7.84568415E+00  2.60132444E+00  1.20802916E+00  1.20802916E+00
 -1.97799422E+00  1.06906590E+00  1.06906590E+00 -1.66803290E+00  6.79983347E-01
  6.79983347E-01  2.36601988E+00  9.82601083E-01  9.82601083E-01 -7.84568415E+00
  1.18708809E+01 -9.58538536E+00 -1.83824740E+00 -1.62145670E+00 -1.62145670E+00
  3.02932982E+00  3.02005467E+00 -1.62145670E+00  3.02005467E+00 -1.62145670E+00
  3.02932982E+00 -1.83824740E+00  1.19079268E+01 -9.63914114E+00 -7.84568415E+00
  2.60132444E+00  1.20802916E+00  1.20802916E+00 -1.97799422E+00  1.06906590E+00
  1.06906590E+00 -1.66803290E+00  6.79983347E-01  6.79983347E-01  2.36601988E+00
  9.82601083E-01  9.82601083E-01 -7.84568415E+00  1.18708809E+01 -9.58538536E+00
 -1.83824740E+00 -1.62145670E+00 -1.62145670E+00  3.02932982E+00  3.02005467E+00
 -1.62145670E+00  3.02005467E+00 -1.62145670E+00  3.02932982E+00 -1.83824740E+00
  1.19079268E+01 -9.63914114E+00 -7.84568415E+00  2.60132444E+00  1.20802916E+00
  1.20802916E+00 -1.97799422E+00  1.06906590E+00  1.06906590E+00 -1.66803290E+00
  6.79983347E-01  6.79983347E-01  2.36601988E+00  9.82601083E-01  9.82601083E-01
 -7.84568415E+00  1.18708809E+01 -9.58538536E+00 -1.83824740E+00 -1.62145670E+00
 -1.62145670E+00  3.02932982E+00  3.02005467E+00 -1.62145670E+00  3.02005467E+00
 -1.62145670E+00  3.02932982E+00 -1.83824740E+00  1.19079268E+01 -9.63914114E+00
 -7.84568415E+00  2.60132444E+00  1.20802916E+00  1.20802916E+00 -1.97799422E+00
  1.06906590E+00  1.06906590E+00 -1.66803290E+00  6.79983347E-01  6.79983347E-01
  2.36601988E+00  9.82601083E-01  9.82601083E-01 -7.84568415E+00  1.18708809E+01
 -9.58538536E+00 -1.83824740E+00 -1.62145670E+00 -1.62145670E+00  3.02932982E+00
  3.02005467E+00 -1.62145670E+00  3.02005467E+00 -1.62145670E+00  3.02932982E+00
 -1.83824740E+00  1.19079268E+01 -9.63914114E+00 -7.84568415E+00  2.60132444E+00
  1.20802916E+00  1.20802916E+00 -1.97799422E+00  1.06906590E+00  1.06906590E+00
 -1.66803290E+00  6.79983347E-01  6.79983347E-01  2.36601988E+00  9.82601083E-01
  9.82601083E-01 -7.84568415E+00  1.18708809E+01 -9.58538536E+00 -1.83824740E+00
 -1.62145670E+00 -1.62145670E+00  3.02932982E+00  3.02005467E+00 -1.62145670E+00
  3.02005467E+00 -1.62145670E+00  3.02932982E+00 -1.83824740E+00  1.19079268E+01
 -9.63914114E+00 -7.84568415E+00  2.60132444E+00  1.20802916E+00  1.20802916E+00
 -1.97799422E+00  1.06906590E+00  1.06906590E+00 -1.66803290E+00  6.79983347E-01
  6.79983347E-01  2.45724071E+00  4.76968703E-01  4.76968703E-01 -7.66564783E+00
  2.36445276E+00  7.36800478E-01  7.36800478E-01  2.42012189E+00  7.92487827E-01
  7.92487827E-01 -7.70141821E+00  2.42012189E+00  7.92487827E-01  7.92487827E-01
  2.40157158E+00  7.73919303E-01  7.73919303E-01 -7.68354213E+00  2.40157158E+00
  7.73919303E-01  7.73919303E-01  2.42012189E+00  7.92487827E-01  7.92487827E-01
 -7.70141821E+00  2.42012189E+00  7.92487827E-01  7.92487827E-01  2.36445276E+00
  7.36800478E-01  7.36800478E-01 -7.66564783E+00  2.45724071E+00  4.76968703E-01
  4.76968703E-01  2.36601988E+00  9.82601083E-01  9.82601083E-01 -7.84568415E+00
  1.18708809E+01 -9.58538536E+00 -1.83824740E+00 -1.62145670E+00 -1.62145670E+00
  3.02932982E+00  3.02005467E+00 -1.62145670E+00  3.02005467E+00 -1.62145670E+00
  3.02932982E+00 -1.83824740E+00  1.19079268E+01 -9.63914114E+00 -7.84568415E+00
  2.60132444E+00  1.20802916E+00  1.20802916E+00 -1.97799422E+00  1.06906590E+00
  1.06906590E+00 -1.66803290E+00  6.79983347E-01  6.79983347E-01  2.36601988E+00
  9.82601083E-01  9.82601083E-01 -7.84568415E+00  1.18708809E+01 -9.58538536E+00
 -1.83824740E+00 -1.62145670E+00 -1.62145670E+00  3.02932982E+00  3.02005467E+00
 -1.62145670E+00  3.02005467E+00 -1.62145670E+00  3.02932982E+00 -1.83824740E+00
  1.19079268E+01 -9.63914114E+00 -7.84568415E+00  2.60132444E+00  1.20802916E+00
  1.20802916E+00 -1.97799422E+00  1.06906590E+00  1.06906590E+00 -1.66803290E+00
  6.79983347E-01  6.79983347E-01  2.45724071E+00  4.76968703E-01  4.76968703E-01
 -7.66564783E+00  2.36445276E+00  7.36800478E-01  7.36800478E-01  2.42012189E+00
  7.92487827E-01  7.92487827E-01 -7.70141821E+00  2.42012189E+00  7.92487827E-01
  7.92487827E-01  2.40157158E+00  7.73919303E-01  7.73919303E-01 -7.68354213E+00
  2.40157158E+00  7.73919303E-01  7.73919303E-01  2.42012189E+00  7.92487827E-01
  7.92487827E-01 -7.70141821E+00  2.42012189E+00  7.92487827E-01  7.92487827E-01
  2.36445276E+00  7.36800478E-01  7.36800478E-01 -7.66564783E+00  2.45724071E+00
  4.76968703E-01  4.76968703E-01  2.45724071E+00  4.76968703E-01  4.76968703E-01
 -7.66564783E+00  2.36445276E+00  7.36800478E-01  7.36800478E-01  2.42012189E+00
  7.92487827E-01  7.92487827E-01 -7.70141821E+00  2.42012189E+00  7.92487827E-01
  7.92487827E-01  2.40157158E+00  7.73919303E-01  7.73919303E-01 -7.68354213E+00
  2.40157158E+00  7.73919303E-01  7.73919303E-01  2.42012189E+00  7.92487827E-01
  7.92487827E-01 -7.70141821E+00  2.42012189E+00  7.92487827E-01  7.92487827E-01
  2.36445276E+00  7.36800478E-01  7.36800478E-01 -7.66564783E+00  2.45724071E+00
  4.76968703E-01  4.76968703E-01  2.36601988E+00  9.82601083E-01  9.82601083E-01
 -7.84568415E+00  1.18708809E+01 -9.58538536E+00 -1.83824740E+00 -1.62145670E+00
 -1.62145670E+00  3.02932982E+00  3.02005467E+00 -1.62145670E+00  3.02005467E+00
 -1.62145670E+00  3.02932982E+00 -1.83824740E+00  1.19079268E+01 -9.63914114E+00
 -7.84568415E+00  2.60132444E+00  1.20802916E+00  1.20802916E+00 -1.97799422E+00
  1.06906590E+00  1.06906590E+00 -1.66803290E+00  6.79983347E-01  6.79983347E-01
%FLAG ATOMIC_NUMBER                                                             
%FORMAT(10I8)                                                                   
       6       1       1       8       6       8       6       6       6       1
       1       6       1       6       1       6       6       8       8       6
       1       1       6       1       1       6       1       1       6       1
       1       8       6       1       1       6       1       1       8       6
       1       1       6       1       1       8       6       1       1       6
       1       1       8       6       1       1       6       1       1       8
       6       1       1       6       1       1       8       6       8       6
       6       6       1       1       6       1       6       1       6       6
       8       8       6       1       1       6       1       1       6       1
       1       6       1       1       8       6       8       6       6       6
       1       1       6       1       6       1       6       6       8       8
       6       1       1       6       1       1       6       1       1       6
       1       1       8       6       8       6       6       6       1       1
       6       1       6       1       6       6       8       8       6       1
       1       6       1       1       6       1       1       6       1       1
       8       6       1       1       6       1       1       8       6       1
       1       6       1       1       8       6       1       1       6       1
       1       8       6       1       1       6       1       1       8       6
       1       1       6       1       1       8       6       8       6       6
       6       1       1       6       1       6       1       6       6       8
       8       6       1       1       6       1       1       6       1       1
       6       1       1       8       6       8       6       6       6       1
       1       6       1       6       1       6       6       8       8       6
       1       1       6       1       1       6       1       1       6       1
       1       8       6       8       6       6       6       1       1       6
       1       6       1       6       6       8       8       6       1       1
       6       1       1       6       1       1       6       1       1       8
       6       8       6       6       6       1       1       6       1       6
       1       6       6       8       8       6       1       1       6       1
       1       6       1       1       6       1       1       8       6       8
       6       6       6       1       1       6       1       6       1       6
       6       8       8       6       1       1       6       1       1       6
       1       1       6       1       1       8       6       8       6       6
       6       1       1       6       1       6       1       6       6       8
       8       6       1       1       6       1       1       6       1       1
       6       1       1       8       6       8       6       6       6       1
       1       6       1       6       1       6       6       8       8       6
       1       1       6       1       1       6       1       1       6       1
       1       8       6       8       6       6       6       1       1       6
       1       6       1       6       6       8       8       6       1       1
       6       1       1       6       1       1       6       1       1       8
       6       8       6       6       6       1       1       6       1       6
       1       6       6       8       8       6       1       1       6       1
       1       6       1       1       6       1       1       8       6       8
       6       6       6       1       1       6       1       6       1       6
       6       8       8       6       1       1       6       1       1       6
       1       1       6       1       1       8       6       8       6       6
       6       1       1       6       1       6       1       6       6       8
       8       6       1       1       6       1       1       6       1       1
       6       1       1       8       6       8       6       6       6       1
       1       6       1       6       1       6       6       8       8       6
       1       1       6       1       1       6       1       1       6       1
       1       8       6       8       6       6       6       1       1       6
       1       6       1       6       6       8       8       6       1       1
       6       1       1       6       1       1       6       1       1       8
       6       8       6       6       6       1       1       6       1       6
       1       6       6       8       8       6       1       1       6       1
       1       6       1       1       6       1       1       8       6       8
       6       6       6       1       1       6       1       6       1       6
       6       8       8       6       1       1       6       1       1       6
       1       1       6       1       1       8       6       8       6       6
       6       1       1       6       1       6       1       6       6       8
       8       6       1       1       6       1       1       6       1       1
       6       1       1       8       6       8       6       6       6       1
       1       6       1       6       1       6       6       8       8       6
       1       1       6       1       1       6       1       1       6       1
       1       8       6       8       6       6       6       1       1       6
       1       6       1       6       6       8       8       6       1       1
       6       1       1       6       1       1       6       1       1       8
       6       1       1       6       1       1       8       6       1       1
       6       1       1       8       6       1       1       6       1       1
       8       6       1       1       6       1       1       8       6       1
       1       6       1       1       8       6       8       6       6       6
       1       1       6       1       6       1       6       6       8       8
       6       1       1       6       1       1       6       1       1       6
       1       1       8       6       8       6       6       6       1       1
       6       1       6       1       6       6       8       8       6       1
       1       6       1       1       6       1       1       6       1       1
       8       6       1       1       6       1       1       8       6       1
       1       6       1       1       8       6       1       1       6       1
       1       8       6       1       1       6       1       1       8       6
       1       1       6       1       1       8       6       1       1       6
       1       1       8       6       1       1       6       1       1       8
       6       1       1       6       1       1       8       6       1       1
       6       1       1       8       6       1       1       6       1       1
       8       6       8       6       6       6       1       1       6       1
       6       1       6       6       8       8       6       1       1       6
       1       1       6       1       1
%FLAG MASS                                                                      
%FORMAT(5E16.8)                                                                 
  1.20100000E+01  1.00800000E+00  1.00800000E+00  1.60000000E+01  1.20100000E+01
  1.60000000E+01  1.20100000E+01  1.20100000E+01  1.20100000E+01  1.00800000E+00
  1.00800000E+00  1.20100000E+01  1.00800000E+00  1.20100000E+01  1.00800000E+00
  1.20100000E+01  1.20100000E+01  1.60000000E+01  1.60000000E+01  1.20100000E+01
  1.00800000E+00  1.00800000E+00  1.20100000E+01  1.00800000E+00  1.00800000E+00
  1.20100000E+01  1.00800000E+00  1.00800000E+00  1.20100000E+01  1.00800000E+00
  1.00800000E+00  1.60000000E+01  1.20100000E+01  1.00800000E+00  1.00800000E+00
  1.20100000E+01  1.00800000E+00  1.00800000E+00  1.60000000E+01  1.20100000E+01
  1.00800000E+00  1.00800000E+00  1.20100000E+01  1.00800000E+00  1.00800000E+00
  1.60000000E+01  1.20100000E+01  1.00800000E+00  1.00800000E+00  1.20100000E+01
  1.00800000E+00  1.00800000E+00  1.60000000E+01  1.20100000E+01  1.00800000E+00
  1.00800000E+00  1.20100000E+01  1.00800000E+00  1.00800000E+00  1.60000000E+01
  1.20100000E+01  1.00800000E+00  1.00800000E+00  1.20100000E+01  1.00800000E+00
  1.00800000E+00  1.60000000E+01  1.20100000E+01  1.60000000E+01  1.20100000E+01
  1.20100000E+01  1.20100000E+01  1.00800000E+00  1.00800000E+00  1.20100000E+01
  1.00800000E+00  1.20100000E+01  1.00800000E+00  1.20100000E+01  1.20100000E+01
  1.60000000E+01  1.60000000E+01  1.20100000E+01  1.00800000E+00  1.00800000E+00
  1.20100000E+01  1.00800000E+00  1.00800000E+00  1.20100000E+01  1.00800000E+00
  1.00800000E+00  1.20100000E+01  1.00800000E+00  1.00800000E+00  1.60000000E+01
  1.20100000E+01  1.60000000E+01  1.20100000E+01  1.20100000E+01  1.20100000E+01
  1.00800000E+00  1.00800000E+00  1.20100000E+01  1.00800000E+00  1.20100000E+01
  1.00800000E+00  1.20100000E+01  1.20100000E+01  1.60000000E+01  1.60000000E+01
  1.20100000E+01  1.00800000E+00  1.00800000E+00  1.20100000E+01  1.00800000E+00
  1.00800000E+00  1.20100000E+01  1.00800000E+00  1.00800000E+00  1.20100000E+01
  1.00800000E+00  1.00800000E+00  1.60000000E+01  1.20100000E+01  1.60000000E+01
  1.20100000E+01  1.20100000E+01  1.20100000E+01  1.00800000E+00  1.00800000E+00
  1.20100000E+01  1.00800000E+00  1.20100000E+01  1.00800000E+00  1.20100000E+01
  1.20100000E+01  1.60000000E+01  1.60000000E+01  1.20100000E+01  1.00800000E+00
  1.00800000E+00  1.20100000E+01  1.00800000E+00  1.00800000E+00  1.20100000E+01
  1.00800000E+00  1.00800000E+00  1.20100000E+01  1.00800000E+00  1.00800000E+00
  1.60000000E+01  1.20100000E+01  1.00800000E+00  1.00800000E+00  1.20100000E+01
  1.00800000E+00  1.00800000E+00  1.60000000E+01  1.20100000E+01  1.00800000E+00
  1.00800000E+00  1.20100000E+01  1.00800000E+00  1.00800000E+00  1.60000000E+01
  1.20100000E+01  1.00800000E+00  1.00800000E+00  1.20100000E+01  1.00800000E+00
  1.00800000E+00  1.60000000E+01  1.20100000E+01  1.00800000E+00  1.00800000E+00
  1.20100000E+01  1.00800000E+00  1.00800000E+00  1.60000000E+01  1.20100000E+01
  1.00800000E+00  1.00800000E+00  1.20100000E+01  1.00800000E+00  1.00800000E+00
  1.60000000E+01  1.20100000E+01  1.60000000E+01  1.20100000E+01  1.20100000E+01
  1.20100000E+01  1.00800000E+00  1.00800000E+00  1.20100000E+01  1.00800000E+00
  1.20100000E+01  1.00800000E+00  1.20100000E+01  1.20100000E+01  1.60000000E+01
  1.60000000E+01  1.20100000E+01  1.00800000E+00  1.00800000E+00  1.20100000E+01
  1.00800000E+00  1.00800000E+00  1.20100000E+01  1.00800000E+00  1.00800000E+00
  1.20100000E+01  1.00800000E+00  1.00800000E+00  1.60000000E+01  1.20100000E+01
  1.60000000E+01  1.20100000E+01  1.20100000E+01  1.20100000E+01  1.00800000E+00
  1.00800000E+00  1.20100000E+01  1.00800000E+00  1.20100000E+01  1.00800000E+00
  1.20100000E+01  1.20100000E+01  1.60000000E+01  1.60000000E+01  1.20100000E+01
  1.00800000E+00  1.00800000E+00  1.20100000E+01  1.00800000E+00  1.00800000E+00
  1.20100000E+01  1.00800000E+00  1.00800000E+00  1.20100000E+01  1.00800000E+00
  1.00800000E+00  1.60000000E+01  1.20100000E+01  1.60000000E+01  1.20100000E+01
  1.20100000E+01  1.20100000E+01  1.00800000E+00  1.00800000E+00  1.20100000E+01
  1.00800000E+00  1.20100000E+01  1.00800000E+00  1.20100000E+01  1.20100000E+01
  1.60000000E+01  1.60000000E+01  1.20100000E+01  1.00800000E+00  1.00800000E+00
  1.20100000E+01  1.00800000E+00  1.00800000E+00  1.20100000E+01  1.00800000E+00
  1.00800000E+00  1.20100000E+01  1.00800000E+00  1.00800000E+00  1.60000000E+01
  1.20100000E+01  1.60000000E+01  1.20100000E+01  1.20100000E+01  1.20100000E+01
  1.00800000E+00  1.00800000E+00  1.20100000E+01  1.00800000E+00  1.20100000E+01
  1.00800000E+00  1.20100000E+01  1.20100000E+01  1.60000000E+01  1.60000000E+01
  1.20100000E+01  1.00800000E+00  1.00800000E+00  1.20100000E+01  1.00800000E+00
  1.00800000E+00  1.20100000E+01  1.00800000E+00  1.00800000E+00  1.20100000E+01
  1.00800000E+00  1.00800000E+00  1.60000000E+01  1.20100000E+01  1.60000000E+01
  1.20100000E+01  1.20100000E+01  1.20100000E+01  1.00800000E+00  1.00800000E+00
  1.20100000E+01  1.00800000E+00  1.20100000E+01  1.00800000E+00  1.20100000E+01
  1.20100000E+01  1.60000000E+01  1.60000000E+01  1.20100000E+01  1.00800000E+00
  1.00800000E+00  1.20100000E+01  1.00800000E+00  1.00800000E+00  1.20100000E+01
  1.00800000E+00  1.00800000E+00  1.20100000E+01  1.00800000E+00  1.00800000E+00
  1.60000000E+01  1.20100000E+01  1.60000000E+01  1.20100000E+01  1.20100000E+01
  1.20100000E+01  1.00800000E+00  1.00800000E+00  1.20100000E+01  1.00800000E+00
  1.20100000E+01  1.00800000E+00  1.20100000E+01  1.20100000E+01  1.60000000E+01
  1.60000000E+01  1.20100000E+01  1.00800000E+00  1.00800000E+00  1.20100000E+01
  1.00800000E+00  1.00800000E+00  1.20100000E+01  1.00800000E+00  1.00800000E+00
  1.20100000E+01  1.00800000E+00  1.00800000E+00  1.60000000E+01  1.20100000E+01
  1.60000000E+01  1.20100000E+01  1.20100000E+01  1.20100000E+01  1.00800000E+00
  1.00800000E+00  1.20100000E+01  1.00800000E+00  1.20100000E+01  1.00800000E+00
  1.20100000E+01  1.20100000E+01  1.60000000E+01  1.60000000E+01  1.20100000E+01
  1.00800000E+00  1.00800000E+00  1.20100000E+01  1.00800000E+00  1.00800000E+00
  1.20100000E+01  1.00800000E+00  1.00800000E+00  1.20100000E+01  1.00800000E+00
  1.00800000E+00  1.60000000E+01  1.20100000E+01  1.60000000E+01  1.20100000E+01
  1.20100000E+01  1.20100000E+01  1.00800000E+00  1.00800000E+00  1.20100000E+01
  1.00800000E+00  1.20100000E+01  1.00800000E+00  1.20100000E+01  1.20100000E+01
  1.60000000E+01  1.60000000E+01  1.20100000E+01  1.00800000E+00  1.00800000E+00
  1.20100000E+01  1.00800000E+00  1.00800000E+00  1.20100000E+01  1.00800000E+00
  1.00800000E+00  1.20100000E+01  1.00800000E+00  1.00800000E+00  1.60000000E+01
  1.20100000E+01  1.60000000E+01  1.20100000E+01  1.20100000E+01  1.20100000E+01
  1.00800000E+00  1.00800000E+00  1.20100000E+01  1.00800000E+00  1.20100000E+01
  1.00800000E+00  1.20100000E+01  1.20100000E+01  1.60000000E+01  1.60000000E+01
  1.20100000E+01  1.00800000E+00  1.00800000E+00  1.20100000E+01  1.00800000E+00
  1.00800000E+00  1.20100000E+01  1.00800000E+00  1.00800000E+00  1.20100000E+01
  1.00800000E+00  1.00800000E+00  1.60000000E+01  1.20100000E+01  1.60000000E+01
  1.20100000E+01  1.20100000E+01  1.20100000E+01  1.00800000E+00  1.00800000E+00
  1.20100000E+01  1.00800000E+00  1.20100000E+01  1.00800000E+00  1.20100000E+01
  1.20100000E+01  1.60000000E+01  1.60000000E+01  1.20100000E+01  1.00800000E+00
  1.00800000E+00  1.20100000E+01  1.00800000E+00  1.00800000E+00  1.20100000E+01
  1.00800000E+00  1.00800000E+00  1.20100000E+01  1.00800000E+00  1.00800000E+00
  1.60000000E+01  1.20100000E+01  1.60000000E+01  1.20100000E+01  1.20100000E+01
  1.20100000E+01  1.00800000E+00  1.00800000E+00  1.20100000E+01  1.00800000E+00
  1.20100000E+01  1.00800000E+00  1.20100000E+01  1.20100000E+01  1.60000000E+01
  1.60000000E+01  1.20100000E+01  1.00800000E+00  1.00800000E+00  1.20100000E+01
  1.00800000E+00  1.00800000E+00  1.20100000E+01  1.00800000E+00  1.00800000E+00
  1.20100000E+01  1.00800000E+00  1.00800000E+00  1.60000000E+01  1.20100000E+01
  1.60000000E+01  1.20100000E+01  1.20100000E+01  1.20100000E+01  1.00800000E+00
  1.00800000E+00  1.20100000E+01  1.00800000E+00  1.20100000E+01  1.00800000E+00
  1.20100000E+01  1.20100000E+01  1.60000000E+01  1.60000000E+01  1.20100000E+01
  1.00800000E+00  1.00800000E+00  1.20100000E+01  1.00800000E+00  1.00800000E+00
  1.20100000E+01  1.00800000E+00  1.00800000E+00  1.20100000E+01  1.00800000E+00
  1.00800000E+00  1.60000000E+01  1.20100000E+01  1.60000000E+01  1.20100000E+01
  1.20100000E+01  1.20100000E+01  1.00800000E+00  1.00800000E+00  1.20100000E+01
  1.00800000E+00  1.20100000E+01  1.00800000E+00  1.20100000E+01  1.20100000E+01
  1.60000000E+01  1.60000000E+01  1.20100000E+01  1.00800000E+00  1.00800000E+00
  1.20100000E+01  1.00800000E+00  1.00800000E+00  1.20100000E+01  1.00800000E+00
  1.00800000E+00  1.20100000E+01  1.00800000E+00  1.00800000E+00  1.60000000E+01
  1.20100000E+01  1.60000000E+01  1.20100000E+01  1.20100000E+01  1.20100000E+01
  1.00800000E+00  1.00800000E+00  1.20100000E+01  1.00800000E+00  1.20100000E+01
  1.00800000E+00  1.20100000E+01  1.20100000E+01  1.60000000E+01  1.60000000E+01
  1.20100000E+01  1.00800000E+00  1.00800000E+00  1.20100000E+01  1.00800000E+00
  1.00800000E+00  1.20100000E+01  1.00800000E+00  1.00800000E+00  1.20100000E+01
  1.00800000E+00  1.00800000E+00  1.60000000E+01  1.20100000E+01  1.60000000E+01
  1.20100000E+01  1.20100000E+01  1.20100000E+01  1.00800000E+00  1.00800000E+00
  1.20100000E+01  1.00800000E+00  1.20100000E+01  1.00800000E+00  1.20100000E+01
  1.20100000E+01  1.60000000E+01  1.60000000E+01  1.20100000E+01  1.00800000E+00
  1.00800000E+00  1.20100000E+01  1.00800000E+00  1.00800000E+00  1.20100000E+01
  1.00800000E+00  1.00800000E+00  1.20100000E+01  1.00800000E+00  1.00800000E+00
  1.60000000E+01  1.20100000E+01  1.60000000E+01  1.20100000E+01  1.20100000E+01
  1.20100000E+01  1.00800000E+00  1.00800000E+00  1.20100000E+01  1.00800000E+00
  1.20100000E+01  1.00800000E+00  1.20100000E+01  1.20100000E+01  1.60000000E+01
  1.60000000E+01  1.20100000E+01  1.00800000E+00  1.00800000E+00  1.20100000E+01
  1.00800000E+00  1.00800000E+00  1.20100000E+01  1.00800000E+00  1.00800000E+00
  1.20100000E+01  1.00800000E+00  1.00800000E+00  1.60000000E+01  1.20100000E+01
  1.60000000E+01  1.20100000E+01  1.20100000E+01  1.20100000E+01  1.00800000E+00
  1.00800000E+00  1.20100000E+01  1.00800000E+00  1.20100000E+01  1.00800000E+00
  1.20100000E+01  1.20100000E+01  1.60000000E+01  1.60000000E+01  1.20100000E+01
  1.00800000E+00  1.00800000E+00  1.20100000E+01  1.00800000E+00  1.00800000E+00
  1.20100000E+01  1.00800000E+00  1.00800000E+00  1.20100000E+01  1.00800000E+00
  1.00800000E+00  1.60000000E+01  1.20100000E+01  1.60000000E+01  1.20100000E+01
  1.20100000E+01  1.20100000E+01  1.00800000E+00  1.00800000E+00  1.20100000E+01
  1.00800000E+00  1.20100000E+01  1.00800000E+00  1.20100000E+01  1.20100000E+01
  1.60000000E+01  1.60000000E+01  1.20100000E+01  1.00800000E+00  1.00800000E+00
  1.20100000E+01  1.00800000E+00  1.00800000E+00  1.20100000E+01  1.00800000E+00
  1.00800000E+00  1.20100000E+01  1.00800000E+00  1.00800000E+00  1.60000000E+01
  1.20100000E+01  1.00800000E+00  1.00800000E+00  1.20100000E+01  1.00800000E+00
  1.00800000E+00  1.60000000E+01  1.20100000E+01  1.00800000E+00  1.00800000E+00
  1.20100000E+01  1.00800000E+00  1.00800000E+00  1.60000000E+01  1.20100000E+01
  1.00800000E+00  1.00800000E+00  1.20100000E+01  1.00800000E+00  1.00800000E+00
  1.60000000E+01  1.20100000E+01  1.00800000E+00  1.00800000E+00  1.20100000E+01
  1.00800000E+00  1.00800000E+00  1.60000000E+01  1.20100000E+01  1.00800000E+00
  1.00800000E+00  1.20100000E+01  1.00800000E+00  1.00800000E+00  1.60000000E+01
  1.20100000E+01  1.60000000E+01  1.20100000E+01  1.20100000E+01  1.20100000E+01
  1.00800000E+00  1.00800000E+00  1.20100000E+01  1.00800000E+00  1.20100000E+01
  1.00800000E+00  1.20100000E+01  1.20100000E+01  1.60000000E+01  1.60000000E+01
  1.20100000E+01  1.00800000E+00  1.00800000E+00  1.20100000E+01  1.00800000E+00
  1.00800000E+00  1.20100000E+01  1.00800000E+00  1.00800000E+00  1.20100000E+01
  1.00800000E+00  1.00800000E+00  1.60000000E+01  1.20100000E+01  1.60000000E+01
  1.20100000E+01  1.20100000E+01  1.20100000E+01  1.00800000E+00  1.00800000E+00
  1.20100000E+01  1.00800000E+00  1.20100000E+01  1.00800000E+00  1.20100000E+01
  1.20100000E+01  1.60000000E+01  1.60000000E+01  1.20100000E+01  1.00800000E+00
  1.00800000E+00  1.20100000E+01  1.00800000E+00  1.00800000E+00  1.20100000E+01
  1.00800000E+00  1.00800000E+00  1.20100000E+01  1.00800000E+00  1.00800000E+00
  1.60000000E+01  1.20100000E+01  1.00800000E+00  1.00800000E+00  1.20100000E+01
  1.00800000E+00  1.00800000E+00  1.60000000E+01  1.20100000E+01  1.00800000E+00
  1.00800000E+00  1.20100000E+01  1.00800000E+00  1.00800000E+00  1.60000000E+01
  1.20100000E+01  1.00800000E+00  1.00800000E+00  1.20100000E+01  1.00800000E+00
  1.00800000E+00  1.60000000E+01  1.20100000E+01  1.00800000E+00  1.00800000E+00
  1.20100000E+01  1.00800000E+00  1.00800000E+00  1.60000000E+01  1.20100000E+01
  1.00800000E+00  1.00800000E+00  1.20100000E+01  1.00800000E+00  1.00800000E+00
  1.60000000E+01  1.20100000E+01  1.00800000E+00  1.00800000E+00  1.20100000E+01
  1.00800000E+00  1.00800000E+00  1.60000000E+01  1.20100000E+01  1.00800000E+00
  1.00800000E+00  1.20100000E+01  1.00800000E+00  1.00800000E+00  1.60000000E+01
  1.20100000E+01  1.00800000E+00  1.00800000E+00  1.20100000E+01  1.00800000E+00
  1.00800000E+00  1.60000000E+01  1.20100000E+01  1.00800000E+00  1.00800000E+00
  1.20100000E+01  1.00800000E+00  1.00800000E+00  1.60000000E+01  1.20100000E+01
  1.00800000E+00  1.00800000E+00  1.20100000E+01  1.00800000E+00  1.00800000E+00
  1.60000000E+01  1.20100000E+01  1.60000000E+01  1.20100000E+01  1.20100000E+01
  1.20100000E+01  1.00800000E+00  1.00800000E+00  1.20100000E+01  1.00800000E+00
  1.20100000E+01  1.00800000E+00  1.20100000E+01  1.20100000E+01  1.60000000E+01
  1.60000000E+01  1.20100000E+01  1.00800000E+00  1.00800000E+00  1.20100000E+01
  1.00800000E+00  1.00800000E+00  1.20100000E+01  1.00800000E+00  1.00800000E+00
%FLAG ATOM_TYPE_INDEX                                                           
%FORMAT(10I8)                                                                   
       1       2       2       3       4       5       4       4       4       6
       6       4       6       4       6       4       4       5       3       1
       2       2       1       7       7       1       7       7       1       2
       2       3       1       2       2       1       2       2       3       1
       2       2       1       2       2       3       1       2       2       1
       2       2       3       1       2       2       1       2       2       3
       1       2       2       1       2       2       3       4       5       4
       4       4       6       6       4       6       4       6       4       4
       5       3       1       2       2       1       7       7       1       7
       7       1       2       2       3       4       5       4       4       4
       6       6       4       6       4       6       4       4       5       3
       1       2       2       1       7       7       1       7       7       1
       2       2       3       4       5       4       4       4       6       6
       4       6       4       6       4       4       5       3       1       2
       2       1       7       7       1       7       7       1       2       2
       3       1       2       2       1       2       2       3       1       2
       2       1       2       2       3       1       2       2       1       2
       2       3       1       2       2       1       2       2       3       1
       2       2       1       2       2       3       4       5       4       4
       4       6       6       4       6       4       6       4       4       5
       3       1       2       2       1       7       7       1       7       7
       1       2       2       3       4       5       4       4       4       6
       6       4       6       4       6       4       4       5       3       1
       2       2       1       7       7       1       7       7       1       2
       2       3       4       5       4       4       4       6       6       4
       6       4       6       4       4       5       3       1       2       2
       1       7       7       1       7       7       1       2       2       3
       4       5       4       4       4       6       6       4       6       4
       6       4       4       5       3       1       2       2       1       7
       7       1       7       7       1       2       2       3       4       5
       4       4       4       6       6       4       6       4       6       4
       4       5       3       1       2       2       1       7       7       1
       7       7       1       2       2       3       4       5       4       4
       4       6       6       4       6       4       6       4       4       5
       3       1       2       2       1       7       7       1       7       7
       1       2       2       3       4       5       4       4       4       6
       6       4       6       4       6       4       4       5       3       1
       2       2       1       7       7       1       7       7       1       2
       2       3       4       5       4       4       4       6       6       4
       6       4       6       4       4       5       3       1       2       2
       1       7       7       1       7       7       1       2       2       3
       4       5       4       4       4       6       6       4       6       4
       6       4       4       5       3       1       2       2       1       7
       7       1       7       7       1       2       2       3       4       5
       4       4       4       6       6       4       6       4       6       4
       4       5       3       1       2       2       1       7       7       1
       7       7       1       2       2       3       4       5       4       4
       4       6       6       4       6       4       6       4       4       5
       3       1       2       2       1       7       7       1       7       7
       1       2       2       3       4       5       4       4       4       6
       6       4       6       4       6       4       4       5       3       1
       2       2       1       7       7       1       7       7       1       2
       2       3       4       5       4       4       4       6       6       4
       6       4       6       4       4       5       3       1       2       2
       1       7       7       1       7       7       1       2       2       3
       4       5       4       4       4       6       6       4       6       4
       6       4       4       5       3       1       2       2       1       7
       7       1       7       7       1       2       2       3       4       5
       4       4       4       6       6       4       6       4       6       4
       4       5       3       1       2       2       1       7       7       1
       7       7       1       2       2       3       4       5       4       4
       4       6       6       4       6       4       6       4       4       5
       3       1       2       2       1       7       7       1       7       7
       1       2       2       3       4       5       4       4       4       6
       6       4       6       4       6       4       4       5       3       1
       2       2       1       7       7       1       7       7       1       2
       2       3       4       5       4       4       4       6       6       4
       6       4       6       4       4       5       3       1       2       2
       1       7       7       1       7       7       1       2       2       3
       1       2       2       1       2       2       3       1       2       2
       1       2       2       3       1       2       2       1       2       2
       3       1       2       2       1       2       2       3       1       2
       2       1       2       2       3       4       5       4       4       4
       6       6       4       6       4       6       4       4       5       3
       1       2       2       1       7       7       1       7       7       1
       2       2       3       4       5       4       4       4       6       6
       4       6       4       6       4       4       5       3       1       2
       2       1       7       7       1       7       7       1       2       2
       3       1       2       2       1       2       2       3       1       2
       2       1       2       2       3       1       2       2       1       2
       2       3       1       2       2       1       2       2       3       1
       2       2       1       2       2       3       1       2       2       1
       2       2       3       1       2       2       1       2       2       3
       1       2       2       1       2       2       3       1       2       2
       1       2       2       3       1       2       2       1       2       2
       3       4       5       4       4       4       6       6       4       6
       4       6       4       4       5       3       1       2       2       1
       7       7       1       7       7
%FLAG NUMBER_EXCLUDED_ATOMS                                                     
%FORMAT(10I8)                                                                   
       6       3       2       5       8       3       9       8       9       4
       2       5       3       5       2       4       6       2       7       9
       5       4       9       5       4       7       5       4       7       3
       2       7       7       5       4       7       3       2       7       7
       5       4       7       3       2       7       7       5       4       7
       3       2       7       7       5       4       7       3       2       7
       7       5       4       6       3       2       5       8       3       9
       8       9       4       2       5       3       5       2       4       6
       2       7       9       5       4       9       5       4       7       5
       4       6       3       2       5       8       3       9       8       9
       4       2       5       3       5       2       4       6       2       7
       9       5       4       9       5       4       7       5       4       6
       3       2       5       8       3       9       8       9       4       2
       5       3       5       2       4       6       2       7       9       5
       4       9       5       4       7       5       4       7       3       2
       7       7       5       4       7       3       2       7       7       5
       4       7       3       2       7       7       5       4       7       3
       2       7       7       5       4       7       3       2       7       7
       5       4       6       3       2       5       8       3       9       8
       9       4       2       5       3       5       2       4       6       2
       7       9       5       4       9       5       4       7       5       4
       6       3       2       5       8       3       9       8       9       4
       2       5       3       5       2       4       6       2       7       9
       5       4       9       5       4       7       5       4       6       3
       2       5       8       3       9       8       9       4       2       5
       3       5       2       4       6       2       7       9       5       4
       9       5       4       7       5       4       6       3       2       5
       8       3       9       8       9       4       2       5       3       5
       2       4       6       2       7       9       5       4       9       5
       4       7       5       4       6       3       2       5       8       3
       9       8       9       4       2       5       3       5       2       4
       6       2       7       9       5       4       9       5       4       7
       5       4       6       3       2       5       8       3       9       8
       9       4       2       5       3       5       2       4       6       2
       7       9       5       4       9       5       4       7       5       4
       6       3       2       5       8       3       9       8       9       4
       2       5       3       5       2       4       6       2       7       9
       5       4       9       5       4       7       5       4       6       3
       2       5       8       3       9       8       9       4       2       5
       3       5       2       4       6       2       7       9       5       4
       9       5       4       7       5       4       6       3       2       5
       8       3       9       8       9       4       2       5       3       5
       2       4       6       2       7       9       5       4       9       5
       4       7       5       4       6       3       2       5       8       3
       9       8       9       4       2       5       3       5       2       4
       6       2       7       9       5       4       9       5       4       7
       5       4       6       3       2       5       8       3       9       8
       9       4       2       5       3       5       2       4       6       2
       7       9       5       4       9       5       4       7       5       4
       6       3       2       5       8       3       9       8       9       4
       2       5       3       5       2       4       6       2       7       9
       5       4       9       5       4       7       5       4       6       3
       2       5       8       3       9       8       9       4       2       5
       3       5       2       4       6       2       7       9       5       4
       9       5       4       7       5       4       6       3       2       5
       8       3       9       8       9       4       2       5       3       5
       2       4       6       2       7       9       5       4       9       5
       4       7       5       4       6       3       2       5       8       3
       9       8       9       4       2       5       3       5       2       4
       6       2       7       9       5       4       9       5       4       7
       5       4       6       3       2       5       8       3       9       8
       9       4       2       5       3       5       2       4       6       2
       7       9       5       4       9       5       4       7       5       4
       6       3       2       5       8       3       9       8       9       4
       2       5       3       5       2       4       6       2       7       9
       5       4       9       5       4       7       5       4       6       3
       2       5       8       3       9       8       9       4       2       5
       3       5       2       4       6       2       7       9       5       4
       9       5       4       7       5       4       7       3       2       7
       7       5       4       7       3       2       7       7       5       4
       7       3       2       7       7       5       4       7       3       2
       7       7       5       4       7       3       2       7       7       5
       4       6       3       2       5       8       3       9       8       9
       4       2       5       3       5       2       4       6       2       7
       9       5       4       9       5       4       7       5       4       6
       3       2       5       8       3       9       8       9       4       2
       5       3       5       2       4       6       2       7       9       5
       4       9       5       4       7       5       4       7       3       2
       7       7       5       4       7       3       2       7       7       5
       4       7       3       2       7       7       5       4       7       3
       2       7       7       5       4       7       3       2       7       7
       5       4       7       3       2       7       7       5       4       7
       3       2       7       7       5       4       7       3       2       7
       7       5       4       7       3       2       7       7       5       4
       7       3       2       7       7       5       4       6       3       2
       5       8       3       9       8       9       4       2       5       3
       5       2       4       6       2       7       8       5       4       5
       4       3       2       1       1
%FLAG NONBONDED_PARM_INDEX                                                      
%FORMAT(10I8)                                                                   
       1       2       4       7      11      16      22       2       3       5
       8      12      17      23       4       5       6       9      13      18
      24       7       8       9      10      14      19      25      11      12
      13      14      15      20      26      16      17      18      19      20
      21      27      22      23      24      25      26      27      28
%FLAG RESIDUE_LABEL                                                             
%FORMAT(20a4)                                                                   
PET PEO PET PET PET PEO PET PET PET PET PET PET PET PET PET PET PET PET PET PET 
PET PET PET PET PEO PET PET PEO PEO PET 
%FLAG RESIDUE_POINTER                                                           
%FORMAT(10I8)                                                                   
       1      29      64      92     120     148     183     211     239     267
     295     323     351     379     407     435     463     491     519     547
     575     603     631     659     687     722     750     778     813     848
%FLAG BOND_FORCE_CONSTANT                                                       
%FORMAT(5E16.8)                                                                 
  3.45250000E+02  2.28890000E+02  3.44220000E+02  2.82270000E+02  5.90600000E+02
  3.51310000E+02  2.62840000E+02  3.60690000E+02  3.54250000E+02
%FLAG BOND_EQUIL_VALUE                                                          
%FORMAT(5E16.8)                                                                 
  1.09620000E+00  1.53540000E+00  1.09690000E+00  1.42730000E+00  1.21900000E+00
  1.36210000E+00  1.49070000E+00  1.08600000E+00  1.39860000E+00
%FLAG ANGLE_FORCE_CONSTANT                                                      
%FORMAT(5E16.8)                                                                 
  4.32700000E+01  3.58000000E+01  4.32800000E+01  7.74400000E+01  5.98700000E+01
  3.56400000E+01  5.62000000E+01  1.01260000E+02  8.94300000E+01  7.79600000E+01
  7.85800000E+01  4.49000000E+01  6.14400000E+01  6.36700000E+01  8.83300000E+01
%FLAG ANGLE_EQUIL_VALUE                                                         
%FORMAT(5E16.8)                                                                 
  1.91427794E+00  1.88024401E+00  1.91270715E+00  1.87832415E+00  1.96576518E+00
  1.89455572E+00  1.92579712E+00  2.15024656E+00  2.02144121E+00  2.13977458E+00
  1.96192545E+00  2.09230160E+00  2.10015559E+00  2.09474507E+00  1.98269488E+00
%FLAG DIHEDRAL_FORCE_CONSTANT                                                   
%FORMAT(5E16.8)                                                                 
  1.55555556E-01  2.50000000E-01  0.00000000E+00  8.80000000E-01  8.00000000E-02
  7.50000000E-01  1.20000000E-01  1.30000000E-01  5.20000000E-01  1.40000000E+00
  2.70000000E+00  3.83333333E-01  8.00000000E-01  3.83000000E-01  1.60000000E+00
  3.67000000E+00  3.10000000E-01  3.62500000E+00  5.80000000E-01  1.00000000E+00
  1.80000000E-01  9.00000000E-01  5.00000000E-01  3.37000000E-01  1.05000000E+01
  1.10000000E+00
%FLAG DIHEDRAL_PERIODICITY                                                      
%FORMAT(5E16.8)                                                                 
  3.00000000E+00  1.00000000E+00  3.00000000E+00  1.00000000E+00  2.00000000E+00
  3.00000000E+00  3.00000000E+00  3.00000000E+00  3.00000000E+00  1.00000000E+00
  2.00000000E+00  3.00000000E+00  1.00000000E+00  3.00000000E+00  1.00000000E+00
  2.00000000E+00  3.00000000E+00  2.00000000E+00  2.00000000E+00  2.00000000E+00
  1.00000000E+00  2.00000000E+00  3.00000000E+00  3.00000000E+00  2.00000000E+00
  2.00000000E+00
%FLAG DIHEDRAL_PHASE                                                            
%FORMAT(5E16.8)                                                                 
  0.00000000E+00  0.00000000E+00  0.00000000E+00  3.14159400E+00  0.00000000E+00
  0.00000000E+00  0.00000000E+00  0.00000000E+00  0.00000000E+00  3.14159400E+00
  3.14159400E+00  0.00000000E+00  3.14159400E+00  0.00000000E+00  3.14159400E+00
  3.14159400E+00  0.00000000E+00  3.14159400E+00  3.14159400E+00  3.14159400E+00
  0.00000000E+00  0.00000000E+00  0.00000000E+00  0.00000000E+00  3.14159400E+00
  3.14159400E+00
%FLAG SCEE_SCALE_FACTOR                                                         
%FORMAT(5E16.8)                                                                 
  1.20000000E+00  1.20000000E+00  1.20000000E+00  1.20000000E+00  1.20000000E+00
  1.20000000E+00  1.20000000E+00  1.20000000E+00  1.20000000E+00  1.20000000E+00
  1.20000000E+00  1.20000000E+00  1.20000000E+00  1.20000000E+00  1.20000000E+00
  1.20000000E+00  1.20000000E+00  1.20000000E+00  1.20000000E+00  1.20000000E+00
  1.20000000E+00  1.20000000E+00  1.20000000E+00  1.20000000E+00  0.00000000E+00
  0.00000000E+00
%FLAG SCNB_SCALE_FACTOR                                                         
%FORMAT(5E16.8)                                                                 
  2.00000000E+00  2.00000000E+00  2.00000000E+00  2.00000000E+00  2.00000000E+00
  2.00000000E+00  2.00000000E+00  2.00000000E+00  2.00000000E+00  2.00000000E+00
  2.00000000E+00  2.00000000E+00  2.00000000E+00  2.00000000E+00  2.00000000E+00
  2.00000000E+00  2.00000000E+00  2.00000000E+00  2.00000000E+00  2.00000000E+00
  2.00000000E+00  2.00000000E+00  2.00000000E+00  2.00000000E+00  0.00000000E+00
  0.00000000E+00
%FLAG SOLTY                                                                     
%FORMAT(5E16.8)                                                                 
  0.00000000E+00  0.00000000E+00  0.00000000E+00  0.00000000E+00  0.00000000E+00
  0.00000000E+00  0.00000000E+00  0.00000000E+00
%FLAG LENNARD_JONES_ACOEF                                                       
%FORMAT(5E16.8)                                                                 
  1.02073671E+06  6.97998263E+04  3.39005767E+03  5.42502534E+05  3.44374471E+04
  2.83662575E+05  8.43969952E+05  5.63013422E+04  4.46121722E+05  6.96551276E+05
  6.30925504E+05  3.86646725E+04  3.27367585E+05  5.17507491E+05  3.76435470E+05
  9.27554496E+04  4.88692384E+03  4.65732396E+04  7.52549148E+04  5.27277400E+04
  6.90855956E+03  1.00235148E+05  5.22955465E+03  5.02224902E+04  8.12662403E+04
  5.68021765E+04  7.41026906E+03  7.94617769E+03
%FLAG LENNARD_JONES_BCOEF                                                       
%FORMAT(5E16.8)                                                                 
  6.63431737E+02  1.14981426E+02  1.67944276E+01  4.38146883E+02  7.31636661E+01
  2.87011518E+02  5.90251928E+02  1.01040256E+02  3.88758656E+02  5.24668528E+02
  5.62969425E+02  9.23664132E+01  3.67361018E+02  4.98871431E+02  4.69350655E+02
  1.24325688E+02  1.89134207E+01  7.98066064E+01  1.09570372E+02  1.01173582E+02
  2.10929191E+01  1.37787728E+02  2.08590256E+01  8.83545880E+01  1.21392023E+02
  1.11953944E+02  2.32899892E+01  2.57122925E+01
%FLAG BONDS_INC_HYDROGEN                                                        
%FORMAT(10I8)                                                                   
      75      78       1      75      81       1      66      69       1      66
      72       1      57      60       3      57      63       3      39      42
       8      33      36       8      24      27       8      21      30       8
       0       3       3       0       6       3     180     183       3     180
     186       3     168     171       3     168     174       3     159     162
       3     159     165       3     147     150       3     147     153       3
     138     141       3     138     144       3     126     129       3     126
     132       3     117     120       3     117     123       3     105     108
       3     105     111       3      96      99       3      96     102       3
      84      87       3      84      90       3     264     267       1     264
     270       1     255     258       1     255     261       1     246     249
       3     246     252       3     228     231       8     222     225       8
     213     216       8     210     219       8     189     192       3     189
     195       3     348     351       1     348     354       1     339     342
       1     339     345       1     330     333       3     330     336       3
     312     315       8     306     309       8     297     300       8     294
     303       8     273     276       3     273     279       3     432     435
       1     432     438       1     423     426       1     423     429       1
     414     417       3     414     420       3     396     399       8     390
     393       8     381     384       8     378     387       8     357     360
       3     357     363       3     537     540       3     537     543       3
     525     528       3     525     531       3     516     519       3     516
     522       3     504     507       3     504     510       3     495     498
       3     495     501       3     483     486       3     483     489       3
     474     477       3     474     480       3     462     465       3     462
     468       3     453     456       3     453     459       3     441     444
       3     441     447       3     621     624       1     621     627       1
     612     615       1     612     618       1     603     606       3     603
     609       3     585     588       8     579     582       8     570     573
       8     567     576       8     546     549       3     546     552       3
     705     708       1     705     711       1     696     699       1     696
     702       1     687     690       3     687     693       3     669     672
       8     663     666       8     654     657       8     651     660       8
     630     633       3     630     636       3     789     792       1     789
     795       1     780     783       1     780     786       1     771     774
       3     771     777       3     753     756       8     747     750       8
     738     741       8     735     744       8     714     717       3     714
     720       3     873     876       1     873     879       1     864     867
       1     864     870       1     855     858       3     855     861       3
     837     840       8     831     834       8     822     825       8     819
     828       8     798     801       3     798     804       3     957     960
       1     957     963       1     948     951       1     948     954       1
     939     942       3     939     945       3     921     924       8     915
     918       8     906     909       8     903     912       8     882     885
       3     882     888       3    1041    1044       1    1041    1047       1
    1032    1035       1    1032    1038       1    1023    1026       3    1023
    1029       3    1005    1008       8     999    1002       8     990     993
       8     987     996       8     966     969       3     966     972       3
    1125    1128       1    1125    1131       1    1116    1119       1    1116
    1122       1    1107    1110       3    1107    1113       3    1089    1092
       8    1083    1086       8    1074    1077       8    1071    1080       8
    1050    1053       3    1050    1056       3    1209    1212       1    1209
    1215       1    1200    1203       1    1200    1206       1    1191    1194
       3    1191    1197       3    1173    1176       8    1167    1170       8
    1158    1161       8    1155    1164       8    1134    1137       3    1134
    1140       3    1293    1296       1    1293    1299       1    1284    1287
       1    1284    1290       1    1275    1278       3    1275    1281       3
    1257    1260       8    1251    1254       8    1242    1245       8    1239
    1248       8    1218    1221       3    1218    1224       3    1377    1380
       1    1377    1383       1    1368    1371       1    1368    1374       1
    1359    1362       3    1359    1365       3    1341    1344       8    1335
    1338       8    1326    1329       8    1323    1332       8    1302    1305
       3    1302    1308       3    1461    1464       1    1461    1467       1
    1452    1455       1    1452    1458       1    1443    1446       3    1443
    1449       3    1425    1428       8    1419    1422       8    1410    1413
       8    1407    1416       8    1386    1389       3    1386    1392       3
    1545    1548       1    1545    1551       1    1536    1539       1    1536
    1542       1    1527    1530       3    1527    1533       3    1509    1512
       8    1503    1506       8    1494    1497       8    1491    1500       8
    1470    1473       3    1470    1476       3    1629    1632       1    1629
    1635       1    1620    1623       1    1620    1626       1    1611    1614
       3    1611    1617       3    1593    1596       8    1587    1590       8
    1578    1581       8    1575    1584       8    1554    1557       3    1554
    1560       3    1713    1716       1    1713    1719       1    1704    1707
       1    1704    1710       1    1695    1698       3    1695    1701       3
    1677    1680       8    1671    1674       8    1662    1665       8    1659
    1668       8    1638    1641       3    1638    1644       3    1797    1800
       1    1797    1803       1    1788    1791       1    1788    1794       1
    1779    1782       3    1779    1785       3    1761    1764       8    1755
    1758       8    1746    1749       8    1743    1752       8    1722    1725
       3    1722    1728       3    1881    1884       1    1881    1887       1
    1872    1875       1    1872    1878       1    1863    1866       3    1863
    1869       3    1845    1848       8    1839    1842       8    1830    1833
       8    1827    1836       8    1806    1809       3    1806    1812       3
    1965    1968       1    1965    1971       1    1956    1959       1    1956
    1962       1    1947    1950       3    1947    1953       3    1929    1932
       8    1923    1926       8    1914    1917       8    1911    1920       8
    1890    1893       3    1890    1896       3    2049    2052       1    2049
    2055       1    2040    2043       1    2040    2046       1    2031    2034
       3    2031    2037       3    2013    2016       8    2007    2010       8
    1998    2001       8    1995    2004       8    1974    1977       3    1974
    1980       3    2154    2157       3    2154    2160       3    2142    2145
       3    2142    2148       3    2133    2136       3    2133    2139       3
    2121    2124       3    2121    2127       3    2112    2115       3    2112
    2118       3    2100    2103       3    2100    2106       3    2091    2094
       3    2091    2097       3    2079    2082       3    2079    2085       3
    2070    2073       3    2070    2076       3    2058    2061       3    2058
    2064       3    2238    2241       1    2238    2244       1    2229    2232
       1    2229    2235       1    2220    2223       3    2220    2226       3
    2202    2205       8    2196    2199       8    2187    2190       8    2184
    2193       8    2163    2166       3    2163    2169       3    2322    2325
       1    2322    2328       1    2313    2316       1    2313    2319       1
    2304    2307       3    2304    2310       3    2286    2289       8    2280
    2283       8    2271    2274       8    2268    2277       8    2247    2250
       3    2247    2253       3    2427    2430       3    2427    2433       3
    2415    2418       3    2415    2421       3    2406    2409       3    2406
    2412       3    2394    2397       3    2394    2400       3    2385    2388
       3    2385    2391       3    2373    2376       3    2373    2379       3
    2364    2367       3    2364    2370       3    2352    2355       3    2352
    2358       3    2343    2346       3    2343    2349       3    2331    2334
       3    2331    2337       3    2532    2535       3    2532    2538       3
    2520    2523       3    2520    2526       3    2511    2514       3    2511
    2517       3    2499    2502       3    2499    2505       3    2490    2493
       3    2490    2496       3    2478    2481       3    2478    2484       3
    2469    2472       3    2469    2475       3    2457    2460       3    2457
    2463       3    2448    2451       3    2448    2454       3    2436    2439
       3    2436    2442       3    2616    2619       1    2616    2622       1
    2607    2610       1    2607    2613       1    2598    2601       3    2598
    2604       3    2580    2583       8    2574    2577       8    2565    2568
       8    2562    2571       8    2541    2544       3    2541    2547       3
%FLAG BONDS_WITHOUT_HYDROGEN                                                    
%FORMAT(10I8)                                                                   
      75      84       2      66      75       2      57      66       2      54
      57       4      48      51       5      48      54       6      45      48
       7      39      45       9      33      39       9      24      45       9
      21      24       9      18      21       9      18      33       9      12
      15       5      12      18       7       9      12       6       0       9
       4     180     189       2     177     180       4     168     177       4
     159     168       2     156     159       4     147     156       4     138
     147       2     135     138       4     126     135       4     117     126
       2     114     117       4     105     114       4      96     105       2
      93      96       4      84      93       4     264     273       2     255
     264       2     246     255       2     243     246       4     237     240
       5     237     243       6     234     237       7     228     234       9
     222     228       9     213     234       9     210     213       9     207
     210       9     207     222       9     201     204       5     201     207
       7     198     201       6     189     198       4     348     357       2
     339     348       2     330     339       2     327     330       4     321
     324       5     321     327       6     318     321       7     312     318
       9     306     312       9     297     318       9     294     297       9
     291     294       9     291     306       9     285     288       5     285
     291       7     282     285       6     273     282       4     432     441
       2     423     432       2     414     423       2     411     414       4
     405     408       5     405     411       6     402     405       7     396
     402       9     390     396       9     381     402       9     378     381
       9     375     378       9     375     390       9     369     372       5
     369     375       7     366     369       6     357     366       4     537
     546       2     534     537       4     525     534       4     516     525
       2     513     516       4     504     513       4     495     504       2
     492     495       4     483     492       4     474     483       2     471
     474       4     462     471       4     453     462       2     450     453
       4     441     450       4     621     630       2     612     621       2
     603     612       2     600     603       4     594     597       5     594
     600       6     591     594       7     585     591       9     579     585
       9     570     591       9     567     570       9     564     567       9
     564     579       9     558     561       5     558     564       7     555
     558       6     546     555       4     705     714       2     696     705
       2     687     696       2     684     687       4     678     681       5
     678     684       6     675     678       7     669     675       9     663
     669       9     654     675       9     651     654       9     648     651
       9     648     663       9     642     645       5     642     648       7
     639     642       6     630     639       4     789     798       2     780
     789       2     771     780       2     768     771       4     762     765
       5     762     768       6     759     762       7     753     759       9
     747     753       9     738     759       9     735     738       9     732
     735       9     732     747       9     726     729       5     726     732
       7     723     726       6     714     723       4     873     882       2
     864     873       2     855     864       2     852     855       4     846
     849       5     846     852       6     843     846       7     837     843
       9     831     837       9     822     843       9     819     822       9
     816     819       9     816     831       9     810     813       5     810
     816       7     807     810       6     798     807       4     957     966
       2     948     957       2     939     948       2     936     939       4
     930     933       5     930     936       6     927     930       7     921
     927       9     915     921       9     906     927       9     903     906
       9     900     903       9     900     915       9     894     897       5
     894     900       7     891     894       6     882     891       4    1041
    1050       2    1032    1041       2    1023    1032       2    1020    1023
       4    1014    1017       5    1014    1020       6    1011    1014       7
    1005    1011       9     999    1005       9     990    1011       9     987
     990       9     984     987       9     984     999       9     978     981
       5     978     984       7     975     978       6     966     975       4
    1125    1134       2    1116    1125       2    1107    1116       2    1104
    1107       4    1098    1101       5    1098    1104       6    1095    1098
       7    1089    1095       9    1083    1089       9    1074    1095       9
    1071    1074       9    1068    1071       9    1068    1083       9    1062
    1065       5    1062    1068       7    1059    1062       6    1050    1059
       4    1209    1218       2    1200    1209       2    1191    1200       2
    1188    1191       4    1182    1185       5    1182    1188       6    1179
    1182       7    1173    1179       9    1167    1173       9    1158    1179
       9    1155    1158       9    1152    1155       9    1152    1167       9
    1146    1149       5    1146    1152       7    1143    1146       6    1134
    1143       4    1293    1302       2    1284    1293       2    1275    1284
       2    1272    1275       4    1266    1269       5    1266    1272       6
    1263    1266       7    1257    1263       9    1251    1257       9    1242
    1263       9    1239    1242       9    1236    1239       9    1236    1251
       9    1230    1233       5    1230    1236       7    1227    1230       6
    1218    1227       4    1377    1386       2    1368    1377       2    1359
    1368       2    1356    1359       4    1350    1353       5    1350    1356
       6    1347    1350       7    1341    1347       9    1335    1341       9
    1326    1347       9    1323    1326       9    1320    1323       9    1320
    1335       9    1314    1317       5    1314    1320       7    1311    1314
       6    1302    1311       4    1461    1470       2    1452    1461       2
    1443    1452       2    1440    1443       4    1434    1437       5    1434
    1440       6    1431    1434       7    1425    1431       9    1419    1425
       9    1410    1431       9    1407    1410       9    1404    1407       9
    1404    1419       9    1398    1401       5    1398    1404       7    1395
    1398       6    1386    1395       4    1545    1554       2    1536    1545
       2    1527    1536       2    1524    1527       4    1518    1521       5
    1518    1524       6    1515    1518       7    1509    1515       9    1503
    1509       9    1494    1515       9    1491    1494       9    1488    1491
       9    1488    1503       9    1482    1485       5    1482    1488       7
    1479    1482       6    1470    1479       4    1629    1638       2    1620
    1629       2    1611    1620       2    1608    1611       4    1602    1605
       5    1602    1608       6    1599    1602       7    1593    1599       9
    1587    1593       9    1578    1599       9    1575    1578       9    1572
    1575       9    1572    1587       9    1566    1569       5    1566    1572
       7    1563    1566       6    1554    1563       4    1713    1722       2
    1704    1713       2    1695    1704       2    1692    1695       4    1686
    1689       5    1686    1692       6    1683    1686       7    1677    1683
       9    1671    1677       9    1662    1683       9    1659    1662       9
    1656    1659       9    1656    1671       9    1650    1653       5    1650
    1656       7    1647    1650       6    1638    1647       4    1797    1806
       2    1788    1797       2    1779    1788       2    1776    1779       4
    1770    1773       5    1770    1776       6    1767    1770       7    1761
    1767       9    1755    1761       9    1746    1767       9    1743    1746
       9    1740    1743       9    1740    1755       9    1734    1737       5
    1734    1740       7    1731    1734       6    1722    1731       4    1881
    1890       2    1872    1881       2    1863    1872       2    1860    1863
       4    1854    1857       5    1854    1860       6    1851    1854       7
    1845    1851       9    1839    1845       9    1830    1851       9    1827
    1830       9    1824    1827       9    1824    1839       9    1818    1821
       5    1818    1824       7    1815    1818       6    1806    1815       4
    1965    1974       2    1956    1965       2    1947    1956       2    1944
    1947       4    1938    1941       5    1938    1944       6    1935    1938
       7    1929    1935       9    1923    1929       9    1914    1935       9
    1911    1914       9    1908    1911       9    1908    1923       9    1902
    1905       5    1902    1908       7    1899    1902       6    1890    1899
       4    2049    2058       2    2040    2049       2    2031    2040       2
    2028    2031       4    2022    2025       5    2022    2028       6    2019
    2022       7    2013    2019       9    2007    2013       9    1998    2019
       9    1995    1998       9    1992    1995       9    1992    2007       9
    1986    1989       5    1986    1992       7    1983    1986       6    1974
    1983       4    2154    2163       2    2151    2154       4    2142    2151
       4    2133    2142       2    2130    2133       4    2121    2130       4
    2112    2121       2    2109    2112       4    2100    2109       4    2091
    2100       2    2088    2091       4    2079    2088       4    2070    2079
       2    2067    2070       4    2058    2067       4    2238    2247       2
    2229    2238       2    2220    2229       2    2217    2220       4    2211
    2214       5    2211    2217       6    2208    2211       7    2202    2208
       9    2196    2202       9    2187    2208       9    2184    2187       9
    2181    2184       9    2181    2196       9    2175    2178       5    2175
    2181       7    2172    2175       6    2163    2172       4    2322    2331
       2    2313    2322       2    2304    2313       2    2301    2304       4
    2295    2298       5    2295    2301       6    2292    2295       7    2286
    2292       9    2280    2286       9    2271    2292       9    2268    2271
       9    2265    2268       9    2265    2280       9    2259    2262       5
    2259    2265       7    2256    2259       6    2247    2256       4    2427
    2436       2    2424    2427       4    2415    2424       4    2406    2415
       2    2403    2406       4    2394    2403       4    2385    2394       2
    2382    2385       4    2373    2382       4    2364    2373       2    2361
    2364       4    2352    2361       4    2343    2352       2    2340    2343
       4    2331    2340       4    2532    2541       2    2529    2532       4
    2520    2529       4    2511    2520       2    2508    2511       4    2499
    2508       4    2490    2499       2    2487    2490       4    2478    2487
       4    2469    2478       2    2466    2469       4    2457    2466       4
    2448    2457       2    2445    2448       4    2436    2445       4    2607
    2616       2    2598    2607       2    2595    2598       4    2589    2592
       5    2589    2595       6    2586    2589       7    2580    2586       9
    2574    2580       9    2565    2586       9    2562    2565       9    2559
    2562       9    2559    2574       9    2553    2556       5    2553    2559
       7    2550    2553       6    2541    2550       4
%FLAG ANGLES_INC_HYDROGEN                                                       
%FORMAT(10I8)                                                                   
      81      75      84       1      78      75      81       2      78      75
      84       1      75      84      87       3      75      84      90       3
      72      66      75       1      69      66      72       2      69      66
      75       1      66      75      78       1      66      75      81       1
      63      57      66       3      60      57      63       6      60      57
      66       3      57      66      69       1      57      66      72       1
      54      57      60       7      54      57      63       7      42      39
      45      12      36      33      39      12      33      39      42      12
      27      24      45      12      24      21      30      12      21      24
      27      12      18      21      30      12      18      33      36      12
       6       0       9       7       3       0       6       6       3       0
       9       7     186     180     189       3     183     180     186       6
     183     180     189       3     180     189     192       3     180     189
     195       3     177     180     183       7     177     180     186       7
     174     168     177       7     171     168     174       6     171     168
     177       7     165     159     168       3     162     159     165       6
     162     159     168       3     159     168     171       3     159     168
     174       3     156     159     162       7     156     159     165       7
     153     147     156       7     150     147     153       6     150     147
     156       7     144     138     147       3     141     138     144       6
     141     138     147       3     138     147     150       3     138     147
     153       3     135     138     141       7     135     138     144       7
     132     126     135       7     129     126     132       6     129     126
     135       7     123     117     126       3     120     117     123       6
     120     117     126       3     117     126     129       3     117     126
     132       3     114     117     120       7     114     117     123       7
     111     105     114       7     108     105     111       6     108     105
     114       7     102      96     105       3      99      96     102       6
      99      96     105       3      96     105     108       3      96     105
     111       3      93      96      99       7      93      96     102       7
      90      84      93       7      87      84      90       6      87      84
      93       7     270     264     273       1     267     264     270       2
     267     264     273       1     264     273     276       3     264     273
     279       3     261     255     264       1     258     255     261       2
     258     255     264       1     255     264     267       1     255     264
     270       1     252     246     255       3     249     246     252       6
     249     246     255       3     246     255     258       1     246     255
     261       1     243     246     249       7     243     246     252       7
     231     228     234      12     225     222     228      12     222     228
     231      12     216     213     234      12     213     210     219      12
     210     213     216      12     207     210     219      12     207     222
     225      12     195     189     198       7     192     189     195       6
     192     189     198       7     354     348     357       1     351     348
     354       2     351     348     357       1     348     357     360       3
     348     357     363       3     345     339     348       1     342     339
     345       2     342     339     348       1     339     348     351       1
     339     348     354       1     336     330     339       3     333     330
     336       6     333     330     339       3     330     339     342       1
     330     339     345       1     327     330     333       7     327     330
     336       7     315     312     318      12     309     306     312      12
     306     312     315      12     300     297     318      12     297     294
     303      12     294     297     300      12     291     294     303      12
     291     306     309      12     279     273     282       7     276     273
     279       6     276     273     282       7     438     432     441       1
     435     432     438       2     435     432     441       1     432     441
     444       3     432     441     447       3     429     423     432       1
     426     423     429       2     426     423     432       1     423     432
     435       1     423     432     438       1     420     414     423       3
     417     414     420       6     417     414     423       3     414     423
     426       1     414     423     429       1     411     414     417       7
     411     414     420       7     399     396     402      12     393     390
     396      12     390     396     399      12     384     381     402      12
     381     378     387      12     378     381     384      12     375     378
     387      12     375     390     393      12     363     357     366       7
     360     357     363       6     360     357     366       7     543     537
     546       3     540     537     543       6     540     537     546       3
     537     546     549       3     537     546     552       3     534     537
     540       7     534     537     543       7     531     525     534       7
     528     525     531       6     528     525     534       7     522     516
     525       3     519     516     522       6     519     516     525       3
     516     525     528       3     516     525     531       3     513     516
     519       7     513     516     522       7     510     504     513       7
     507     504     510       6     507     504     513       7     501     495
     504       3     498     495     501       6     498     495     504       3
     495     504     507       3     495     504     510       3     492     495
     498       7     492     495     501       7     489     483     492       7
     486     483     489       6     486     483     492       7     480     474
     483       3     477     474     480       6     477     474     483       3
     474     483     486       3     474     483     489       3     471     474
     477       7     471     474     480       7     468     462     471       7
     465     462     468       6     465     462     471       7     459     453
     462       3     456     453     459       6     456     453     462       3
     453     462     465       3     453     462     468       3     450     453
     456       7     450     453     459       7     447     441     450       7
     444     441     447       6     444     441     450       7     627     621
     630       1     624     621     627       2     624     621     630       1
     621     630     633       3     621     630     636       3     618     612
     621       1     615     612     618       2     615     612     621       1
     612     621     624       1     612     621     627       1     609     603
     612       3     606     603     609       6     606     603     612       3
     603     612     615       1     603     612     618       1     600     603
     606       7     600     603     609       7     588     585     591      12
     582     579     585      12     579     585     588      12     573     570
     591      12     570     567     576      12     567     570     573      12
     564     567     576      12     564     579     582      12     552     546
     555       7     549     546     552       6     549     546     555       7
     711     705     714       1     708     705     711       2     708     705
     714       1     705     714     717       3     705     714     720       3
     702     696     705       1     699     696     702       2     699     696
     705       1     696     705     708       1     696     705     711       1
     693     687     696       3     690     687     693       6     690     687
     696       3     687     696     699       1     687     696     702       1
     684     687     690       7     684     687     693       7     672     669
     675      12     666     663     669      12     663     669     672      12
     657     654     675      12     654     651     660      12     651     654
     657      12     648     651     660      12     648     663     666      12
     636     630     639       7     633     630     636       6     633     630
     639       7     795     789     798       1     792     789     795       2
     792     789     798       1     789     798     801       3     789     798
     804       3     786     780     789       1     783     780     786       2
     783     780     789       1     780     789     792       1     780     789
     795       1     777     771     780       3     774     771     777       6
     774     771     780       3     771     780     783       1     771     780
     786       1     768     771     774       7     768     771     777       7
     756     753     759      12     750     747     753      12     747     753
     756      12     741     738     759      12     738     735     744      12
     735     738     741      12     732     735     744      12     732     747
     750      12     720     714     723       7     717     714     720       6
     717     714     723       7     879     873     882       1     876     873
     879       2     876     873     882       1     873     882     885       3
     873     882     888       3     870     864     873       1     867     864
     870       2     867     864     873       1     864     873     876       1
     864     873     879       1     861     855     864       3     858     855
     861       6     858     855     864       3     855     864     867       1
     855     864     870       1     852     855     858       7     852     855
     861       7     840     837     843      12     834     831     837      12
     831     837     840      12     825     822     843      12     822     819
     828      12     819     822     825      12     816     819     828      12
     816     831     834      12     804     798     807       7     801     798
     804       6     801     798     807       7     963     957     966       1
     960     957     963       2     960     957     966       1     957     966
     969       3     957     966     972       3     954     948     957       1
     951     948     954       2     951     948     957       1     948     957
     960       1     948     957     963       1     945     939     948       3
     942     939     945       6     942     939     948       3     939     948
     951       1     939     948     954       1     936     939     942       7
     936     939     945       7     924     921     927      12     918     915
     921      12     915     921     924      12     909     906     927      12
     906     903     912      12     903     906     909      12     900     903
     912      12     900     915     918      12     888     882     891       7
     885     882     888       6     885     882     891       7    1047    1041
    1050       1    1044    1041    1047       2    1044    1041    1050       1
    1041    1050    1053       3    1041    1050    1056       3    1038    1032
    1041       1    1035    1032    1038       2    1035    1032    1041       1
    1032    1041    1044       1    1032    1041    1047       1    1029    1023
    1032       3    1026    1023    1029       6    1026    1023    1032       3
    1023    1032    1035       1    1023    1032    1038       1    1020    1023
    1026       7    1020    1023    1029       7    1008    1005    1011      12
    1002     999    1005      12     999    1005    1008      12     993     990
    1011      12     990     987     996      12     987     990     993      12
     984     987     996      12     984     999    1002      12     972     966
     975       7     969     966     972       6     969     966     975       7
    1131    1125    1134       1    1128    1125    1131       2    1128    1125
    1134       1    1125    1134    1137       3    1125    1134    1140       3
    1122    1116    1125       1    1119    1116    1122       2    1119    1116
    1125       1    1116    1125    1128       1    1116    1125    1131       1
    1113    1107    1116       3    1110    1107    1113       6    1110    1107
    1116       3    1107    1116    1119       1    1107    1116    1122       1
    1104    1107    1110       7    1104    1107    1113       7    1092    1089
    1095      12    1086    1083    1089      12    1083    1089    1092      12
    1077    1074    1095      12    1074    1071    1080      12    1071    1074
    1077      12    1068    1071    1080      12    1068    1083    1086      12
    1056    1050    1059       7    1053    1050    1056       6    1053    1050
    1059       7    1215    1209    1218       1    1212    1209    1215       2
    1212    1209    1218       1    1209    1218    1221       3    1209    1218
    1224       3    1206    1200    1209       1    1203    1200    1206       2
    1203    1200    1209       1    1200    1209    1212       1    1200    1209
    1215       1    1197    1191    1200       3    1194    1191    1197       6
    1194    1191    1200       3    1191    1200    1203       1    1191    1200
    1206       1    1188    1191    1194       7    1188    1191    1197       7
    1176    1173    1179      12    1170    1167    1173      12    1167    1173
    1176      12    1161    1158    1179      12    1158    1155    1164      12
    1155    1158    1161      12    1152    1155    1164      12    1152    1167
    1170      12    1140    1134    1143       7    1137    1134    1140       6
    1137    1134    1143       7    1299    1293    1302       1    1296    1293
    1299       2    1296    1293    1302       1    1293    1302    1305       3
    1293    1302    1308       3    1290    1284    1293       1    1287    1284
    1290       2    1287    1284    1293       1    1284    1293    1296       1
    1284    1293    1299       1    1281    1275    1284       3    1278    1275
    1281       6    1278    1275    1284       3    1275    1284    1287       1
    1275    1284    1290       1    1272    1275    1278       7    1272    1275
    1281       7    1260    1257    1263      12    1254    1251    1257      12
    1251    1257    1260      12    1245    1242    1263      12    1242    1239
    1248      12    1239    1242    1245      12    1236    1239    1248      12
    1236    1251    1254      12    1224    1218    1227       7    1221    1218
    1224       6    1221    1218    1227       7    1383    1377    1386       1
    1380    1377    1383       2    1380    1377    1386       1    1377    1386
    1389       3    1377    1386    1392       3    1374    1368    1377       1
    1371    1368    1374       2    1371    1368    1377       1    1368    1377
    1380       1    1368    1377    1383       1    1365    1359    1368       3
    1362    1359    1365       6    1362    1359    1368       3    1359    1368
    1371       1    1359    1368    1374       1    1356    1359    1362       7
    1356    1359    1365       7    1344    1341    1347      12    1338    1335
    1341      12    1335    1341    1344      12    1329    1326    1347      12
    1326    1323    1332      12    1323    1326    1329      12    1320    1323
    1332      12    1320    1335    1338      12    1308    1302    1311       7
    1305    1302    1308       6    1305    1302    1311       7    1467    1461
    1470       1    1464    1461    1467       2    1464    1461    1470       1
    1461    1470    1473       3    1461    1470    1476       3    1458    1452
    1461       1    1455    1452    1458       2    1455    1452    1461       1
    1452    1461    1464       1    1452    1461    1467       1    1449    1443
    1452       3    1446    1443    1449       6    1446    1443    1452       3
    1443    1452    1455       1    1443    1452    1458       1    1440    1443
    1446       7    1440    1443    1449       7    1428    1425    1431      12
    1422    1419    1425      12    1419    1425    1428      12    1413    1410
    1431      12    1410    1407    1416      12    1407    1410    1413      12
    1404    1407    1416      12    1404    1419    1422      12    1392    1386
    1395       7    1389    1386    1392       6    1389    1386    1395       7
    1551    1545    1554       1    1548    1545    1551       2    1548    1545
    1554       1    1545    1554    1557       3    1545    1554    1560       3
    1542    1536    1545       1    1539    1536    1542       2    1539    1536
    1545       1    1536    1545    1548       1    1536    1545    1551       1
    1533    1527    1536       3    1530    1527    1533       6    1530    1527
    1536       3    1527    1536    1539       1    1527    1536    1542       1
    1524    1527    1530       7    1524    1527    1533       7    1512    1509
    1515      12    1506    1503    1509      12    1503    1509    1512      12
    1497    1494    1515      12    1494    1491    1500      12    1491    1494
    1497      12    1488    1491    1500      12    1488    1503    1506      12
    1476    1470    1479       7    1473    1470    1476       6    1473    1470
    1479       7    1635    1629    1638       1    1632    1629    1635       2
    1632    1629    1638       1    1629    1638    1641       3    1629    1638
    1644       3    1626    1620    1629       1    1623    1620    1626       2
    1623    1620    1629       1    1620    1629    1632       1    1620    1629
    1635       1    1617    1611    1620       3    1614    1611    1617       6
    1614    1611    1620       3    1611    1620    1623       1    1611    1620
    1626       1    1608    1611    1614       7    1608    1611    1617       7
    1596    1593    1599      12    1590    1587    1593      12    1587    1593
    1596      12    1581    1578    1599      12    1578    1575    1584      12
    1575    1578    1581      12    1572    1575    1584      12    1572    1587
    1590      12    1560    1554    1563       7    1557    1554    1560       6
    1557    1554    1563       7    1719    1713    1722       1    1716    1713
    1719       2    1716    1713    1722       1    1713    1722    1725       3
    1713    1722    1728       3    1710    1704    1713       1    1707    1704
    1710       2    1707    1704    1713       1    1704    1713    1716       1
    1704    1713    1719       1    1701    1695    1704       3    1698    1695
    1701       6    1698    1695    1704       3    1695    1704    1707       1
    1695    1704    1710       1    1692    1695    1698       7    1692    1695
    1701       7    1680    1677    1683      12    1674    1671    1677      12
    1671    1677    1680      12    1665    1662    1683      12    1662    1659
    1668      12    1659    1662    1665      12    1656    1659    1668      12
    1656    1671    1674      12    1644    1638    1647       7    1641    1638
    1644       6    1641    1638    1647       7    1803    1797    1806       1
    1800    1797    1803       2    1800    1797    1806       1    1797    1806
    1809       3    1797    1806    1812       3    1794    1788    1797       1
    1791    1788    1794       2    1791    1788    1797       1    1788    1797
    1800       1    1788    1797    1803       1    1785    1779    1788       3
    1782    1779    1785       6    1782    1779    1788       3    1779    1788
    1791       1    1779    1788    1794       1    1776    1779    1782       7
    1776    1779    1785       7    1764    1761    1767      12    1758    1755
    1761      12    1755    1761    1764      12    1749    1746    1767      12
    1746    1743    1752      12    1743    1746    1749      12    1740    1743
    1752      12    1740    1755    1758      12    1728    1722    1731       7
    1725    1722    1728       6    1725    1722    1731       7    1887    1881
    1890       1    1884    1881    1887       2    1884    1881    1890       1
    1881    1890    1893       3    1881    1890    1896       3    1878    1872
    1881       1    1875    1872    1878       2    1875    1872    1881       1
    1872    1881    1884       1    1872    1881    1887       1    1869    1863
    1872       3    1866    1863    1869       6    1866    1863    1872       3
    1863    1872    1875       1    1863    1872    1878       1    1860    1863
    1866       7    1860    1863    1869       7    1848    1845    1851      12
    1842    1839    1845      12    1839    1845    1848      12    1833    1830
    1851      12    1830    1827    1836      12    1827    1830    1833      12
    1824    1827    1836      12    1824    1839    1842      12    1812    1806
    1815       7    1809    1806    1812       6    1809    1806    1815       7
    1971    1965    1974       1    1968    1965    1971       2    1968    1965
    1974       1    1965    1974    1977       3    1965    1974    1980       3
    1962    1956    1965       1    1959    1956    1962       2    1959    1956
    1965       1    1956    1965    1968       1    1956    1965    1971       1
    1953    1947    1956       3    1950    1947    1953       6    1950    1947
    1956       3    1947    1956    1959       1    1947    1956    1962       1
    1944    1947    1950       7    1944    1947    1953       7    1932    1929
    1935      12    1926    1923    1929      12    1923    1929    1932      12
    1917    1914    1935      12    1914    1911    1920      12    1911    1914
    1917      12    1908    1911    1920      12    1908    1923    1926      12
    1896    1890    1899       7    1893    1890    1896       6    1893    1890
    1899       7    2055    2049    2058       1    2052    2049    2055       2
    2052    2049    2058       1    2049    2058    2061       3    2049    2058
    2064       3    2046    2040    2049       1    2043    2040    2046       2
    2043    2040    2049       1    2040    2049    2052       1    2040    2049
    2055       1    2037    2031    2040       3    2034    2031    2037       6
    2034    2031    2040       3    2031    2040    2043       1    2031    2040
    2046       1    2028    2031    2034       7    2028    2031    2037       7
    2016    2013    2019      12    2010    2007    2013      12    2007    2013
    2016      12    2001    1998    2019      12    1998    1995    2004      12
    1995    1998    2001      12    1992    1995    2004      12    1992    2007
    2010      12    1980    1974    1983       7    1977    1974    1980       6
    1977    1974    1983       7    2160    2154    2163       3    2157    2154
    2160       6    2157    2154    2163       3    2154    2163    2166       3
    2154    2163    2169       3    2151    2154    2157       7    2151    2154
    2160       7    2148    2142    2151       7    2145    2142    2148       6
    2145    2142    2151       7    2139    2133    2142       3    2136    2133
    2139       6    2136    2133    2142       3    2133    2142    2145       3
    2133    2142    2148       3    2130    2133    2136       7    2130    2133
    2139       7    2127    2121    2130       7    2124    2121    2127       6
    2124    2121    2130       7    2118    2112    2121       3    2115    2112
    2118       6    2115    2112    2121       3    2112    2121    2124       3
    2112    2121    2127       3    2109    2112    2115       7    2109    2112
    2118       7    2106    2100    2109       7    2103    2100    2106       6
    2103    2100    2109       7    2097    2091    2100       3    2094    2091
    2097       6    2094    2091    2100       3    2091    2100    2103       3
    2091    2100    2106       3    2088    2091    2094       7    2088    2091
    2097       7    2085    2079    2088       7    2082    2079    2085       6
    2082    2079    2088       7    2076    2070    2079       3    2073    2070
    2076       6    2073    2070    2079       3    2070    2079    2082       3
    2070    2079    2085       3    2067    2070    2073       7    2067    2070
    2076       7    2064    2058    2067       7    2061    2058    2064       6
    2061    2058    2067       7    2244    2238    2247       1    2241    2238
    2244       2    2241    2238    2247       1    2238    2247    2250       3
    2238    2247    2253       3    2235    2229    2238       1    2232    2229
    2235       2    2232    2229    2238       1    2229    2238    2241       1
    2229    2238    2244       1    2226    2220    2229       3    2223    2220
    2226       6    2223    2220    2229       3    2220    2229    2232       1
    2220    2229    2235       1    2217    2220    2223       7    2217    2220
    2226       7    2205    2202    2208      12    2199    2196    2202      12
    2196    2202    2205      12    2190    2187    2208      12    2187    2184
    2193      12    2184    2187    2190      12    2181    2184    2193      12
    2181    2196    2199      12    2169    2163    2172       7    2166    2163
    2169       6    2166    2163    2172       7    2328    2322    2331       1
    2325    2322    2328       2    2325    2322    2331       1    2322    2331
    2334       3    2322    2331    2337       3    2319    2313    2322       1
    2316    2313    2319       2    2316    2313    2322       1    2313    2322
    2325       1    2313    2322    2328       1    2310    2304    2313       3
    2307    2304    2310       6    2307    2304    2313       3    2304    2313
    2316       1    2304    2313    2319       1    2301    2304    2307       7
    2301    2304    2310       7    2289    2286    2292      12    2283    2280
    2286      12    2280    2286    2289      12    2274    2271    2292      12
    2271    2268    2277      12    2268    2271    2274      12    2265    2268
    2277      12    2265    2280    2283      12    2253    2247    2256       7
    2250    2247    2253       6    2250    2247    2256       7    2433    2427
    2436       3    2430    2427    2433       6    2430    2427    2436       3
    2427    2436    2439       3    2427    2436    2442       3    2424    2427
    2430       7    2424    2427    2433       7    2421    2415    2424       7
    2418    2415    2421       6    2418    2415    2424       7    2412    2406
    2415       3    2409    2406    2412       6    2409    2406    2415       3
    2406    2415    2418       3    2406    2415    2421       3    2403    2406
    2409       7    2403    2406    2412       7    2400    2394    2403       7
    2397    2394    2400       6    2397    2394    2403       7    2391    2385
    2394       3    2388    2385    2391       6    2388    2385    2394       3
    2385    2394    2397       3    2385    2394    2400       3    2382    2385
    2388       7    2382    2385    2391       7    2379    2373    2382       7
    2376    2373    2379       6    2376    2373    2382       7    2370    2364
    2373       3    2367    2364    2370       6    2367    2364    2373       3
    2364    2373    2376       3    2364    2373    2379       3    2361    2364
    2367       7    2361    2364    2370       7    2358    2352    2361       7
    2355    2352    2358       6    2355    2352    2361       7    2349    2343
    2352       3    2346    2343    2349       6    2346    2343    2352       3
    2343    2352    2355       3    2343    2352    2358       3    2340    2343
    2346       7    2340    2343    2349       7    2337    2331    2340       7
    2334    2331    2337       6    2334    2331    2340       7    2538    2532
    2541       3    2535    2532    2538       6    2535    2532    2541       3
    2532    2541    2544       3    2532    2541    2547       3    2529    2532
    2535       7    2529    2532    2538       7    2526    2520    2529       7
    2523    2520    2526       6    2523    2520    2529       7    2517    2511
    2520       3    2514    2511    2517       6    2514    2511    2520       3
    2511    2520    2523       3    2511    2520    2526       3    2508    2511
    2514       7    2508    2511    2517       7    2505    2499    2508       7
    2502    2499    2505       6    2502    2499    2508       7    2496    2490
    2499       3    2493    2490    2496       6    2493    2490    2499       3
    2490    2499    2502       3    2490    2499    2505       3    2487    2490
    2493       7    2487    2490    2496       7    2484    2478    2487       7
    2481    2478    2484       6    2481    2478    2487       7    2475    2469
    2478       3    2472    2469    2475       6    2472    2469    2478       3
    2469    2478    2481       3    2469    2478    2484       3    2466    2469
    2472       7    2466    2469    2475       7    2463    2457    2466       7
    2460    2457    2463       6    2460    2457    2466       7    2454    2448
    2457       3    2451    2448    2454       6    2451    2448    2457       3
    2448    2457    2460       3    2448    2457    2463       3    2445    2448
    2451       7    2445    2448    2454       7    2442    2436    2445       7
    2439    2436    2442       6    2439    2436    2445       7    2619    2616
    2622       2    2613    2607    2616       1    2610    2607    2613       2
    2610    2607    2616       1    2607    2616    2619       1    2607    2616
    2622       1    2604    2598    2607       3    2601    2598    2604       6
    2601    2598    2607       3    2598    2607    2610       1    2598    2607
    2613       1    2595    2598    2601       7    2595    2598    2604       7
    2583    2580    2586      12    2577    2574    2580      12    2574    2580
    2583      12    2568    2565    2586      12    2565    2562    2571      12
    2562    2565    2568      12    2559    2562    2571      12    2559    2574
    2577      12    2547    2541    2550       7    2544    2541    2547       6
    2544    2541    2550       7
%FLAG ANGLES_WITHOUT_HYDROGEN                                                   
%FORMAT(10I8)                                                                   
      75      84      93       4      66      75      84       5      57      66
      75       5      54      57      66       4      51      48      54       8
      48      54      57       9      45      48      51      10      45      48
      54      11      39      45      48      13      33      39      45      14
      24      45      39      14      24      45      48      13      21      18
      33      14      21      24      45      14      18      21      24      14
      18      33      39      14      15      12      18      10      12      18
      21      13      12      18      33      13       9      12      15       8
       9      12      18      11       0       9      12       9     180     189
     198       4     177     180     189       4     168     177     180      15
     159     168     177       4     156     159     168       4     147     156
     159      15     138     147     156       4     135     138     147       4
     126     135     138      15     117     126     135       4     114     117
     126       4     105     114     117      15      96     105     114       4
      93      96     105       4      84      93      96      15     264     273
     282       4     255     264     273       5     246     255     264       5
     243     246     255       4     240     237     243       8     237     243
     246       9     234     237     240      10     234     237     243      11
     228     234     237      13     222     228     234      14     213     234
     228      14     213     234     237      13     210     207     222      14
     210     213     234      14     207     210     213      14     207     222
     228      14     204     201     207      10     201     207     210      13
     201     207     222      13     198     201     204       8     198     201
     207      11     189     198     201       9     348     357     366       4
     339     348     357       5     330     339     348       5     327     330
     339       4     324     321     327       8     321     327     330       9
     318     321     324      10     318     321     327      11     312     318
     321      13     306     312     318      14     297     318     312      14
     297     318     321      13     294     291     306      14     294     297
     318      14     291     294     297      14     291     306     312      14
     288     285     291      10     285     291     294      13     285     291
     306      13     282     285     288       8     282     285     291      11
     273     282     285       9     432     441     450       4     423     432
     441       5     414     423     432       5     411     414     423       4
     408     405     411       8     405     411     414       9     402     405
     408      10     402     405     411      11     396     402     405      13
     390     396     402      14     381     402     396      14     381     402
     405      13     378     375     390      14     378     381     402      14
     375     378     381      14     375     390     396      14     372     369
     375      10     369     375     378      13     369     375     390      13
     366     369     372       8     366     369     375      11     357     366
     369       9     537     546     555       4     534     537     546       4
     525     534     537      15     516     525     534       4     513     516
     525       4     504     513     516      15     495     504     513       4
     492     495     504       4     483     492     495      15     474     483
     492       4     471     474     483       4     462     471     474      15
     453     462     471       4     450     453     462       4     441     450
     453      15     621     630     639       4     612     621     630       5
     603     612     621       5     600     603     612       4     597     594
     600       8     594     600     603       9     591     594     597      10
     591     594     600      11     585     591     594      13     579     585
     591      14     570     591     585      14     570     591     594      13
     567     564     579      14     567     570     591      14     564     567
     570      14     564     579     585      14     561     558     564      10
     558     564     567      13     558     564     579      13     555     558
     561       8     555     558     564      11     546     555     558       9
     705     714     723       4     696     705     714       5     687     696
     705       5     684     687     696       4     681     678     684       8
     678     684     687       9     675     678     681      10     675     678
     684      11     669     675     678      13     663     669     675      14
     654     675     669      14     654     675     678      13     651     648
     663      14     651     654     675      14     648     651     654      14
     648     663     669      14     645     642     648      10     642     648
     651      13     642     648     663      13     639     642     645       8
     639     642     648      11     630     639     642       9     789     798
     807       4     780     789     798       5     771     780     789       5
     768     771     780       4     765     762     768       8     762     768
     771       9     759     762     765      10     759     762     768      11
     753     759     762      13     747     753     759      14     738     759
     753      14     738     759     762      13     735     732     747      14
     735     738     759      14     732     735     738      14     732     747
     753      14     729     726     732      10     726     732     735      13
     726     732     747      13     723     726     729       8     723     726
     732      11     714     723     726       9     873     882     891       4
     864     873     882       5     855     864     873       5     852     855
     864       4     849     846     852       8     846     852     855       9
     843     846     849      10     843     846     852      11     837     843
     846      13     831     837     843      14     822     843     837      14
     822     843     846      13     819     816     831      14     819     822
     843      14     816     819     822      14     816     831     837      14
     813     810     816      10     810     816     819      13     810     816
     831      13     807     810     813       8     807     810     816      11
     798     807     810       9     957     966     975       4     948     957
     966       5     939     948     957       5     936     939     948       4
     933     930     936       8     930     936     939       9     927     930
     933      10     927     930     936      11     921     927     930      13
     915     921     927      14     906     927     921      14     906     927
     930      13     903     900     915      14     903     906     927      14
     900     903     906      14     900     915     921      14     897     894
     900      10     894     900     903      13     894     900     915      13
     891     894     897       8     891     894     900      11     882     891
     894       9    1041    1050    1059       4    1032    1041    1050       5
    1023    1032    1041       5    1020    1023    1032       4    1017    1014
    1020       8    1014    1020    1023       9    1011    1014    1017      10
    1011    1014    1020      11    1005    1011    1014      13     999    1005
    1011      14     990    1011    1005      14     990    1011    1014      13
     987     984     999      14     987     990    1011      14     984     987
     990      14     984     999    1005      14     981     978     984      10
     978     984     987      13     978     984     999      13     975     978
     981       8     975     978     984      11     966     975     978       9
    1125    1134    1143       4    1116    1125    1134       5    1107    1116
    1125       5    1104    1107    1116       4    1101    1098    1104       8
    1098    1104    1107       9    1095    1098    1101      10    1095    1098
    1104      11    1089    1095    1098      13    1083    1089    1095      14
    1074    1095    1089      14    1074    1095    1098      13    1071    1068
    1083      14    1071    1074    1095      14    1068    1071    1074      14
    1068    1083    1089      14    1065    1062    1068      10    1062    1068
    1071      13    1062    1068    1083      13    1059    1062    1065       8
    1059    1062    1068      11    1050    1059    1062       9    1209    1218
    1227       4    1200    1209    1218       5    1191    1200    1209       5
    1188    1191    1200       4    1185    1182    1188       8    1182    1188
    1191       9    1179    1182    1185      10    1179    1182    1188      11
    1173    1179    1182      13    1167    1173    1179      14    1158    1179
    1173      14    1158    1179    1182      13    1155    1152    1167      14
    1155    1158    1179      14    1152    1155    1158      14    1152    1167
    1173      14    1149    1146    1152      10    1146    1152    1155      13
    1146    1152    1167      13    1143    1146    1149       8    1143    1146
    1152      11    1134    1143    1146       9    1293    1302    1311       4
    1284    1293    1302       5    1275    1284    1293       5    1272    1275
    1284       4    1269    1266    1272       8    1266    1272    1275       9
    1263    1266    1269      10    1263    1266    1272      11    1257    1263
    1266      13    1251    1257    1263      14    1242    1263    1257      14
    1242    1263    1266      13    1239    1236    1251      14    1239    1242
    1263      14    1236    1239    1242      14    1236    1251    1257      14
    1233    1230    1236      10    1230    1236    1239      13    1230    1236
    1251      13    1227    1230    1233       8    1227    1230    1236      11
    1218    1227    1230       9    1377    1386    1395       4    1368    1377
    1386       5    1359    1368    1377       5    1356    1359    1368       4
    1353    1350    1356       8    1350    1356    1359       9    1347    1350
    1353      10    1347    1350    1356      11    1341    1347    1350      13
    1335    1341    1347      14    1326    1347    1341      14    1326    1347
    1350      13    1323    1320    1335      14    1323    1326    1347      14
    1320    1323    1326      14    1320    1335    1341      14    1317    1314
    1320      10    1314    1320    1323      13    1314    1320    1335      13
    1311    1314    1317       8    1311    1314    1320      11    1302    1311
    1314       9    1461    1470    1479       4    1452    1461    1470       5
    1443    1452    1461       5    1440    1443    1452       4    1437    1434
    1440       8    1434    1440    1443       9    1431    1434    1437      10
    1431    1434    1440      11    1425    1431    1434      13    1419    1425
    1431      14    1410    1431    1425      14    1410    1431    1434      13
    1407    1404    1419      14    1407    1410    1431      14    1404    1407
    1410      14    1404    1419    1425      14    1401    1398    1404      10
    1398    1404    1407      13    1398    1404    1419      13    1395    1398
    1401       8    1395    1398    1404      11    1386    1395    1398       9
    1545    1554    1563       4    1536    1545    1554       5    1527    1536
    1545       5    1524    1527    1536       4    1521    1518    1524       8
    1518    1524    1527       9    1515    1518    1521      10    1515    1518
    1524      11    1509    1515    1518      13    1503    1509    1515      14
    1494    1515    1509      14    1494    1515    1518      13    1491    1488
    1503      14    1491    1494    1515      14    1488    1491    1494      14
    1488    1503    1509      14    1485    1482    1488      10    1482    1488
    1491      13    1482    1488    1503      13    1479    1482    1485       8
    1479    1482    1488      11    1470    1479    1482       9    1629    1638
    1647       4    1620    1629    1638       5    1611    1620    1629       5
    1608    1611    1620       4    1605    1602    1608       8    1602    1608
    1611       9    1599    1602    1605      10    1599    1602    1608      11
    1593    1599    1602      13    1587    1593    1599      14    1578    1599
    1593      14    1578    1599    1602      13    1575    1572    1587      14
    1575    1578    1599      14    1572    1575    1578      14    1572    1587
    1593      14    1569    1566    1572      10    1566    1572    1575      13
    1566    1572    1587      13    1563    1566    1569       8    1563    1566
    1572      11    1554    1563    1566       9    1713    1722    1731       4
    1704    1713    1722       5    1695    1704    1713       5    1692    1695
    1704       4    1689    1686    1692       8    1686    1692    1695       9
    1683    1686    1689      10    1683    1686    1692      11    1677    1683
    1686      13    1671    1677    1683      14    1662    1683    1677      14
    1662    1683    1686      13    1659    1656    1671      14    1659    1662
    1683      14    1656    1659    1662      14    1656    1671    1677      14
    1653    1650    1656      10    1650    1656    1659      13    1650    1656
    1671      13    1647    1650    1653       8    1647    1650    1656      11
    1638    1647    1650       9    1797    1806    1815       4    1788    1797
    1806       5    1779    1788    1797       5    1776    1779    1788       4
    1773    1770    1776       8    1770    1776    1779       9    1767    1770
    1773      10    1767    1770    1776      11    1761    1767    1770      13
    1755    1761    1767      14    1746    1767    1761      14    1746    1767
    1770      13    1743    1740    1755      14    1743    1746    1767      14
    1740    1743    1746      14    1740    1755    1761      14    1737    1734
    1740      10    1734    1740    1743      13    1734    1740    1755      13
    1731    1734    1737       8    1731    1734    1740      11    1722    1731
    1734       9    1881    1890    1899       4    1872    1881    1890       5
    1863    1872    1881       5    1860    1863    1872       4    1857    1854
    1860       8    1854    1860    1863       9    1851    1854    1857      10
    1851    1854    1860      11    1845    1851    1854      13    1839    1845
    1851      14    1830    1851    1845      14    1830    1851    1854      13
    1827    1824    1839      14    1827    1830    1851      14    1824    1827
    1830      14    1824    1839    1845      14    1821    1818    1824      10
    1818    1824    1827      13    1818    1824    1839      13    1815    1818
    1821       8    1815    1818    1824      11    1806    1815    1818       9
    1965    1974    1983       4    1956    1965    1974       5    1947    1956
    1965       5    1944    1947    1956       4    1941    1938    1944       8
    1938    1944    1947       9    1935    1938    1941      10    1935    1938
    1944      11    1929    1935    1938      13    1923    1929    1935      14
    1914    1935    1929      14    1914    1935    1938      13    1911    1908
    1923      14    1911    1914    1935      14    1908    1911    1914      14
    1908    1923    1929      14    1905    1902    1908      10    1902    1908
    1911      13    1902    1908    1923      13    1899    1902    1905       8
    1899    1902    1908      11    1890    1899    1902       9    2049    2058
    2067       4    2040    2049    2058       5    2031    2040    2049       5
    2028    2031    2040       4    2025    2022    2028       8    2022    2028
    2031       9    2019    2022    2025      10    2019    2022    2028      11
    2013    2019    2022      13    2007    2013    2019      14    1998    2019
    2013      14    1998    2019    2022      13    1995    1992    2007      14
    1995    1998    2019      14    1992    1995    1998      14    1992    2007
    2013      14    1989    1986    1992      10    1986    1992    1995      13
    1986    1992    2007      13    1983    1986    1989       8    1983    1986
    1992      11    1974    1983    1986       9    2154    2163    2172       4
    2151    2154    2163       4    2142    2151    2154      15    2133    2142
    2151       4    2130    2133    2142       4    2121    2130    2133      15
    2112    2121    2130       4    2109    2112    2121       4    2100    2109
    2112      15    2091    2100    2109       4    2088    2091    2100       4
    2079    2088    2091      15    2070    2079    2088       4    2067    2070
    2079       4    2058    2067    2070      15    2238    2247    2256       4
    2229    2238    2247       5    2220    2229    2238       5    2217    2220
    2229       4    2214    2211    2217       8    2211    2217    2220       9
    2208    2211    2214      10    2208    2211    2217      11    2202    2208
    2211      13    2196    2202    2208      14    2187    2208    2202      14
    2187    2208    2211      13    2184    2181    2196      14    2184    2187
    2208      14    2181    2184    2187      14    2181    2196    2202      14
    2178    2175    2181      10    2175    2181    2184      13    2175    2181
    2196      13    2172    2175    2178       8    2172    2175    2181      11
    2163    2172    2175       9    2322    2331    2340       4    2313    2322
    2331       5    2304    2313    2322       5    2301    2304    2313       4
    2298    2295    2301       8    2295    2301    2304       9    2292    2295
    2298      10    2292    2295    2301      11    2286    2292    2295      13
    2280    2286    2292      14    2271    2292    2286      14    2271    2292
    2295      13    2268    2265    2280      14    2268    2271    2292      14
    2265    2268    2271      14    2265    2280    2286      14    2262    2259
    2265      10    2259    2265    2268      13    2259    2265    2280      13
    2256    2259    2262       8    2256    2259    2265      11    2247    2256
    2259       9    2427    2436    2445       4    2424    2427    2436       4
    2415    2424    2427      15    2406    2415    2424       4    2403    2406
    2415       4    2394    2403    2406      15    2385    2394    2403       4
    2382    2385    2394       4    2373    2382    2385      15    2364    2373
    2382       4    2361    2364    2373       4    2352    2361    2364      15
    2343    2352    2361       4    2340    2343    2352       4    2331    2340
    2343      15    2532    2541    2550       4    2529    2532    2541       4
    2520    2529    2532      15    2511    2520    2529       4    2508    2511
    2520       4    2499    2508    2511      15    2490    2499    2508       4
    2487    2490    2499       4    2478    2487    2490      15    2469    2478
    2487       4    2466    2469    2478       4    2457    2466    2469      15
    2448    2457    2466       4    2445    2448    2457       4    2436    2445
    2448      15    2598    2607    2616       5    2595    2598    2607       4
    2592    2589    2595       8    2589    2595    2598       9    2586    2589
    2592      10    2586    2589    2595      11    2580    2586    2589      13
    2574    2580    2586      14    2565    2586    2580      14    2565    2586
    2589      13    2562    2559    2574      14    2562    2565    2586      14
    2559    2562    2565      14    2559    2574    2580      14    2556    2553
    2559      10    2553    2559    2562      13    2553    2559    2574      13
    2550    2553    2556       8    2550    2553    2559      11    2541    2550
    2553       9
%FLAG DIHEDRALS_INC_HYDROGEN                                                    
%FORMAT(10I8)                                                                   
      81      75      84      87       1      81      75      84      90       1
      81      75      84      93       2      81      75     -84      93       3
      78      75      84      87       1      78      75      84      90       1
      78      75      84      93       2      78      75     -84      93       3
      72      66      75      78       7      72      66      75      81       7
      72      66      75      84       8      69      66      75      78       7
      69      66      75      81       7      69      66      75      84       8
      66      75      84      87       1      66      75      84      90       1
      63      57      66      69       1      63      57      66      72       1
      63      57      66      75       1      60      57      66      69       1
      60      57      66      72       1      60      57      66      75       1
      57      66      75      78       8      57      66      75      81       8
      54      57      66      69       2      54      57     -66      69       3
      54      57      66      72       2      54      57     -66      72       3
      48      54      57      60      12      48      54      57      63      12
      42      39      45      48      18      36      33      39      42      18
      36      33      39      45      18      30      21      18      33      18
      30      21      24      45      18      27      24      21      30      18
      27      24      45      39      18      27      24      45      48      18
      24      45      39      42      18      21      18      33      36      18
      18      21      24      27      18      18      33      39      42      18
      12      18      21      30      18      12      18      33      36      18
       6       0       9      12      12       3       0       9      12      12
     186     180     189     192       1     186     180     189     195       1
     186     180     189     198       2     186     180    -189     198       3
     183     180     189     192       1     183     180     189     195       1
     183     180     189     198       2     183     180    -189     198       3
     177     180     189     192       2     177     180    -189     192       3
     177     180     189     195       2     177     180    -189     195       3
     174     168     177     180      24     171     168     177     180      24
     168     177     180     183      24     168     177     180     186      24
     165     159     168     171       1     165     159     168     174       1
     165     159     168     177       2     165     159    -168     177       3
     162     159     168     171       1     162     159     168     174       1
     162     159     168     177       2     162     159    -168     177       3
     156     159     168     171       2     156     159    -168     171       3
     156     159     168     174       2     156     159    -168     174       3
     153     147     156     159      24     150     147     156     159      24
     147     156     159     162      24     147     156     159     165      24
     144     138     147     150       1     144     138     147     153       1
     144     138     147     156       2     144     138    -147     156       3
     141     138     147     150       1     141     138     147     153       1
     141     138     147     156       2     141     138    -147     156       3
     135     138     147     150       2     135     138    -147     150       3
     135     138     147     153       2     135     138    -147     153       3
     132     126     135     138      24     129     126     135     138      24
     126     135     138     141      24     126     135     138     144      24
     123     117     126     129       1     123     117     126     132       1
     123     117     126     135       2     123     117    -126     135       3
     120     117     126     129       1     120     117     126     132       1
     120     117     126     135       2     120     117    -126     135       3
     114     117     126     129       2     114     117    -126     129       3
     114     117     126     132       2     114     117    -126     132       3
     111     105     114     117      24     108     105     114     117      24
     105     114     117     120      24     105     114     117     123      24
     102      96     105     108       1     102      96     105     111       1
     102      96     105     114       2     102      96    -105     114       3
      99      96     105     108       1      99      96     105     111       1
      99      96     105     114       2      99      96    -105     114       3
      93      96     105     108       2      93      96    -105     108       3
      93      96     105     111       2      93      96    -105     111       3
      90      84      93      96      24      87      84      93      96      24
      84      93      96      99      24      84      93      96     102      24
     270     264     273     276       1     270     264     273     279       1
     270     264     273     282       2     270     264    -273     282       3
     267     264     273     276       1     267     264     273     279       1
     267     264     273     282       2     267     264    -273     282       3
     261     255     264     267       7     261     255     264     270       7
     261     255     264     273       8     258     255     264     267       7
     258     255     264     270       7     258     255     264     273       8
     255     264     273     276       1     255     264     273     279       1
     252     246     255     258       1     252     246     255     261       1
     252     246     255     264       1     249     246     255     258       1
     249     246     255     261       1     249     246     255     264       1
     246     255     264     267       8     246     255     264     270       8
     243     246     255     258       2     243     246    -255     258       3
     243     246     255     261       2     243     246    -255     261       3
     237     243     246     249      12     237     243     246     252      12
     231     228     234     237      18     225     222     228     231      18
     225     222     228     234      18     219     210     207     222      18
     219     210     213     234      18     216     213     210     219      18
     216     213     234     228      18     216     213     234     237      18
     213     234     228     231      18     210     207     222     225      18
     207     210     213     216      18     207     222     228     231      18
     201     207     210     219      18     201     207     222     225      18
     195     189     198     201      12     192     189     198     201      12
     354     348     357     360       1     354     348     357     363       1
     354     348     357     366       2     354     348    -357     366       3
     351     348     357     360       1     351     348     357     363       1
     351     348     357     366       2     351     348    -357     366       3
     345     339     348     351       7     345     339     348     354       7
     345     339     348     357       8     342     339     348     351       7
     342     339     348     354       7     342     339     348     357       8
     339     348     357     360       1     339     348     357     363       1
     336     330     339     342       1     336     330     339     345       1
     336     330     339     348       1     333     330     339     342       1
     333     330     339     345       1     333     330     339     348       1
     330     339     348     351       8     330     339     348     354       8
     327     330     339     342       2     327     330    -339     342       3
     327     330     339     345       2     327     330    -339     345       3
     321     327     330     333      12     321     327     330     336      12
     315     312     318     321      18     309     306     312     315      18
     309     306     312     318      18     303     294     291     306      18
     303     294     297     318      18     300     297     294     303      18
     300     297     318     312      18     300     297     318     321      18
     297     318     312     315      18     294     291     306     309      18
     291     294     297     300      18     291     306     312     315      18
     285     291     294     303      18     285     291     306     309      18
     279     273     282     285      12     276     273     282     285      12
     438     432     441     444       1     438     432     441     447       1
     438     432     441     450       2     438     432    -441     450       3
     435     432     441     444       1     435     432     441     447       1
     435     432     441     450       2     435     432    -441     450       3
     429     423     432     435       7     429     423     432     438       7
     429     423     432     441       8     426     423     432     435       7
     426     423     432     438       7     426     423     432     441       8
     423     432     441     444       1     423     432     441     447       1
     420     414     423     426       1     420     414     423     429       1
     420     414     423     432       1     417     414     423     426       1
     417     414     423     429       1     417     414     423     432       1
     414     423     432     435       8     414     423     432     438       8
     411     414     423     426       2     411     414    -423     426       3
     411     414     423     429       2     411     414    -423     429       3
     405     411     414     417      12     405     411     414     420      12
     399     396     402     405      18     393     390     396     399      18
     393     390     396     402      18     387     378     375     390      18
     387     378     381     402      18     384     381     378     387      18
     384     381     402     396      18     384     381     402     405      18
     381     402     396     399      18     378     375     390     393      18
     375     378     381     384      18     375     390     396     399      18
     369     375     378     387      18     369     375     390     393      18
     363     357     366     369      12     360     357     366     369      12
     543     537     546     549       1     543     537     546     552       1
     543     537     546     555       2     543     537    -546     555       3
     540     537     546     549       1     540     537     546     552       1
     540     537     546     555       2     540     537    -546     555       3
     534     537     546     549       2     534     537    -546     549       3
     534     537     546     552       2     534     537    -546     552       3
     531     525     534     537      24     528     525     534     537      24
     525     534     537     540      24     525     534     537     543      24
     522     516     525     528       1     522     516     525     531       1
     522     516     525     534       2     522     516    -525     534       3
     519     516     525     528       1     519     516     525     531       1
     519     516     525     534       2     519     516    -525     534       3
     513     516     525     528       2     513     516    -525     528       3
     513     516     525     531       2     513     516    -525     531       3
     510     504     513     516      24     507     504     513     516      24
     504     513     516     519      24     504     513     516     522      24
     501     495     504     507       1     501     495     504     510       1
     501     495     504     513       2     501     495    -504     513       3
     498     495     504     507       1     498     495     504     510       1
     498     495     504     513       2     498     495    -504     513       3
     492     495     504     507       2     492     495    -504     507       3
     492     495     504     510       2     492     495    -504     510       3
     489     483     492     495      24     486     483     492     495      24
     483     492     495     498      24     483     492     495     501      24
     480     474     483     486       1     480     474     483     489       1
     480     474     483     492       2     480     474    -483     492       3
     477     474     483     486       1     477     474     483     489       1
     477     474     483     492       2     477     474    -483     492       3
     471     474     483     486       2     471     474    -483     486       3
     471     474     483     489       2     471     474    -483     489       3
     468     462     471     474      24     465     462     471     474      24
     462     471     474     477      24     462     471     474     480      24
     459     453     462     465       1     459     453     462     468       1
     459     453     462     471       2     459     453    -462     471       3
     456     453     462     465       1     456     453     462     468       1
     456     453     462     471       2     456     453    -462     471       3
     450     453     462     465       2     450     453    -462     465       3
     450     453     462     468       2     450     453    -462     468       3
     447     441     450     453      24     444     441     450     453      24
     441     450     453     456      24     441     450     453     459      24
     627     621     630     633       1     627     621     630     636       1
     627     621     630     639       2     627     621    -630     639       3
     624     621     630     633       1     624     621     630     636       1
     624     621     630     639       2     624     621    -630     639       3
     618     612     621     624       7     618     612     621     627       7
     618     612     621     630       8     615     612     621     624       7
     615     612     621     627       7     615     612     621     630       8
     612     621     630     633       1     612     621     630     636       1
     609     603     612     615       1     609     603     612     618       1
     609     603     612     621       1     606     603     612     615       1
     606     603     612     618       1     606     603     612     621       1
     603     612     621     624       8     603     612     621     627       8
     600     603     612     615       2     600     603    -612     615       3
     600     603     612     618       2     600     603    -612     618       3
     594     600     603     606      12     594     600     603     609      12
     588     585     591     594      18     582     579     585     588      18
     582     579     585     591      18     576     567     564     579      18
     576     567     570     591      18     573     570     567     576      18
     573     570     591     585      18     573     570     591     594      18
     570     591     585     588      18     567     564     579     582      18
     564     567     570     573      18     564     579     585     588      18
     558     564     567     576      18     558     564     579     582      18
     552     546     555     558      12     549     546     555     558      12
     711     705     714     717       1     711     705     714     720       1
     711     705     714     723       2     711     705    -714     723       3
     708     705     714     717       1     708     705     714     720       1
     708     705     714     723       2     708     705    -714     723       3
     702     696     705     708       7     702     696     705     711       7
     702     696     705     714       8     699     696     705     708       7
     699     696     705     711       7     699     696     705     714       8
     696     705     714     717       1     696     705     714     720       1
     693     687     696     699       1     693     687     696     702       1
     693     687     696     705       1     690     687     696     699       1
     690     687     696     702       1     690     687     696     705       1
     687     696     705     708       8     687     696     705     711       8
     684     687     696     699       2     684     687    -696     699       3
     684     687     696     702       2     684     687    -696     702       3
     678     684     687     690      12     678     684     687     693      12
     672     669     675     678      18     666     663     669     672      18
     666     663     669     675      18     660     651     648     663      18
     660     651     654     675      18     657     654     651     660      18
     657     654     675     669      18     657     654     675     678      18
     654     675     669     672      18     651     648     663     666      18
     648     651     654     657      18     648     663     669     672      18
     642     648     651     660      18     642     648     663     666      18
     636     630     639     642      12     633     630     639     642      12
     795     789     798     801       1     795     789     798     804       1
     795     789     798     807       2     795     789    -798     807       3
     792     789     798     801       1     792     789     798     804       1
     792     789     798     807       2     792     789    -798     807       3
     786     780     789     792       7     786     780     789     795       7
     786     780     789     798       8     783     780     789     792       7
     783     780     789     795       7     783     780     789     798       8
     780     789     798     801       1     780     789     798     804       1
     777     771     780     783       1     777     771     780     786       1
     777     771     780     789       1     774     771     780     783       1
     774     771     780     786       1     774     771     780     789       1
     771     780     789     792       8     771     780     789     795       8
     768     771     780     783       2     768     771    -780     783       3
     768     771     780     786       2     768     771    -780     786       3
     762     768     771     774      12     762     768     771     777      12
     756     753     759     762      18     750     747     753     756      18
     750     747     753     759      18     744     735     732     747      18
     744     735     738     759      18     741     738     735     744      18
     741     738     759     753      18     741     738     759     762      18
     738     759     753     756      18     735     732     747     750      18
     732     735     738     741      18     732     747     753     756      18
     726     732     735     744      18     726     732     747     750      18
     720     714     723     726      12     717     714     723     726      12
     879     873     882     885       1     879     873     882     888       1
     879     873     882     891       2     879     873    -882     891       3
     876     873     882     885       1     876     873     882     888       1
     876     873     882     891       2     876     873    -882     891       3
     870     864     873     876       7     870     864     873     879       7
     870     864     873     882       8     867     864     873     876       7
     867     864     873     879       7     867     864     873     882       8
     864     873     882     885       1     864     873     882     888       1
     861     855     864     867       1     861     855     864     870       1
     861     855     864     873       1     858     855     864     867       1
     858     855     864     870       1     858     855     864     873       1
     855     864     873     876       8     855     864     873     879       8
     852     855     864     867       2     852     855    -864     867       3
     852     855     864     870       2     852     855    -864     870       3
     846     852     855     858      12     846     852     855     861      12
     840     837     843     846      18     834     831     837     840      18
     834     831     837     843      18     828     819     816     831      18
     828     819     822     843      18     825     822     819     828      18
     825     822     843     837      18     825     822     843     846      18
     822     843     837     840      18     819     816     831     834      18
     816     819     822     825      18     816     831     837     840      18
     810     816     819     828      18     810     816     831     834      18
     804     798     807     810      12     801     798     807     810      12
     963     957     966     969       1     963     957     966     972       1
     963     957     966     975       2     963     957    -966     975       3
     960     957     966     969       1     960     957     966     972       1
     960     957     966     975       2     960     957    -966     975       3
     954     948     957     960       7     954     948     957     963       7
     954     948     957     966       8     951     948     957     960       7
     951     948     957     963       7     951     948     957     966       8
     948     957     966     969       1     948     957     966     972       1
     945     939     948     951       1     945     939     948     954       1
     945     939     948     957       1     942     939     948     951       1
     942     939     948     954       1     942     939     948     957       1
     939     948     957     960       8     939     948     957     963       8
     936     939     948     951       2     936     939    -948     951       3
     936     939     948     954       2     936     939    -948     954       3
     930     936     939     942      12     930     936     939     945      12
     924     921     927     930      18     918     915     921     924      18
     918     915     921     927      18     912     903     900     915      18
     912     903     906     927      18     909     906     903     912      18
     909     906     927     921      18     909     906     927     930      18
     906     927     921     924      18     903     900     915     918      18
     900     903     906     909      18     900     915     921     924      18
     894     900     903     912      18     894     900     915     918      18
     888     882     891     894      12     885     882     891     894      12
    1047    1041    1050    1053       1    1047    1041    1050    1056       1
    1047    1041    1050    1059       2    1047    1041   -1050    1059       3
    1044    1041    1050    1053       1    1044    1041    1050    1056       1
    1044    1041    1050    1059       2    1044    1041   -1050    1059       3
    1038    1032    1041    1044       7    1038    1032    1041    1047       7
    1038    1032    1041    1050       8    1035    1032    1041    1044       7
    1035    1032    1041    1047       7    1035    1032    1041    1050       8
    1032    1041    1050    1053       1    1032    1041    1050    1056       1
    1029    1023    1032    1035       1    1029    1023    1032    1038       1
    1029    1023    1032    1041       1    1026    1023    1032    1035       1
    1026    1023    1032    1038       1    1026    1023    1032    1041       1
    1023    1032    1041    1044       8    1023    1032    1041    1047       8
    1020    1023    1032    1035       2    1020    1023   -1032    1035       3
    1020    1023    1032    1038       2    1020    1023   -1032    1038       3
    1014    1020    1023    1026      12    1014    1020    1023    1029      12
    1008    1005    1011    1014      18    1002     999    1005    1008      18
    1002     999    1005    1011      18     996     987     984     999      18
     996     987     990    1011      18     993     990     987     996      18
     993     990    1011    1005      18     993     990    1011    1014      18
     990    1011    1005    1008      18     987     984     999    1002      18
     984     987     990     993      18     984     999    1005    1008      18
     978     984     987     996      18     978     984     999    1002      18
     972     966     975     978      12     969     966     975     978      12
    1131    1125    1134    1137       1    1131    1125    1134    1140       1
    1131    1125    1134    1143       2    1131    1125   -1134    1143       3
    1128    1125    1134    1137       1    1128    1125    1134    1140       1
    1128    1125    1134    1143       2    1128    1125   -1134    1143       3
    1122    1116    1125    1128       7    1122    1116    1125    1131       7
    1122    1116    1125    1134       8    1119    1116    1125    1128       7
    1119    1116    1125    1131       7    1119    1116    1125    1134       8
    1116    1125    1134    1137       1    1116    1125    1134    1140       1
    1113    1107    1116    1119       1    1113    1107    1116    1122       1
    1113    1107    1116    1125       1    1110    1107    1116    1119       1
    1110    1107    1116    1122       1    1110    1107    1116    1125       1
    1107    1116    1125    1128       8    1107    1116    1125    1131       8
    1104    1107    1116    1119       2    1104    1107   -1116    1119       3
    1104    1107    1116    1122       2    1104    1107   -1116    1122       3
    1098    1104    1107    1110      12    1098    1104    1107    1113      12
    1092    1089    1095    1098      18    1086    1083    1089    1092      18
    1086    1083    1089    1095      18    1080    1071    1068    1083      18
    1080    1071    1074    1095      18    1077    1074    1071    1080      18
    1077    1074    1095    1089      18    1077    1074    1095    1098      18
    1074    1095    1089    1092      18    1071    1068    1083    1086      18
    1068    1071    1074    1077      18    1068    1083    1089    1092      18
    1062    1068    1071    1080      18    1062    1068    1083    1086      18
    1056    1050    1059    1062      12    1053    1050    1059    1062      12
    1215    1209    1218    1221       1    1215    1209    1218    1224       1
    1215    1209    1218    1227       2    1215    1209   -1218    1227       3
    1212    1209    1218    1221       1    1212    1209    1218    1224       1
    1212    1209    1218    1227       2    1212    1209   -1218    1227       3
    1206    1200    1209    1212       7    1206    1200    1209    1215       7
    1206    1200    1209    1218       8    1203    1200    1209    1212       7
    1203    1200    1209    1215       7    1203    1200    1209    1218       8
    1200    1209    1218    1221       1    1200    1209    1218    1224       1
    1197    1191    1200    1203       1    1197    1191    1200    1206       1
    1197    1191    1200    1209       1    1194    1191    1200    1203       1
    1194    1191    1200    1206       1    1194    1191    1200    1209       1
    1191    1200    1209    1212       8    1191    1200    1209    1215       8
    1188    1191    1200    1203       2    1188    1191   -1200    1203       3
    1188    1191    1200    1206       2    1188    1191   -1200    1206       3
    1182    1188    1191    1194      12    1182    1188    1191    1197      12
    1176    1173    1179    1182      18    1170    1167    1173    1176      18
    1170    1167    1173    1179      18    1164    1155    1152    1167      18
    1164    1155    1158    1179      18    1161    1158    1155    1164      18
    1161    1158    1179    1173      18    1161    1158    1179    1182      18
    1158    1179    1173    1176      18    1155    1152    1167    1170      18
    1152    1155    1158    1161      18    1152    1167    1173    1176      18
    1146    1152    1155    1164      18    1146    1152    1167    1170      18
    1140    1134    1143    1146      12    1137    1134    1143    1146      12
    1299    1293    1302    1305       1    1299    1293    1302    1308       1
    1299    1293    1302    1311       2    1299    1293   -1302    1311       3
    1296    1293    1302    1305       1    1296    1293    1302    1308       1
    1296    1293    1302    1311       2    1296    1293   -1302    1311       3
    1290    1284    1293    1296       7    1290    1284    1293    1299       7
    1290    1284    1293    1302       8    1287    1284    1293    1296       7
    1287    1284    1293    1299       7    1287    1284    1293    1302       8
    1284    1293    1302    1305       1    1284    1293    1302    1308       1
    1281    1275    1284    1287       1    1281    1275    1284    1290       1
    1281    1275    1284    1293       1    1278    1275    1284    1287       1
    1278    1275    1284    1290       1    1278    1275    1284    1293       1
    1275    1284    1293    1296       8    1275    1284    1293    1299       8
    1272    1275    1284    1287       2    1272    1275   -1284    1287       3
    1272    1275    1284    1290       2    1272    1275   -1284    1290       3
    1266    1272    1275    1278      12    1266    1272    1275    1281      12
    1260    1257    1263    1266      18    1254    1251    1257    1260      18
    1254    1251    1257    1263      18    1248    1239    1236    1251      18
    1248    1239    1242    1263      18    1245    1242    1239    1248      18
    1245    1242    1263    1257      18    1245    1242    1263    1266      18
    1242    1263    1257    1260      18    1239    1236    1251    1254      18
    1236    1239    1242    1245      18    1236    1251    1257    1260      18
    1230    1236    1239    1248      18    1230    1236    1251    1254      18
    1224    1218    1227    1230      12    1221    1218    1227    1230      12
    1383    1377    1386    1389       1    1383    1377    1386    1392       1
    1383    1377    1386    1395       2    1383    1377   -1386    1395       3
    1380    1377    1386    1389       1    1380    1377    1386    1392       1
    1380    1377    1386    1395       2    1380    1377   -1386    1395       3
    1374    1368    1377    1380       7    1374    1368    1377    1383       7
    1374    1368    1377    1386       8    1371    1368    1377    1380       7
    1371    1368    1377    1383       7    1371    1368    1377    1386       8
    1368    1377    1386    1389       1    1368    1377    1386    1392       1
    1365    1359    1368    1371       1    1365    1359    1368    1374       1
    1365    1359    1368    1377       1    1362    1359    1368    1371       1
    1362    1359    1368    1374       1    1362    1359    1368    1377       1
    1359    1368    1377    1380       8    1359    1368    1377    1383       8
    1356    1359    1368    1371       2    1356    1359   -1368    1371       3
    1356    1359    1368    1374       2    1356    1359   -1368    1374       3
    1350    1356    1359    1362      12    1350    1356    1359    1365      12
    1344    1341    1347    1350      18    1338    1335    1341    1344      18
    1338    1335    1341    1347      18    1332    1323    1320    1335      18
    1332    1323    1326    1347      18    1329    1326    1323    1332      18
    1329    1326    1347    1341      18    1329    1326    1347    1350      18
    1326    1347    1341    1344      18    1323    1320    1335    1338      18
    1320    1323    1326    1329      18    1320    1335    1341    1344      18
    1314    1320    1323    1332      18    1314    1320    1335    1338      18
    1308    1302    1311    1314      12    1305    1302    1311    1314      12
    1467    1461    1470    1473       1    1467    1461    1470    1476       1
    1467    1461    1470    1479       2    1467    1461   -1470    1479       3
    1464    1461    1470    1473       1    1464    1461    1470    1476       1
    1464    1461    1470    1479       2    1464    1461   -1470    1479       3
    1458    1452    1461    1464       7    1458    1452    1461    1467       7
    1458    1452    1461    1470       8    1455    1452    1461    1464       7
    1455    1452    1461    1467       7    1455    1452    1461    1470       8
    1452    1461    1470    1473       1    1452    1461    1470    1476       1
    1449    1443    1452    1455       1    1449    1443    1452    1458       1
    1449    1443    1452    1461       1    1446    1443    1452    1455       1
    1446    1443    1452    1458       1    1446    1443    1452    1461       1
    1443    1452    1461    1464       8    1443    1452    1461    1467       8
    1440    1443    1452    1455       2    1440    1443   -1452    1455       3
    1440    1443    1452    1458       2    1440    1443   -1452    1458       3
    1434    1440    1443    1446      12    1434    1440    1443    1449      12
    1428    1425    1431    1434      18    1422    1419    1425    1428      18
    1422    1419    1425    1431      18    1416    1407    1404    1419      18
    1416    1407    1410    1431      18    1413    1410    1407    1416      18
    1413    1410    1431    1425      18    1413    1410    1431    1434      18
    1410    1431    1425    1428      18    1407    1404    1419    1422      18
    1404    1407    1410    1413      18    1404    1419    1425    1428      18
    1398    1404    1407    1416      18    1398    1404    1419    1422      18
    1392    1386    1395    1398      12    1389    1386    1395    1398      12
    1551    1545    1554    1557       1    1551    1545    1554    1560       1
    1551    1545    1554    1563       2    1551    1545   -1554    1563       3
    1548    1545    1554    1557       1    1548    1545    1554    1560       1
    1548    1545    1554    1563       2    1548    1545   -1554    1563       3
    1542    1536    1545    1548       7    1542    1536    1545    1551       7
    1542    1536    1545    1554       8    1539    1536    1545    1548       7
    1539    1536    1545    1551       7    1539    1536    1545    1554       8
    1536    1545    1554    1557       1    1536    1545    1554    1560       1
    1533    1527    1536    1539       1    1533    1527    1536    1542       1
    1533    1527    1536    1545       1    1530    1527    1536    1539       1
    1530    1527    1536    1542       1    1530    1527    1536    1545       1
    1527    1536    1545    1548       8    1527    1536    1545    1551       8
    1524    1527    1536    1539       2    1524    1527   -1536    1539       3
    1524    1527    1536    1542       2    1524    1527   -1536    1542       3
    1518    1524    1527    1530      12    1518    1524    1527    1533      12
    1512    1509    1515    1518      18    1506    1503    1509    1512      18
    1506    1503    1509    1515      18    1500    1491    1488    1503      18
    1500    1491    1494    1515      18    1497    1494    1491    1500      18
    1497    1494    1515    1509      18    1497    1494    1515    1518      18
    1494    1515    1509    1512      18    1491    1488    1503    1506      18
    1488    1491    1494    1497      18    1488    1503    1509    1512      18
    1482    1488    1491    1500      18    1482    1488    1503    1506      18
    1476    1470    1479    1482      12    1473    1470    1479    1482      12
    1635    1629    1638    1641       1    1635    1629    1638    1644       1
    1635    1629    1638    1647       2    1635    1629   -1638    1647       3
    1632    1629    1638    1641       1    1632    1629    1638    1644       1
    1632    1629    1638    1647       2    1632    1629   -1638    1647       3
    1626    1620    1629    1632       7    1626    1620    1629    1635       7
    1626    1620    1629    1638       8    1623    1620    1629    1632       7
    1623    1620    1629    1635       7    1623    1620    1629    1638       8
    1620    1629    1638    1641       1    1620    1629    1638    1644       1
    1617    1611    1620    1623       1    1617    1611    1620    1626       1
    1617    1611    1620    1629       1    1614    1611    1620    1623       1
    1614    1611    1620    1626       1    1614    1611    1620    1629       1
    1611    1620    1629    1632       8    1611    1620    1629    1635       8
    1608    1611    1620    1623       2    1608    1611   -1620    1623       3
    1608    1611    1620    1626       2    1608    1611   -1620    1626       3
    1602    1608    1611    1614      12    1602    1608    1611    1617      12
    1596    1593    1599    1602      18    1590    1587    1593    1596      18
    1590    1587    1593    1599      18    1584    1575    1572    1587      18
    1584    1575    1578    1599      18    1581    1578    1575    1584      18
    1581    1578    1599    1593      18    1581    1578    1599    1602      18
    1578    1599    1593    1596      18    1575    1572    1587    1590      18
    1572    1575    1578    1581      18    1572    1587    1593    1596      18
    1566    1572    1575    1584      18    1566    1572    1587    1590      18
    1560    1554    1563    1566      12    1557    1554    1563    1566      12
    1719    1713    1722    1725       1    1719    1713    1722    1728       1
    1719    1713    1722    1731       2    1719    1713   -1722    1731       3
    1716    1713    1722    1725       1    1716    1713    1722    1728       1
    1716    1713    1722    1731       2    1716    1713   -1722    1731       3
    1710    1704    1713    1716       7    1710    1704    1713    1719       7
    1710    1704    1713    1722       8    1707    1704    1713    1716       7
    1707    1704    1713    1719       7    1707    1704    1713    1722       8
    1704    1713    1722    1725       1    1704    1713    1722    1728       1
    1701    1695    1704    1707       1    1701    1695    1704    1710       1
    1701    1695    1704    1713       1    1698    1695    1704    1707       1
    1698    1695    1704    1710       1    1698    1695    1704    1713       1
    1695    1704    1713    1716       8    1695    1704    1713    1719       8
    1692    1695    1704    1707       2    1692    1695   -1704    1707       3
    1692    1695    1704    1710       2    1692    1695   -1704    1710       3
    1686    1692    1695    1698      12    1686    1692    1695    1701      12
    1680    1677    1683    1686      18    1674    1671    1677    1680      18
    1674    1671    1677    1683      18    1668    1659    1656    1671      18
    1668    1659    1662    1683      18    1665    1662    1659    1668      18
    1665    1662    1683    1677      18    1665    1662    1683    1686      18
    1662    1683    1677    1680      18    1659    1656    1671    1674      18
    1656    1659    1662    1665      18    1656    1671    1677    1680      18
    1650    1656    1659    1668      18    1650    1656    1671    1674      18
    1644    1638    1647    1650      12    1641    1638    1647    1650      12
    1803    1797    1806    1809       1    1803    1797    1806    1812       1
    1803    1797    1806    1815       2    1803    1797   -1806    1815       3
    1800    1797    1806    1809       1    1800    1797    1806    1812       1
    1800    1797    1806    1815       2    1800    1797   -1806    1815       3
    1794    1788    1797    1800       7    1794    1788    1797    1803       7
    1794    1788    1797    1806       8    1791    1788    1797    1800       7
    1791    1788    1797    1803       7    1791    1788    1797    1806       8
    1788    1797    1806    1809       1    1788    1797    1806    1812       1
    1785    1779    1788    1791       1    1785    1779    1788    1794       1
    1785    1779    1788    1797       1    1782    1779    1788    1791       1
    1782    1779    1788    1794       1    1782    1779    1788    1797       1
    1779    1788    1797    1800       8    1779    1788    1797    1803       8
    1776    1779    1788    1791       2    1776    1779   -1788    1791       3
    1776    1779    1788    1794       2    1776    1779   -1788    1794       3
    1770    1776    1779    1782      12    1770    1776    1779    1785      12
    1764    1761    1767    1770      18    1758    1755    1761    1764      18
    1758    1755    1761    1767      18    1752    1743    1740    1755      18
    1752    1743    1746    1767      18    1749    1746    1743    1752      18
    1749    1746    1767    1761      18    1749    1746    1767    1770      18
    1746    1767    1761    1764      18    1743    1740    1755    1758      18
    1740    1743    1746    1749      18    1740    1755    1761    1764      18
    1734    1740    1743    1752      18    1734    1740    1755    1758      18
    1728    1722    1731    1734      12    1725    1722    1731    1734      12
    1887    1881    1890    1893       1    1887    1881    1890    1896       1
    1887    1881    1890    1899       2    1887    1881   -1890    1899       3
    1884    1881    1890    1893       1    1884    1881    1890    1896       1
    1884    1881    1890    1899       2    1884    1881   -1890    1899       3
    1878    1872    1881    1884       7    1878    1872    1881    1887       7
    1878    1872    1881    1890       8    1875    1872    1881    1884       7
    1875    1872    1881    1887       7    1875    1872    1881    1890       8
    1872    1881    1890    1893       1    1872    1881    1890    1896       1
    1869    1863    1872    1875       1    1869    1863    1872    1878       1
    1869    1863    1872    1881       1    1866    1863    1872    1875       1
    1866    1863    1872    1878       1    1866    1863    1872    1881       1
    1863    1872    1881    1884       8    1863    1872    1881    1887       8
    1860    1863    1872    1875       2    1860    1863   -1872    1875       3
    1860    1863    1872    1878       2    1860    1863   -1872    1878       3
    1854    1860    1863    1866      12    1854    1860    1863    1869      12
    1848    1845    1851    1854      18    1842    1839    1845    1848      18
    1842    1839    1845    1851      18    1836    1827    1824    1839      18
    1836    1827    1830    1851      18    1833    1830    1827    1836      18
    1833    1830    1851    1845      18    1833    1830    1851    1854      18
    1830    1851    1845    1848      18    1827    1824    1839    1842      18
    1824    1827    1830    1833      18    1824    1839    1845    1848      18
    1818    1824    1827    1836      18    1818    1824    1839    1842      18
    1812    1806    1815    1818      12    1809    1806    1815    1818      12
    1971    1965    1974    1977       1    1971    1965    1974    1980       1
    1971    1965    1974    1983       2    1971    1965   -1974    1983       3
    1968    1965    1974    1977       1    1968    1965    1974    1980       1
    1968    1965    1974    1983       2    1968    1965   -1974    1983       3
    1962    1956    1965    1968       7    1962    1956    1965    1971       7
    1962    1956    1965    1974       8    1959    1956    1965    1968       7
    1959    1956    1965    1971       7    1959    1956    1965    1974       8
    1956    1965    1974    1977       1    1956    1965    1974    1980       1
    1953    1947    1956    1959       1    1953    1947    1956    1962       1
    1953    1947    1956    1965       1    1950    1947    1956    1959       1
    1950    1947    1956    1962       1    1950    1947    1956    1965       1
    1947    1956    1965    1968       8    1947    1956    1965    1971       8
    1944    1947    1956    1959       2    1944    1947   -1956    1959       3
    1944    1947    1956    1962       2    1944    1947   -1956    1962       3
    1938    1944    1947    1950      12    1938    1944    1947    1953      12
    1932    1929    1935    1938      18    1926    1923    1929    1932      18
    1926    1923    1929    1935      18    1920    1911    1908    1923      18
    1920    1911    1914    1935      18    1917    1914    1911    1920      18
    1917    1914    1935    1929      18    1917    1914    1935    1938      18
    1914    1935    1929    1932      18    1911    1908    1923    1926      18
    1908    1911    1914    1917      18    1908    1923    1929    1932      18
    1902    1908    1911    1920      18    1902    1908    1923    1926      18
    1896    1890    1899    1902      12    1893    1890    1899    1902      12
    2055    2049    2058    2061       1    2055    2049    2058    2064       1
    2055    2049    2058    2067       2    2055    2049   -2058    2067       3
    2052    2049    2058    2061       1    2052    2049    2058    2064       1
    2052    2049    2058    2067       2    2052    2049   -2058    2067       3
    2046    2040    2049    2052       7    2046    2040    2049    2055       7
    2046    2040    2049    2058       8    2043    2040    2049    2052       7
    2043    2040    2049    2055       7    2043    2040    2049    2058       8
    2040    2049    2058    2061       1    2040    2049    2058    2064       1
    2037    2031    2040    2043       1    2037    2031    2040    2046       1
    2037    2031    2040    2049       1    2034    2031    2040    2043       1
    2034    2031    2040    2046       1    2034    2031    2040    2049       1
    2031    2040    2049    2052       8    2031    2040    2049    2055       8
    2028    2031    2040    2043       2    2028    2031   -2040    2043       3
    2028    2031    2040    2046       2    2028    2031   -2040    2046       3
    2022    2028    2031    2034      12    2022    2028    2031    2037      12
    2016    2013    2019    2022      18    2010    2007    2013    2016      18
    2010    2007    2013    2019      18    2004    1995    1992    2007      18
    2004    1995    1998    2019      18    2001    1998    1995    2004      18
    2001    1998    2019    2013      18    2001    1998    2019    2022      18
    1998    2019    2013    2016      18    1995    1992    2007    2010      18
    1992    1995    1998    2001      18    1992    2007    2013    2016      18
    1986    1992    1995    2004      18    1986    1992    2007    2010      18
    1980    1974    1983    1986      12    1977    1974    1983    1986      12
    2160    2154    2163    2166       1    2160    2154    2163    2169       1
    2160    2154    2163    2172       2    2160    2154   -2163    2172       3
    2157    2154    2163    2166       1    2157    2154    2163    2169       1
    2157    2154    2163    2172       2    2157    2154   -2163    2172       3
    2151    2154    2163    2166       2    2151    2154   -2163    2166       3
    2151    2154    2163    2169       2    2151    2154   -2163    2169       3
    2148    2142    2151    2154      24    2145    2142    2151    2154      24
    2142    2151    2154    2157      24    2142    2151    2154    2160      24
    2139    2133    2142    2145       1    2139    2133    2142    2148       1
    2139    2133    2142    2151       2    2139    2133   -2142    2151       3
    2136    2133    2142    2145       1    2136    2133    2142    2148       1
    2136    2133    2142    2151       2    2136    2133   -2142    2151       3
    2130    2133    2142    2145       2    2130    2133   -2142    2145       3
    2130    2133    2142    2148       2    2130    2133   -2142    2148       3
    2127    2121    2130    2133      24    2124    2121    2130    2133      24
    2121    2130    2133    2136      24    2121    2130    2133    2139      24
    2118    2112    2121    2124       1    2118    2112    2121    2127       1
    2118    2112    2121    2130       2    2118    2112   -2121    2130       3
    2115    2112    2121    2124       1    2115    2112    2121    2127       1
    2115    2112    2121    2130       2    2115    2112   -2121    2130       3
    2109    2112    2121    2124       2    2109    2112   -2121    2124       3
    2109    2112    2121    2127       2    2109    2112   -2121    2127       3
    2106    2100    2109    2112      24    2103    2100    2109    2112      24
    2100    2109    2112    2115      24    2100    2109    2112    2118      24
    2097    2091    2100    2103       1    2097    2091    2100    2106       1
    2097    2091    2100    2109       2    2097    2091   -2100    2109       3
    2094    2091    2100    2103       1    2094    2091    2100    2106       1
    2094    2091    2100    2109       2    2094    2091   -2100    2109       3
    2088    2091    2100    2103       2    2088    2091   -2100    2103       3
    2088    2091    2100    2106       2    2088    2091   -2100    2106       3
    2085    2079    2088    2091      24    2082    2079    2088    2091      24
    2079    2088    2091    2094      24    2079    2088    2091    2097      24
    2076    2070    2079    2082       1    2076    2070    2079    2085       1
    2076    2070    2079    2088       2    2076    2070   -2079    2088       3
    2073    2070    2079    2082       1    2073    2070    2079    2085       1
    2073    2070    2079    2088       2    2073    2070   -2079    2088       3
    2067    2070    2079    2082       2    2067    2070   -2079    2082       3
    2067    2070    2079    2085       2    2067    2070   -2079    2085       3
    2064    2058    2067    2070      24    2061    2058    2067    2070      24
    2058    2067    2070    2073      24    2058    2067    2070    2076      24
    2244    2238    2247    2250       1    2244    2238    2247    2253       1
    2244    2238    2247    2256       2    2244    2238   -2247    2256       3
    2241    2238    2247    2250       1    2241    2238    2247    2253       1
    2241    2238    2247    2256       2    2241    2238   -2247    2256       3
    2235    2229    2238    2241       7    2235    2229    2238    2244       7
    2235    2229    2238    2247       8    2232    2229    2238    2241       7
    2232    2229    2238    2244       7    2232    2229    2238    2247       8
    2229    2238    2247    2250       1    2229    2238    2247    2253       1
    2226    2220    2229    2232       1    2226    2220    2229    2235       1
    2226    2220    2229    2238       1    2223    2220    2229    2232       1
    2223    2220    2229    2235       1    2223    2220    2229    2238       1
    2220    2229    2238    2241       8    2220    2229    2238    2244       8
    2217    2220    2229    2232       2    2217    2220   -2229    2232       3
    2217    2220    2229    2235       2    2217    2220   -2229    2235       3
    2211    2217    2220    2223      12    2211    2217    2220    2226      12
    2205    2202    2208    2211      18    2199    2196    2202    2205      18
    2199    2196    2202    2208      18    2193    2184    2181    2196      18
    2193    2184    2187    2208      18    2190    2187    2184    2193      18
    2190    2187    2208    2202      18    2190    2187    2208    2211      18
    2187    2208    2202    2205      18    2184    2181    2196    2199      18
    2181    2184    2187    2190      18    2181    2196    2202    2205      18
    2175    2181    2184    2193      18    2175    2181    2196    2199      18
    2169    2163    2172    2175      12    2166    2163    2172    2175      12
    2328    2322    2331    2334       1    2328    2322    2331    2337       1
    2328    2322    2331    2340       2    2328    2322   -2331    2340       3
    2325    2322    2331    2334       1    2325    2322    2331    2337       1
    2325    2322    2331    2340       2    2325    2322   -2331    2340       3
    2319    2313    2322    2325       7    2319    2313    2322    2328       7
    2319    2313    2322    2331       8    2316    2313    2322    2325       7
    2316    2313    2322    2328       7    2316    2313    2322    2331       8
    2313    2322    2331    2334       1    2313    2322    2331    2337       1
    2310    2304    2313    2316       1    2310    2304    2313    2319       1
    2310    2304    2313    2322       1    2307    2304    2313    2316       1
    2307    2304    2313    2319       1    2307    2304    2313    2322       1
    2304    2313    2322    2325       8    2304    2313    2322    2328       8
    2301    2304    2313    2316       2    2301    2304   -2313    2316       3
    2301    2304    2313    2319       2    2301    2304   -2313    2319       3
    2295    2301    2304    2307      12    2295    2301    2304    2310      12
    2289    2286    2292    2295      18    2283    2280    2286    2289      18
    2283    2280    2286    2292      18    2277    2268    2265    2280      18
    2277    2268    2271    2292      18    2274    2271    2268    2277      18
    2274    2271    2292    2286      18    2274    2271    2292    2295      18
    2271    2292    2286    2289      18    2268    2265    2280    2283      18
    2265    2268    2271    2274      18    2265    2280    2286    2289      18
    2259    2265    2268    2277      18    2259    2265    2280    2283      18
    2253    2247    2256    2259      12    2250    2247    2256    2259      12
    2433    2427    2436    2439       1    2433    2427    2436    2442       1
    2433    2427    2436    2445       2    2433    2427   -2436    2445       3
    2430    2427    2436    2439       1    2430    2427    2436    2442       1
    2430    2427    2436    2445       2    2430    2427   -2436    2445       3
    2424    2427    2436    2439       2    2424    2427   -2436    2439       3
    2424    2427    2436    2442       2    2424    2427   -2436    2442       3
    2421    2415    2424    2427      24    2418    2415    2424    2427      24
    2415    2424    2427    2430      24    2415    2424    2427    2433      24
    2412    2406    2415    2418       1    2412    2406    2415    2421       1
    2412    2406    2415    2424       2    2412    2406   -2415    2424       3
    2409    2406    2415    2418       1    2409    2406    2415    2421       1
    2409    2406    2415    2424       2    2409    2406   -2415    2424       3
    2403    2406    2415    2418       2    2403    2406   -2415    2418       3
    2403    2406    2415    2421       2    2403    2406   -2415    2421       3
    2400    2394    2403    2406      24    2397    2394    2403    2406      24
    2394    2403    2406    2409      24    2394    2403    2406    2412      24
    2391    2385    2394    2397       1    2391    2385    2394    2400       1
    2391    2385    2394    2403       2    2391    2385   -2394    2403       3
    2388    2385    2394    2397       1    2388    2385    2394    2400       1
    2388    2385    2394    2403       2    2388    2385   -2394    2403       3
    2382    2385    2394    2397       2    2382    2385   -2394    2397       3
    2382    2385    2394    2400       2    2382    2385   -2394    2400       3
    2379    2373    2382    2385      24    2376    2373    2382    2385      24
    2373    2382    2385    2388      24    2373    2382    2385    2391      24
    2370    2364    2373    2376       1    2370    2364    2373    2379       1
    2370    2364    2373    2382       2    2370    2364   -2373    2382       3
    2367    2364    2373    2376       1    2367    2364    2373    2379       1
    2367    2364    2373    2382       2    2367    2364   -2373    2382       3
    2361    2364    2373    2376       2    2361    2364   -2373    2376       3
    2361    2364    2373    2379       2    2361    2364   -2373    2379       3
    2358    2352    2361    2364      24    2355    2352    2361    2364      24
    2352    2361    2364    2367      24    2352    2361    2364    2370      24
    2349    2343    2352    2355       1    2349    2343    2352    2358       1
    2349    2343    2352    2361       2    2349    2343   -2352    2361       3
    2346    2343    2352    2355       1    2346    2343    2352    2358       1
    2346    2343    2352    2361       2    2346    2343   -2352    2361       3
    2340    2343    2352    2355       2    2340    2343   -2352    2355       3
    2340    2343    2352    2358       2    2340    2343   -2352    2358       3
    2337    2331    2340    2343      24    2334    2331    2340    2343      24
    2331    2340    2343    2346      24    2331    2340    2343    2349      24
    2538    2532    2541    2544       1    2538    2532    2541    2547       1
    2538    2532    2541    2550       2    2538    2532   -2541    2550       3
    2535    2532    2541    2544       1    2535    2532    2541    2547       1
    2535    2532    2541    2550       2    2535    2532   -2541    2550       3
    2529    2532    2541    2544       2    2529    2532   -2541    2544       3
    2529    2532    2541    2547       2    2529    2532   -2541    2547       3
    2526    2520    2529    2532      24    2523    2520    2529    2532      24
    2520    2529    2532    2535      24    2520    2529    2532    2538      24
    2517    2511    2520    2523       1    2517    2511    2520    2526       1
    2517    2511    2520    2529       2    2517    2511   -2520    2529       3
    2514    2511    2520    2523       1    2514    2511    2520    2526       1
    2514    2511    2520    2529       2    2514    2511   -2520    2529       3
    2508    2511    2520    2523       2    2508    2511   -2520    2523       3
    2508    2511    2520    2526       2    2508    2511   -2520    2526       3
    2505    2499    2508    2511      24    2502    2499    2508    2511      24
    2499    2508    2511    2514      24    2499    2508    2511    2517      24
    2496    2490    2499    2502       1    2496    2490    2499    2505       1
    2496    2490    2499    2508       2    2496    2490   -2499    2508       3
    2493    2490    2499    2502       1    2493    2490    2499    2505       1
    2493    2490    2499    2508       2    2493    2490   -2499    2508       3
    2487    2490    2499    2502       2    2487    2490   -2499    2502       3
    2487    2490    2499    2505       2    2487    2490   -2499    2505       3
    2484    2478    2487    2490      24    2481    2478    2487    2490      24
    2478    2487    2490    2493      24    2478    2487    2490    2496      24
    2475    2469    2478    2481       1    2475    2469    2478    2484       1
    2475    2469    2478    2487       2    2475    2469   -2478    2487       3
    2472    2469    2478    2481       1    2472    2469    2478    2484       1
    2472    2469    2478    2487       2    2472    2469   -2478    2487       3
    2466    2469    2478    2481       2    2466    2469   -2478    2481       3
    2466    2469    2478    2484       2    2466    2469   -2478    2484       3
    2463    2457    2466    2469      24    2460    2457    2466    2469      24
    2457    2466    2469    2472      24    2457    2466    2469    2475      24
    2454    2448    2457    2460       1    2454    2448    2457    2463       1
    2454    2448    2457    2466       2    2454    2448   -2457    2466       3
    2451    2448    2457    2460       1    2451    2448    2457    2463       1
    2451    2448    2457    2466       2    2451    2448   -2457    2466       3
    2445    2448    2457    2460       2    2445    2448   -2457    2460       3
    2445    2448    2457    2463       2    2445    2448   -2457    2463       3
    2442    2436    2445    2448      24    2439    2436    2445    2448      24
    2436    2445    2448    2451      24    2436    2445    2448    2454      24
    2613    2607    2616    2619       7    2613    2607    2616    2622       7
    2610    2607    2616    2619       7    2610    2607    2616    2622       7
    2604    2598    2607    2610       1    2604    2598    2607    2613       1
    2604    2598    2607    2616       1    2601    2598    2607    2610       1
    2601    2598    2607    2613       1    2601    2598    2607    2616       1
    2598    2607    2616    2619       8    2598    2607    2616    2622       8
    2595    2598    2607    2610       2    2595    2598   -2607    2610       3
    2595    2598    2607    2613       2    2595    2598   -2607    2613       3
    2589    2595    2598    2601      12    2589    2595    2598    2604      12
    2583    2580    2586    2589      18    2577    2574    2580    2583      18
    2577    2574    2580    2586      18    2571    2562    2559    2574      18
    2571    2562    2565    2586      18    2568    2565    2562    2571      18
    2568    2565    2586    2580      18    2568    2565    2586    2589      18
    2565    2586    2580    2583      18    2562    2559    2574    2577      18
    2559    2562    2565    2568      18    2559    2574    2580    2583      18
    2553    2559    2562    2571      18    2553    2559    2574    2577      18
    2547    2541    2550    2553      12    2544    2541    2550    2553      12
      33      45     -39     -42      26      18      39     -33     -36      26
      21      45     -24     -27      26      18      24     -21     -30      26
     222     234    -228    -231      26     207     228    -222    -225      26
     210     234    -213    -216      26     207     213    -210    -219      26
     306     318    -312    -315      26     291     312    -306    -309      26
     294     318    -297    -300      26     291     297    -294    -303      26
     390     402    -396    -399      26     375     396    -390    -393      26
     378     402    -381    -384      26     375     381    -378    -387      26
     579     591    -585    -588      26     564     585    -579    -582      26
     567     591    -570    -573      26     564     570    -567    -576      26
     663     675    -669    -672      26     648     669    -663    -666      26
     651     675    -654    -657      26     648     654    -651    -660      26
     747     759    -753    -756      26     732     753    -747    -750      26
     735     759    -738    -741      26     732     738    -735    -744      26
     831     843    -837    -840      26     816     837    -831    -834      26
     819     843    -822    -825      26     816     822    -819    -828      26
     915     927    -921    -924      26     900     921    -915    -918      26
     903     927    -906    -909      26     900     906    -903    -912      26
     999    1011   -1005   -1008      26     984    1005    -999   -1002      26
     987    1011    -990    -993      26     984     990    -987    -996      26
    1083    1095   -1089   -1092      26    1068    1089   -1083   -1086      26
    1071    1095   -1074   -1077      26    1068    1074   -1071   -1080      26
    1167    1179   -1173   -1176      26    1152    1173   -1167   -1170      26
    1155    1179   -1158   -1161      26    1152    1158   -1155   -1164      26
    1251    1263   -1257   -1260      26    1236    1257   -1251   -1254      26
    1239    1263   -1242   -1245      26    1236    1242   -1239   -1248      26
    1335    1347   -1341   -1344      26    1320    1341   -1335   -1338      26
    1323    1347   -1326   -1329      26    1320    1326   -1323   -1332      26
    1419    1431   -1425   -1428      26    1404    1425   -1419   -1422      26
    1407    1431   -1410   -1413      26    1404    1410   -1407   -1416      26
    1503    1515   -1509   -1512      26    1488    1509   -1503   -1506      26
    1491    1515   -1494   -1497      26    1488    1494   -1491   -1500      26
    1587    1599   -1593   -1596      26    1572    1593   -1587   -1590      26
    1575    1599   -1578   -1581      26    1572    1578   -1575   -1584      26
    1671    1683   -1677   -1680      26    1656    1677   -1671   -1674      26
    1659    1683   -1662   -1665      26    1656    1662   -1659   -1668      26
    1755    1767   -1761   -1764      26    1740    1761   -1755   -1758      26
    1743    1767   -1746   -1749      26    1740    1746   -1743   -1752      26
    1839    1851   -1845   -1848      26    1824    1845   -1839   -1842      26
    1827    1851   -1830   -1833      26    1824    1830   -1827   -1836      26
    1923    1935   -1929   -1932      26    1908    1929   -1923   -1926      26
    1911    1935   -1914   -1917      26    1908    1914   -1911   -1920      26
    2007    2019   -2013   -2016      26    1992    2013   -2007   -2010      26
    1995    2019   -1998   -2001      26    1992    1998   -1995   -2004      26
    2196    2208   -2202   -2205      26    2181    2202   -2196   -2199      26
    2184    2208   -2187   -2190      26    2181    2187   -2184   -2193      26
    2280    2292   -2286   -2289      26    2265    2286   -2280   -2283      26
    2268    2292   -2271   -2274      26    2265    2271   -2268   -2277      26
    2574    2586   -2580   -2583      26    2559    2580   -2574   -2577      26
    2562    2586   -2565   -2568      26    2559    2565   -2562   -2571      26
%FLAG DIHEDRALS_WITHOUT_HYDROGEN                                                
%FORMAT(10I8)                                                                   
      75      84      93      96       4      75      84     -93      96       5
      75      84     -93      96       6      66      75      84      93       1
      57      66      75      84       9      54      57      66      75       1
      51      48      54      57      10      51      48     -54      57      11
      48      54      57      66      13      48      54     -57      66      14
      45      48      54      57      15      45      48     -54      57      16
      45      48     -54      57      17      39      45      48      51      19
      39      45      48      54      20      33      39      45      48      18
      24      21      18      33      18      24      45     -39      33      18
      24      45      48      51      19      24      45      48      54      20
      21      18      33      39      18      21      24     -45      39      18
      21      24      45      48      18      18      21      24      45      18
      18      33     -39      45      18      15      12      18      21      19
      15      12      18      33      19      12      18      21      24      18
      12      18      33      39      18       9      12      18      21      20
       9      12      18      33      20       0       9      12      15      10
       0       9     -12      15      11       0       9      12      18      15
       0       9     -12      18      16       0       9     -12      18      17
     180     189     198     201      13     180     189    -198     201      14
     177     180     189     198      21     177     180    -189     198      22
     177     180    -189     198      23     168     177     180     189       4
     168     177    -180     189       5     168     177    -180     189       6
     159     168     177     180       4     159     168    -177     180       5
     159     168    -177     180       6     156     159     168     177      21
     156     159    -168     177      22     156     159    -168     177      23
     147     156     159     168       4     147     156    -159     168       5
     147     156    -159     168       6     138     147     156     159       4
     138     147    -156     159       5     138     147    -156     159       6
     135     138     147     156      21     135     138    -147     156      22
     135     138    -147     156      23     126     135     138     147       4
     126     135    -138     147       5     126     135    -138     147       6
     117     126     135     138       4     117     126    -135     138       5
     117     126    -135     138       6     114     117     126     135      21
     114     117    -126     135      22     114     117    -126     135      23
     105     114     117     126       4     105     114    -117     126       5
     105     114    -117     126       6      96     105     114     117       4
      96     105    -114     117       5      96     105    -114     117       6
      93      96     105     114      21      93      96    -105     114      22
      93      96    -105     114      23      84      93      96     105       4
      84      93     -96     105       5      84      93     -96     105       6
     264     273     282     285      13     264     273    -282     285      14
     255     264     273     282       1     246     255     264     273       9
     243     246     255     264       1     240     237     243     246      10
     240     237    -243     246      11     237     243     246     255      13
     237     243    -246     255      14     234     237     243     246      15
     234     237    -243     246      16     234     237    -243     246      17
     228     234     237     240      19     228     234     237     243      20
     222     228     234     237      18     213     210     207     222      18
     213     234    -228     222      18     213     234     237     240      19
     213     234     237     243      20     210     207     222     228      18
     210     213    -234     228      18     210     213     234     237      18
     207     210     213     234      18     207     222    -228     234      18
     204     201     207     210      19     204     201     207     222      19
     201     207     210     213      18     201     207     222     228      18
     198     201     207     210      20     198     201     207     222      20
     189     198     201     204      10     189     198    -201     204      11
     189     198     201     207      15     189     198    -201     207      16
     189     198    -201     207      17     348     357     366     369      13
     348     357    -366     369      14     339     348     357     366       1
     330     339     348     357       9     327     330     339     348       1
     324     321     327     330      10     324     321    -327     330      11
     321     327     330     339      13     321     327    -330     339      14
     318     321     327     330      15     318     321    -327     330      16
     318     321    -327     330      17     312     318     321     324      19
     312     318     321     327      20     306     312     318     321      18
     297     294     291     306      18     297     318    -312     306      18
     297     318     321     324      19     297     318     321     327      20
     294     291     306     312      18     294     297    -318     312      18
     294     297     318     321      18     291     294     297     318      18
     291     306    -312     318      18     288     285     291     294      19
     288     285     291     306      19     285     291     294     297      18
     285     291     306     312      18     282     285     291     294      20
     282     285     291     306      20     273     282     285     288      10
     273     282    -285     288      11     273     282     285     291      15
     273     282    -285     291      16     273     282    -285     291      17
     432     441     450     453       4     432     441    -450     453       5
     432     441    -450     453       6     423     432     441     450       1
     414     423     432     441       9     411     414     423     432       1
     408     405     411     414      10     408     405    -411     414      11
     405     411     414     423      13     405     411    -414     423      14
     402     405     411     414      15     402     405    -411     414      16
     402     405    -411     414      17     396     402     405     408      19
     396     402     405     411      20     390     396     402     405      18
     381     378     375     390      18     381     402    -396     390      18
     381     402     405     408      19     381     402     405     411      20
     378     375     390     396      18     378     381    -402     396      18
     378     381     402     405      18     375     378     381     402      18
     375     390    -396     402      18     372     369     375     378      19
     372     369     375     390      19     369     375     378     381      18
     369     375     390     396      18     366     369     375     378      20
     366     369     375     390      20     357     366     369     372      10
     357     366    -369     372      11     357     366     369     375      15
     357     366    -369     375      16     357     366    -369     375      17
     537     546     555     558      13     537     546    -555     558      14
     534     537     546     555      21     534     537    -546     555      22
     534     537    -546     555      23     525     534     537     546       4
     525     534    -537     546       5     525     534    -537     546       6
     516     525     534     537       4     516     525    -534     537       5
     516     525    -534     537       6     513     516     525     534      21
     513     516    -525     534      22     513     516    -525     534      23
     504     513     516     525       4     504     513    -516     525       5
     504     513    -516     525       6     495     504     513     516       4
     495     504    -513     516       5     495     504    -513     516       6
     492     495     504     513      21     492     495    -504     513      22
     492     495    -504     513      23     483     492     495     504       4
     483     492    -495     504       5     483     492    -495     504       6
     474     483     492     495       4     474     483    -492     495       5
     474     483    -492     495       6     471     474     483     492      21
     471     474    -483     492      22     471     474    -483     492      23
     462     471     474     483       4     462     471    -474     483       5
     462     471    -474     483       6     453     462     471     474       4
     453     462    -471     474       5     453     462    -471     474       6
     450     453     462     471      21     450     453    -462     471      22
     450     453    -462     471      23     441     450     453     462       4
     441     450    -453     462       5     441     450    -453     462       6
     621     630     639     642      13     621     630    -639     642      14
     612     621     630     639       1     603     612     621     630       9
     600     603     612     621       1     597     594     600     603      10
     597     594    -600     603      11     594     600     603     612      13
     594     600    -603     612      14     591     594     600     603      15
     591     594    -600     603      16     591     594    -600     603      17
     585     591     594     597      19     585     591     594     600      20
     579     585     591     594      18     570     567     564     579      18
     570     591    -585     579      18     570     591     594     597      19
     570     591     594     600      20     567     564     579     585      18
     567     570    -591     585      18     567     570     591     594      18
     564     567     570     591      18     564     579    -585     591      18
     561     558     564     567      19     561     558     564     579      19
     558     564     567     570      18     558     564     579     585      18
     555     558     564     567      20     555     558     564     579      20
     546     555     558     561      10     546     555    -558     561      11
     546     555     558     564      15     546     555    -558     564      16
     546     555    -558     564      17     705     714     723     726      13
     705     714    -723     726      14     696     705     714     723       1
     687     696     705     714       9     684     687     696     705       1
     681     678     684     687      10     681     678    -684     687      11
     678     684     687     696      13     678     684    -687     696      14
     675     678     684     687      15     675     678    -684     687      16
     675     678    -684     687      17     669     675     678     681      19
     669     675     678     684      20     663     669     675     678      18
     654     651     648     663      18     654     675    -669     663      18
     654     675     678     681      19     654     675     678     684      20
     651     648     663     669      18     651     654    -675     669      18
     651     654     675     678      18     648     651     654     675      18
     648     663    -669     675      18     645     642     648     651      19
     645     642     648     663      19     642     648     651     654      18
     642     648     663     669      18     639     642     648     651      20
     639     642     648     663      20     630     639     642     645      10
     630     639    -642     645      11     630     639     642     648      15
     630     639    -642     648      16     630     639    -642     648      17
     789     798     807     810      13     789     798    -807     810      14
     780     789     798     807       1     771     780     789     798       9
     768     771     780     789       1     765     762     768     771      10
     765     762    -768     771      11     762     768     771     780      13
     762     768    -771     780      14     759     762     768     771      15
     759     762    -768     771      16     759     762    -768     771      17
     753     759     762     765      19     753     759     762     768      20
     747     753     759     762      18     738     735     732     747      18
     738     759    -753     747      18     738     759     762     765      19
     738     759     762     768      20     735     732     747     753      18
     735     738    -759     753      18     735     738     759     762      18
     732     735     738     759      18     732     747    -753     759      18
     729     726     732     735      19     729     726     732     747      19
     726     732     735     738      18     726     732     747     753      18
     723     726     732     735      20     723     726     732     747      20
     714     723     726     729      10     714     723    -726     729      11
     714     723     726     732      15     714     723    -726     732      16
     714     723    -726     732      17     873     882     891     894      13
     873     882    -891     894      14     864     873     882     891       1
     855     864     873     882       9     852     855     864     873       1
     849     846     852     855      10     849     846    -852     855      11
     846     852     855     864      13     846     852    -855     864      14
     843     846     852     855      15     843     846    -852     855      16
     843     846    -852     855      17     837     843     846     849      19
     837     843     846     852      20     831     837     843     846      18
     822     819     816     831      18     822     843    -837     831      18
     822     843     846     849      19     822     843     846     852      20
     819     816     831     837      18     819     822    -843     837      18
     819     822     843     846      18     816     819     822     843      18
     816     831    -837     843      18     813     810     816     819      19
     813     810     816     831      19     810     816     819     822      18
     810     816     831     837      18     807     810     816     819      20
     807     810     816     831      20     798     807     810     813      10
     798     807    -810     813      11     798     807     810     816      15
     798     807    -810     816      16     798     807    -810     816      17
     957     966     975     978      13     957     966    -975     978      14
     948     957     966     975       1     939     948     957     966       9
     936     939     948     957       1     933     930     936     939      10
     933     930    -936     939      11     930     936     939     948      13
     930     936    -939     948      14     927     930     936     939      15
     927     930    -936     939      16     927     930    -936     939      17
     921     927     930     933      19     921     927     930     936      20
     915     921     927     930      18     906     903     900     915      18
     906     927    -921     915      18     906     927     930     933      19
     906     927     930     936      20     903     900     915     921      18
     903     906    -927     921      18     903     906     927     930      18
     900     903     906     927      18     900     915    -921     927      18
     897     894     900     903      19     897     894     900     915      19
     894     900     903     906      18     894     900     915     921      18
     891     894     900     903      20     891     894     900     915      20
     882     891     894     897      10     882     891    -894     897      11
     882     891     894     900      15     882     891    -894     900      16
     882     891    -894     900      17    1041    1050    1059    1062      13
    1041    1050   -1059    1062      14    1032    1041    1050    1059       1
    1023    1032    1041    1050       9    1020    1023    1032    1041       1
    1017    1014    1020    1023      10    1017    1014   -1020    1023      11
    1014    1020    1023    1032      13    1014    1020   -1023    1032      14
    1011    1014    1020    1023      15    1011    1014   -1020    1023      16
    1011    1014   -1020    1023      17    1005    1011    1014    1017      19
    1005    1011    1014    1020      20     999    1005    1011    1014      18
     990     987     984     999      18     990    1011   -1005     999      18
     990    1011    1014    1017      19     990    1011    1014    1020      20
     987     984     999    1005      18     987     990   -1011    1005      18
     987     990    1011    1014      18     984     987     990    1011      18
     984     999   -1005    1011      18     981     978     984     987      19
     981     978     984     999      19     978     984     987     990      18
     978     984     999    1005      18     975     978     984     987      20
     975     978     984     999      20     966     975     978     981      10
     966     975    -978     981      11     966     975     978     984      15
     966     975    -978     984      16     966     975    -978     984      17
    1125    1134    1143    1146      13    1125    1134   -1143    1146      14
    1116    1125    1134    1143       1    1107    1116    1125    1134       9
    1104    1107    1116    1125       1    1101    1098    1104    1107      10
    1101    1098   -1104    1107      11    1098    1104    1107    1116      13
    1098    1104   -1107    1116      14    1095    1098    1104    1107      15
    1095    1098   -1104    1107      16    1095    1098   -1104    1107      17
    1089    1095    1098    1101      19    1089    1095    1098    1104      20
    1083    1089    1095    1098      18    1074    1071    1068    1083      18
    1074    1095   -1089    1083      18    1074    1095    1098    1101      19
    1074    1095    1098    1104      20    1071    1068    1083    1089      18
    1071    1074   -1095    1089      18    1071    1074    1095    1098      18
    1068    1071    1074    1095      18    1068    1083   -1089    1095      18
    1065    1062    1068    1071      19    1065    1062    1068    1083      19
    1062    1068    1071    1074      18    1062    1068    1083    1089      18
    1059    1062    1068    1071      20    1059    1062    1068    1083      20
    1050    1059    1062    1065      10    1050    1059   -1062    1065      11
    1050    1059    1062    1068      15    1050    1059   -1062    1068      16
    1050    1059   -1062    1068      17    1209    1218    1227    1230      13
    1209    1218   -1227    1230      14    1200    1209    1218    1227       1
    1191    1200    1209    1218       9    1188    1191    1200    1209       1
    1185    1182    1188    1191      10    1185    1182   -1188    1191      11
    1182    1188    1191    1200      13    1182    1188   -1191    1200      14
    1179    1182    1188    1191      15    1179    1182   -1188    1191      16
    1179    1182   -1188    1191      17    1173    1179    1182    1185      19
    1173    1179    1182    1188      20    1167    1173    1179    1182      18
    1158    1155    1152    1167      18    1158    1179   -1173    1167      18
    1158    1179    1182    1185      19    1158    1179    1182    1188      20
    1155    1152    1167    1173      18    1155    1158   -1179    1173      18
    1155    1158    1179    1182      18    1152    1155    1158    1179      18
    1152    1167   -1173    1179      18    1149    1146    1152    1155      19
    1149    1146    1152    1167      19    1146    1152    1155    1158      18
    1146    1152    1167    1173      18    1143    1146    1152    1155      20
    1143    1146    1152    1167      20    1134    1143    1146    1149      10
    1134    1143   -1146    1149      11    1134    1143    1146    1152      15
    1134    1143   -1146    1152      16    1134    1143   -1146    1152      17
    1293    1302    1311    1314      13    1293    1302   -1311    1314      14
    1284    1293    1302    1311       1    1275    1284    1293    1302       9
    1272    1275    1284    1293       1    1269    1266    1272    1275      10
    1269    1266   -1272    1275      11    1266    1272    1275    1284      13
    1266    1272   -1275    1284      14    1263    1266    1272    1275      15
    1263    1266   -1272    1275      16    1263    1266   -1272    1275      17
    1257    1263    1266    1269      19    1257    1263    1266    1272      20
    1251    1257    1263    1266      18    1242    1239    1236    1251      18
    1242    1263   -1257    1251      18    1242    1263    1266    1269      19
    1242    1263    1266    1272      20    1239    1236    1251    1257      18
    1239    1242   -1263    1257      18    1239    1242    1263    1266      18
    1236    1239    1242    1263      18    1236    1251   -1257    1263      18
    1233    1230    1236    1239      19    1233    1230    1236    1251      19
    1230    1236    1239    1242      18    1230    1236    1251    1257      18
    1227    1230    1236    1239      20    1227    1230    1236    1251      20
    1218    1227    1230    1233      10    1218    1227   -1230    1233      11
    1218    1227    1230    1236      15    1218    1227   -1230    1236      16
    1218    1227   -1230    1236      17    1377    1386    1395    1398      13
    1377    1386   -1395    1398      14    1368    1377    1386    1395       1
    1359    1368    1377    1386       9    1356    1359    1368    1377       1
    1353    1350    1356    1359      10    1353    1350   -1356    1359      11
    1350    1356    1359    1368      13    1350    1356   -1359    1368      14
    1347    1350    1356    1359      15    1347    1350   -1356    1359      16
    1347    1350   -1356    1359      17    1341    1347    1350    1353      19
    1341    1347    1350    1356      20    1335    1341    1347    1350      18
    1326    1323    1320    1335      18    1326    1347   -1341    1335      18
    1326    1347    1350    1353      19    1326    1347    1350    1356      20
    1323    1320    1335    1341      18    1323    1326   -1347    1341      18
    1323    1326    1347    1350      18    1320    1323    1326    1347      18
    1320    1335   -1341    1347      18    1317    1314    1320    1323      19
    1317    1314    1320    1335      19    1314    1320    1323    1326      18
    1314    1320    1335    1341      18    1311    1314    1320    1323      20
    1311    1314    1320    1335      20    1302    1311    1314    1317      10
    1302    1311   -1314    1317      11    1302    1311    1314    1320      15
    1302    1311   -1314    1320      16    1302    1311   -1314    1320      17
    1461    1470    1479    1482      13    1461    1470   -1479    1482      14
    1452    1461    1470    1479       1    1443    1452    1461    1470       9
    1440    1443    1452    1461       1    1437    1434    1440    1443      10
    1437    1434   -1440    1443      11    1434    1440    1443    1452      13
    1434    1440   -1443    1452      14    1431    1434    1440    1443      15
    1431    1434   -1440    1443      16    1431    1434   -1440    1443      17
    1425    1431    1434    1437      19    1425    1431    1434    1440      20
    1419    1425    1431    1434      18    1410    1407    1404    1419      18
    1410    1431   -1425    1419      18    1410    1431    1434    1437      19
    1410    1431    1434    1440      20    1407    1404    1419    1425      18
    1407    1410   -1431    1425      18    1407    1410    1431    1434      18
    1404    1407    1410    1431      18    1404    1419   -1425    1431      18
    1401    1398    1404    1407      19    1401    1398    1404    1419      19
    1398    1404    1407    1410      18    1398    1404    1419    1425      18
    1395    1398    1404    1407      20    1395    1398    1404    1419      20
    1386    1395    1398    1401      10    1386    1395   -1398    1401      11
    1386    1395    1398    1404      15    1386    1395   -1398    1404      16
    1386    1395   -1398    1404      17    1545    1554    1563    1566      13
    1545    1554   -1563    1566      14    1536    1545    1554    1563       1
    1527    1536    1545    1554       9    1524    1527    1536    1545       1
    1521    1518    1524    1527      10    1521    1518   -1524    1527      11
    1518    1524    1527    1536      13    1518    1524   -1527    1536      14
    1515    1518    1524    1527      15    1515    1518   -1524    1527      16
    1515    1518   -1524    1527      17    1509    1515    1518    1521      19
    1509    1515    1518    1524      20    1503    1509    1515    1518      18
    1494    1491    1488    1503      18    1494    1515   -1509    1503      18
    1494    1515    1518    1521      19    1494    1515    1518    1524      20
    1491    1488    1503    1509      18    1491    1494   -1515    1509      18
    1491    1494    1515    1518      18    1488    1491    1494    1515      18
    1488    1503   -1509    1515      18    1485    1482    1488    1491      19
    1485    1482    1488    1503      19    1482    1488    1491    1494      18
    1482    1488    1503    1509      18    1479    1482    1488    1491      20
    1479    1482    1488    1503      20    1470    1479    1482    1485      10
    1470    1479   -1482    1485      11    1470    1479    1482    1488      15
    1470    1479   -1482    1488      16    1470    1479   -1482    1488      17
    1629    1638    1647    1650      13    1629    1638   -1647    1650      14
    1620    1629    1638    1647       1    1611    1620    1629    1638       9
    1608    1611    1620    1629       1    1605    1602    1608    1611      10
    1605    1602   -1608    1611      11    1602    1608    1611    1620      13
    1602    1608   -1611    1620      14    1599    1602    1608    1611      15
    1599    1602   -1608    1611      16    1599    1602   -1608    1611      17
    1593    1599    1602    1605      19    1593    1599    1602    1608      20
    1587    1593    1599    1602      18    1578    1575    1572    1587      18
    1578    1599   -1593    1587      18    1578    1599    1602    1605      19
    1578    1599    1602    1608      20    1575    1572    1587    1593      18
    1575    1578   -1599    1593      18    1575    1578    1599    1602      18
    1572    1575    1578    1599      18    1572    1587   -1593    1599      18
    1569    1566    1572    1575      19    1569    1566    1572    1587      19
    1566    1572    1575    1578      18    1566    1572    1587    1593      18
    1563    1566    1572    1575      20    1563    1566    1572    1587      20
    1554    1563    1566    1569      10    1554    1563   -1566    1569      11
    1554    1563    1566    1572      15    1554    1563   -1566    1572      16
    1554    1563   -1566    1572      17    1713    1722    1731    1734      13
    1713    1722   -1731    1734      14    1704    1713    1722    1731       1
    1695    1704    1713    1722       9    1692    1695    1704    1713       1
    1689    1686    1692    1695      10    1689    1686   -1692    1695      11
    1686    1692    1695    1704      13    1686    1692   -1695    1704      14
    1683    1686    1692    1695      15    1683    1686   -1692    1695      16
    1683    1686   -1692    1695      17    1677    1683    1686    1689      19
    1677    1683    1686    1692      20    1671    1677    1683    1686      18
    1662    1659    1656    1671      18    1662    1683   -1677    1671      18
    1662    1683    1686    1689      19    1662    1683    1686    1692      20
    1659    1656    1671    1677      18    1659    1662   -1683    1677      18
    1659    1662    1683    1686      18    1656    1659    1662    1683      18
    1656    1671   -1677    1683      18    1653    1650    1656    1659      19
    1653    1650    1656    1671      19    1650    1656    1659    1662      18
    1650    1656    1671    1677      18    1647    1650    1656    1659      20
    1647    1650    1656    1671      20    1638    1647    1650    1653      10
    1638    1647   -1650    1653      11    1638    1647    1650    1656      15
    1638    1647   -1650    1656      16    1638    1647   -1650    1656      17
    1797    1806    1815    1818      13    1797    1806   -1815    1818      14
    1788    1797    1806    1815       1    1779    1788    1797    1806       9
    1776    1779    1788    1797       1    1773    1770    1776    1779      10
    1773    1770   -1776    1779      11    1770    1776    1779    1788      13
    1770    1776   -1779    1788      14    1767    1770    1776    1779      15
    1767    1770   -1776    1779      16    1767    1770   -1776    1779      17
    1761    1767    1770    1773      19    1761    1767    1770    1776      20
    1755    1761    1767    1770      18    1746    1743    1740    1755      18
    1746    1767   -1761    1755      18    1746    1767    1770    1773      19
    1746    1767    1770    1776      20    1743    1740    1755    1761      18
    1743    1746   -1767    1761      18    1743    1746    1767    1770      18
    1740    1743    1746    1767      18    1740    1755   -1761    1767      18
    1737    1734    1740    1743      19    1737    1734    1740    1755      19
    1734    1740    1743    1746      18    1734    1740    1755    1761      18
    1731    1734    1740    1743      20    1731    1734    1740    1755      20
    1722    1731    1734    1737      10    1722    1731   -1734    1737      11
    1722    1731    1734    1740      15    1722    1731   -1734    1740      16
    1722    1731   -1734    1740      17    1881    1890    1899    1902      13
    1881    1890   -1899    1902      14    1872    1881    1890    1899       1
    1863    1872    1881    1890       9    1860    1863    1872    1881       1
    1857    1854    1860    1863      10    1857    1854   -1860    1863      11
    1854    1860    1863    1872      13    1854    1860   -1863    1872      14
    1851    1854    1860    1863      15    1851    1854   -1860    1863      16
    1851    1854   -1860    1863      17    1845    1851    1854    1857      19
    1845    1851    1854    1860      20    1839    1845    1851    1854      18
    1830    1827    1824    1839      18    1830    1851   -1845    1839      18
    1830    1851    1854    1857      19    1830    1851    1854    1860      20
    1827    1824    1839    1845      18    1827    1830   -1851    1845      18
    1827    1830    1851    1854      18    1824    1827    1830    1851      18
    1824    1839   -1845    1851      18    1821    1818    1824    1827      19
    1821    1818    1824    1839      19    1818    1824    1827    1830      18
    1818    1824    1839    1845      18    1815    1818    1824    1827      20
    1815    1818    1824    1839      20    1806    1815    1818    1821      10
    1806    1815   -1818    1821      11    1806    1815    1818    1824      15
    1806    1815   -1818    1824      16    1806    1815   -1818    1824      17
    1965    1974    1983    1986      13    1965    1974   -1983    1986      14
    1956    1965    1974    1983       1    1947    1956    1965    1974       9
    1944    1947    1956    1965       1    1941    1938    1944    1947      10
    1941    1938   -1944    1947      11    1938    1944    1947    1956      13
    1938    1944   -1947    1956      14    1935    1938    1944    1947      15
    1935    1938   -1944    1947      16    1935    1938   -1944    1947      17
    1929    1935    1938    1941      19    1929    1935    1938    1944      20
    1923    1929    1935    1938      18    1914    1911    1908    1923      18
    1914    1935   -1929    1923      18    1914    1935    1938    1941      19
    1914    1935    1938    1944      20    1911    1908    1923    1929      18
    1911    1914   -1935    1929      18    1911    1914    1935    1938      18
    1908    1911    1914    1935      18    1908    1923   -1929    1935      18
    1905    1902    1908    1911      19    1905    1902    1908    1923      19
    1902    1908    1911    1914      18    1902    1908    1923    1929      18
    1899    1902    1908    1911      20    1899    1902    1908    1923      20
    1890    1899    1902    1905      10    1890    1899   -1902    1905      11
    1890    1899    1902    1908      15    1890    1899   -1902    1908      16
    1890    1899   -1902    1908      17    2049    2058    2067    2070       4
    2049    2058   -2067    2070       5    2049    2058   -2067    2070       6
    2040    2049    2058    2067       1    2031    2040    2049    2058       9
    2028    2031    2040    2049       1    2025    2022    2028    2031      10
    2025    2022   -2028    2031      11    2022    2028    2031    2040      13
    2022    2028   -2031    2040      14    2019    2022    2028    2031      15
    2019    2022   -2028    2031      16    2019    2022   -2028    2031      17
    2013    2019    2022    2025      19    2013    2019    2022    2028      20
    2007    2013    2019    2022      18    1998    1995    1992    2007      18
    1998    2019   -2013    2007      18    1998    2019    2022    2025      19
    1998    2019    2022    2028      20    1995    1992    2007    2013      18
    1995    1998   -2019    2013      18    1995    1998    2019    2022      18
    1992    1995    1998    2019      18    1992    2007   -2013    2019      18
    1989    1986    1992    1995      19    1989    1986    1992    2007      19
    1986    1992    1995    1998      18    1986    1992    2007    2013      18
    1983    1986    1992    1995      20    1983    1986    1992    2007      20
    1974    1983    1986    1989      10    1974    1983   -1986    1989      11
    1974    1983    1986    1992      15    1974    1983   -1986    1992      16
    1974    1983   -1986    1992      17    2154    2163    2172    2175      13
    2154    2163   -2172    2175      14    2151    2154    2163    2172      21
    2151    2154   -2163    2172      22    2151    2154   -2163    2172      23
    2142    2151    2154    2163       4    2142    2151   -2154    2163       5
    2142    2151   -2154    2163       6    2133    2142    2151    2154       4
    2133    2142   -2151    2154       5    2133    2142   -2151    2154       6
    2130    2133    2142    2151      21    2130    2133   -2142    2151      22
    2130    2133   -2142    2151      23    2121    2130    2133    2142       4
    2121    2130   -2133    2142       5    2121    2130   -2133    2142       6
    2112    2121    2130    2133       4    2112    2121   -2130    2133       5
    2112    2121   -2130    2133       6    2109    2112    2121    2130      21
    2109    2112   -2121    2130      22    2109    2112   -2121    2130      23
    2100    2109    2112    2121       4    2100    2109   -2112    2121       5
    2100    2109   -2112    2121       6    2091    2100    2109    2112       4
    2091    2100   -2109    2112       5    2091    2100   -2109    2112       6
    2088    2091    2100    2109      21    2088    2091   -2100    2109      22
    2088    2091   -2100    2109      23    2079    2088    2091    2100       4
    2079    2088   -2091    2100       5    2079    2088   -2091    2100       6
    2070    2079    2088    2091       4    2070    2079   -2088    2091       5
    2070    2079   -2088    2091       6    2067    2070    2079    2088      21
    2067    2070   -2079    2088      22    2067    2070   -2079    2088      23
    2058    2067    2070    2079       4    2058    2067   -2070    2079       5
    2058    2067   -2070    2079       6    2238    2247    2256    2259      13
    2238    2247   -2256    2259      14    2229    2238    2247    2256       1
    2220    2229    2238    2247       9    2217    2220    2229    2238       1
    2214    2211    2217    2220      10    2214    2211   -2217    2220      11
    2211    2217    2220    2229      13    2211    2217   -2220    2229      14
    2208    2211    2217    2220      15    2208    2211   -2217    2220      16
    2208    2211   -2217    2220      17    2202    2208    2211    2214      19
    2202    2208    2211    2217      20    2196    2202    2208    2211      18
    2187    2184    2181    2196      18    2187    2208   -2202    2196      18
    2187    2208    2211    2214      19    2187    2208    2211    2217      20
    2184    2181    2196    2202      18    2184    2187   -2208    2202      18
    2184    2187    2208    2211      18    2181    2184    2187    2208      18
    2181    2196   -2202    2208      18    2178    2175    2181    2184      19
    2178    2175    2181    2196      19    2175    2181    2184    2187      18
    2175    2181    2196    2202      18    2172    2175    2181    2184      20
    2172    2175    2181    2196      20    2163    2172    2175    2178      10
    2163    2172   -2175    2178      11    2163    2172    2175    2181      15
    2163    2172   -2175    2181      16    2163    2172   -2175    2181      17
    2322    2331    2340    2343       4    2322    2331   -2340    2343       5
    2322    2331   -2340    2343       6    2313    2322    2331    2340       1
    2304    2313    2322    2331       9    2301    2304    2313    2322       1
    2298    2295    2301    2304      10    2298    2295   -2301    2304      11
    2295    2301    2304    2313      13    2295    2301   -2304    2313      14
    2292    2295    2301    2304      15    2292    2295   -2301    2304      16
    2292    2295   -2301    2304      17    2286    2292    2295    2298      19
    2286    2292    2295    2301      20    2280    2286    2292    2295      18
    2271    2268    2265    2280      18    2271    2292   -2286    2280      18
    2271    2292    2295    2298      19    2271    2292    2295    2301      20
    2268    2265    2280    2286      18    2268    2271   -2292    2286      18
    2268    2271    2292    2295      18    2265    2268    2271    2292      18
    2265    2280   -2286    2292      18    2262    2259    2265    2268      19
    2262    2259    2265    2280      19    2259    2265    2268    2271      18
    2259    2265    2280    2286      18    2256    2259    2265    2268      20
    2256    2259    2265    2280      20    2247    2256    2259    2262      10
    2247    2256   -2259    2262      11    2247    2256    2259    2265      15
    2247    2256   -2259    2265      16    2247    2256   -2259    2265      17
    2427    2436    2445    2448       4    2427    2436   -2445    2448       5
    2427    2436   -2445    2448       6    2424    2427    2436    2445      21
    2424    2427   -2436    2445      22    2424    2427   -2436    2445      23
    2415    2424    2427    2436       4    2415    2424   -2427    2436       5
    2415    2424   -2427    2436       6    2406    2415    2424    2427       4
    2406    2415   -2424    2427       5    2406    2415   -2424    2427       6
    2403    2406    2415    2424      21    2403    2406   -2415    2424      22
    2403    2406   -2415    2424      23    2394    2403    2406    2415       4
    2394    2403   -2406    2415       5    2394    2403   -2406    2415       6
    2385    2394    2403    2406       4    2385    2394   -2403    2406       5
    2385    2394   -2403    2406       6    2382    2385    2394    2403      21
    2382    2385   -2394    2403      22    2382    2385   -2394    2403      23
    2373    2382    2385    2394       4    2373    2382   -2385    2394       5
    2373    2382   -2385    2394       6    2364    2373    2382    2385       4
    2364    2373   -2382    2385       5    2364    2373   -2382    2385       6
    2361    2364    2373    2382      21    2361    2364   -2373    2382      22
    2361    2364   -2373    2382      23    2352    2361    2364    2373       4
    2352    2361   -2364    2373       5    2352    2361   -2364    2373       6
    2343    2352    2361    2364       4    2343    2352   -2361    2364       5
    2343    2352   -2361    2364       6    2340    2343    2352    2361      21
    2340    2343   -2352    2361      22    2340    2343   -2352    2361      23
    2331    2340    2343    2352       4    2331    2340   -2343    2352       5
    2331    2340   -2343    2352       6    2532    2541    2550    2553      13
    2532    2541   -2550    2553      14    2529    2532    2541    2550      21
    2529    2532   -2541    2550      22    2529    2532   -2541    2550      23
    2520    2529    2532    2541       4    2520    2529   -2532    2541       5
    2520    2529   -2532    2541       6    2511    2520    2529    2532       4
    2511    2520   -2529    2532       5    2511    2520   -2529    2532       6
    2508    2511    2520    2529      21    2508    2511   -2520    2529      22
    2508    2511   -2520    2529      23    2499    2508    2511    2520       4
    2499    2508   -2511    2520       5    2499    2508   -2511    2520       6
    2490    2499    2508    2511       4    2490    2499   -2508    2511       5
    2490    2499   -2508    2511       6    2487    2490    2499    2508      21
    2487    2490   -2499    2508      22    2487    2490   -2499    2508      23
    2478    2487    2490    2499       4    2478    2487   -2490    2499       5
    2478    2487   -2490    2499       6    2469    2478    2487    2490       4
    2469    2478   -2487    2490       5    2469    2478   -2487    2490       6
    2466    2469    2478    2487      21    2466    2469   -2478    2487      22
    2466    2469   -2478    2487      23    2457    2466    2469    2478       4
    2457    2466   -2469    2478       5    2457    2466   -2469    2478       6
    2448    2457    2466    2469       4    2448    2457   -2466    2469       5
    2448    2457   -2466    2469       6    2445    2448    2457    2466      21
    2445    2448   -2457    2466      22    2445    2448   -2457    2466      23
    2436    2445    2448    2457       4    2436    2445   -2448    2457       5
    2436    2445   -2448    2457       6    2595    2598    2607    2616       1
    2592    2589    2595    2598      10    2592    2589   -2595    2598      11
    2589    2595    2598    2607      13    2589    2595   -2598    2607      14
    2586    2589    2595    2598      15    2586    2589   -2595    2598      16
    2586    2589   -2595    2598      17    2580    2586    2589    2592      19
    2580    2586    2589    2595      20    2574    2580    2586    2589      18
    2565    2562    2559    2574      18    2565    2586   -2580    2574      18
    2565    2586    2589    2592      19    2565    2586    2589    2595      20
    2562    2559    2574    2580      18    2562    2565   -2586    2580      18
    2562    2565    2586    2589      18    2559    2562    2565    2586      18
    2559    2574   -2580    2586      18    2556    2553    2559    2562      19
    2556    2553    2559    2574      19    2553    2559    2562    2565      18
    2553    2559    2574    2580      18    2550    2553    2559    2562      20
    2550    2553    2559    2574      20    2541    2550    2553    2556      10
    2541    2550   -2553    2556      11    2541    2550    2553    2559      15
    2541    2550   -2553    2559      16    2541    2550   -2553    2559      17
      45      54     -48     -51      25       9      18     -12     -15      25
     234     243    -237    -240      25     198     207    -201    -204      25
     318     327    -321    -324      25     282     291    -285    -288      25
     402     411    -405    -408      25     366     375    -369    -372      25
     591     600    -594    -597      25     555     564    -558    -561      25
     675     684    -678    -681      25     639     648    -642    -645      25
     759     768    -762    -765      25     723     732    -726    -729      25
     843     852    -846    -849      25     807     816    -810    -813      25
     927     936    -930    -933      25     891     900    -894    -897      25
    1011    1020   -1014   -1017      25     975     984    -978    -981      25
    1095    1104   -1098   -1101      25    1059    1068   -1062   -1065      25
    1179    1188   -1182   -1185      25    1143    1152   -1146   -1149      25
    1263    1272   -1266   -1269      25    1227    1236   -1230   -1233      25
    1347    1356   -1350   -1353      25    1311    1320   -1314   -1317      25
    1431    1440   -1434   -1437      25    1395    1404   -1398   -1401      25
    1515    1524   -1518   -1521      25    1479    1488   -1482   -1485      25
    1599    1608   -1602   -1605      25    1563    1572   -1566   -1569      25
    1683    1692   -1686   -1689      25    1647    1656   -1650   -1653      25
    1767    1776   -1770   -1773      25    1731    1740   -1734   -1737      25
    1851    1860   -1854   -1857      25    1815    1824   -1818   -1821      25
    1935    1944   -1938   -1941      25    1899    1908   -1902   -1905      25
    2019    2028   -2022   -2025      25    1983    1992   -1986   -1989      25
    2208    2217   -2211   -2214      25    2172    2181   -2175   -2178      25
    2292    2301   -2295   -2298      25    2256    2265   -2259   -2262      25
    2586    2595   -2589   -2592      25    2550    2559   -2553   -2556      25
%FLAG EXCLUDED_ATOMS_LIST                                                       
%FORMAT(10I8)                                                                   
       2       3       4       5       6       7       3       4       5       4
       5       5       6       7       8      12       6       7       8       9
      11      12      13      14       7       8      12       8       9      10
      11      12      13      14      15      16       9      10      11      12
      13      14      16      17      10      11      12      14      15      16
      17      18      19      11      14      16      17      12      16      13
      14      15      16      17      14      15      16      15      16      17
      18      19      16      17      17      18      19      20      18      19
      20      21      22      23      19      20      20      21      22      23
      24      25      26      21      22      23      24      25      26      27
      28      29      22      23      24      25      26      23      24      25
      26      24      25      26      27      28      29      30      31      32
      25      26      27      28      29      26      27      28      29      27
      28      29      30      31      32      33      28      29      30      31
      32      29      30      31      32      30      31      32      33      34
      35      36      31      32      33      32      33      33      34      35
      36      37      38      39      34      35      36      37      38      39
      40      35      36      37      38      39      36      37      38      39
      37      38      39      40      41      42      43      38      39      40
      39      40      40      41      42      43      44      45      46      41
      42      43      44      45      46      47      42      43      44      45
      46      43      44      45      46      44      45      46      47      48
      49      50      45      46      47      46      47      47      48      49
      50      51      52      53      48      49      50      51      52      53
      54      49      50      51      52      53      50      51      52      53
      51      52      53      54      55      56      57      52      53      54
      53      54      54      55      56      57      58      59      60      55
      56      57      58      59      60      61      56      57      58      59
      60      57      58      59      60      58      59      60      61      62
      63      64      59      60      61      60      61      61      62      63
      64      65      66      67      62      63      64      65      66      67
      68      63      64      65      66      67      64      65      66      67
      65      66      67      68      69      70      66      67      68      67
      68      68      69      70      71      75      69      70      71      72
      74      75      76      77      70      71      75      71      72      73
      74      75      76      77      78      79      72      73      74      75
      76      77      79      80      73      74      75      77      78      79
      80      81      82      74      77      79      80      75      79      76
      77      78      79      80      77      78      79      78      79      80
      81      82      79      80      80      81      82      83      81      82
      83      84      85      86      82      83      83      84      85      86
      87      88      89      84      85      86      87      88      89      90
      91      92      85      86      87      88      89      86      87      88
      89      87      88      89      90      91      92      93      94      95
      88      89      90      91      92      89      90      91      92      90
      91      92      93      94      95      96      91      92      93      94
      95      92      93      94      95      93      94      95      96      97
      98      94      95      96      95      96      96      97      98      99
     103      97      98      99     100     102     103     104     105      98
      99     103      99     100     101     102     103     104     105     106
     107     100     101     102     103     104     105     107     108     101
     102     103     105     106     107     108     109     110     102     105
     107     108     103     107     104     105     106     107     108     105
     106     107     106     107     108     109     110     107     108     108
     109     110     111     109     110     111     112     113     114     110
     111     111     112     113     114     115     116     117     112     113
     114     115     116     117     118     119     120     113     114     115
     116     117     114     115     116     117     115     116     117     118
     119     120     121     122     123     116     117     118     119     120
     117     118     119     120     118     119     120     121     122     123
     124     119     120     121     122     123     120     121     122     123
     121     122     123     124     125     126     122     123     124     123
     124     124     125     126     127     131     125     126     127     128
     130     131     132     133     126     127     131     127     128     129
     130     131     132     133     134     135     128     129     130     131
     132     133     135     136     129     130     131     133     134     135
     136     137     138     130     133     135     136     131     135     132
     133     134     135     136     133     134     135     134     135     136
     137     138     135     136     136     137     138     139     137     138
     139     140     141     142     138     139     139     140     141     142
     143     144     145     140     141     142     143     144     145     146
     147     148     141     142     143     144     145     142     143     144
     145     143     144     145     146     147     148     149     150     151
     144     145     146     147     148     145     146     147     148     146
     147     148     149     150     151     152     147     148     149     150
     151     148     149     150     151     149     150     151     152     153
     154     155     150     151     152     151     152     152     153     154
     155     156     157     158     153     154     155     156     157     158
     159     154     155     156     157     158     155     156     157     158
     156     157     158     159     160     161     162     157     158     159
     158     159     159     160     161     162     163     164     165     160
     161     162     163     164     165     166     161     162     163     164
     165     162     163     164     165     163     164     165     166     167
     168     169     164     165     166     165     166     166     167     168
     169     170     171     172     167     168     169     170     171     172
     173     168     169     170     171     172     169     170     171     172
     170     171     172     173     174     175     176     171     172     173
     172     173     173     174     175     176     177     178     179     174
     175     176     177     178     179     180     175     176     177     178
     179     176     177     178     179     177     178     179     180     181
     182     183     178     179     180     179     180     180     181     182
     183     184     185     186     181     182     183     184     185     186
     187     182     183     184     185     186     183     184     185     186
     184     185     186     187     188     189     185     186     187     186
     187     187     188     189     190     194     188     189     190     191
     193     194     195     196     189     190     194     190     191     192
     193     194     195     196     197     198     191     192     193     194
     195     196     198     199     192     193     194     196     197     198
     199     200     201     193     196     198     199     194     198     195
     196     197     198     199     196     197     198     197     198     199
     200     201     198     199     199     200     201     202     200     201
     202     203     204     205     201     202     202     203     204     205
     206     207     208     203     204     205     206     207     208     209
     210     211     204     205     206     207     208     205     206     207
     208     206     207     208     209     210     211     212     213     214
     207     208     209     210     211     208     209     210     211     209
     210     211     212     213     214     215     210     211     212     213
     214     211     212     213     214     212     213     214     215     216
     217     213     214     215     214     215     215     216     217     218
     222     216     217     218     219     221     222     223     224     217
     218     222     218     219     220     221     222     223     224     225
     226     219     220     221     222     223     224     226     227     220
     221     222     224     225     226     227     228     229     221     224
     226     227     222     226     223     224     225     226     227     224
     225     226     225     226     227     228     229     226     227     227
     228     229     230     228     229     230     231     232     233     229
     230     230     231     232     233     234     235     236     231     232
     233     234     235     236     237     238     239     232     233     234
     235     236     233     234     235     236     234     235     236     237
     238     239     240     241     242     235     236     237     238     239
     236     237     238     239     237     238     239     240     241     242
     243     238     239     240     241     242     239     240     241     242
     240     241     242     243     244     245     241     242     243     242
     243     243     244     245     246     250     244     245     246     247
     249     250     251     252     245     246     250     246     247     248
     249     250     251     252     253     254     247     248     249     250
     251     252     254     255     248     249     250     252     253     254
     255     256     257     249     252     254     255     250     254     251
     252     253     254     255     252     253     254     253     254     255
     256     257     254     255     255     256     257     258     256     257
     258     259     260     261     257     258     258     259     260     261
     262     263     264     259     260     261     262     263     264     265
     266     267     260     261     262     263     264     261     262     263
     264     262     263     264     265     266     267     268     269     270
     263     264     265     266     267     264     265     266     267     265
     266     267     268     269     270     271     266     267     268     269
     270     267     268     269     270     268     269     270     271     272
     273     269     270     271     270     271     271     272     273     274
     278     272     273     274     275     277     278     279     280     273
     274     278     274     275     276     277     278     279     280     281
     282     275     276     277     278     279     280     282     283     276
     277     278     280     281     282     283     284     285     277     280
     282     283     278     282     279     280     281     282     283     280
     281     282     281     282     283     284     285     282     283     283
     284     285     286     284     285     286     287     288     289     285
     286     286     287     288     289     290     291     292     287     288
     289     290     291     292     293     294     295     288     289     290
     291     292     289     290     291     292     290     291     292     293
     294     295     296     297     298     291     292     293     294     295
     292     293     294     295     293     294     295     296     297     298
     299     294     295     296     297     298     295     296     297     298
     296     297     298     299     300     301     297     298     299     298
     299     299     300     301     302     306     300     301     302     303
     305     306     307     308     301     302     306     302     303     304
     305     306     307     308     309     310     303     304     305     306
     307     308     310     311     304     305     306     308     309     310
     311     312     313     305     308     310     311     306     310     307
     308     309     310     311     308     309     310     309     310     311
     312     313     310     311     311     312     313     314     312     313
     314     315     316     317     313     314     314     315     316     317
     318     319     320     315     316     317     318     319     320     321
     322     323     316     317     318     319     320     317     318     319
     320     318     319     320     321     322     323     324     325     326
     319     320     321     322     323     320     321     322     323     321
     322     323     324     325     326     327     322     323     324     325
     326     323     324     325     326     324     325     326     327     328
     329     325     326     327     326     327     327     328     329     330
     334     328     329     330     331     333     334     335     336     329
     330     334     330     331     332     333     334     335     336     337
     338     331     332     333     334     335     336     338     339     332
     333     334     336     337     338     339     340     341     333     336
     338     339     334     338     335     336     337     338     339     336
     337     338     337     338     339     340     341     338     339     339
     340     341     342     340     341     342     343     344     345     341
     342     342     343     344     345     346     347     348     343     344
     345     346     347     348     349     350     351     344     345     346
     347     348     345     346     347     348     346     347     348     349
     350     351     352     353     354     347     348     349     350     351
     348     349     350     351     349     350     351     352     353     354
     355     350     351     352     353     354     351     352     353     354
     352     353     354     355     356     357     353     354     355     354
     355     355     356     357     358     362     356     357     358     359
     361     362     363     364     357     358     362     358     359     360
     361     362     363     364     365     366     359     360     361     362
     363     364     366     367     360     361     362     364     365     366
     367     368     369     361     364     366     367     362     366     363
     364     365     366     367     364     365     366     365     366     367
     368     369     366     367     367     368     369     370     368     369
     370     371     372     373     369     370     370     371     372     373
     374     375     376     371     372     373     374     375     376     377
     378     379     372     373     374     375     376     373     374     375
     376     374     375     376     377     378     379     380     381     382
     375     376     377     378     379     376     377     378     379     377
     378     379     380     381     382     383     378     379     380     381
     382     379     380     381     382     380     381     382     383     384
     385     381     382     383     382     383     383     384     385     386
     390     384     385     386     387     389     390     391     392     385
     386     390     386     387     388     389     390     391     392     393
     394     387     388     389     390     391     392     394     395     388
     389     390     392     393     394     395     396     397     389     392
     394     395     390     394     391     392     393     394     395     392
     393     394     393     394     395     396     397     394     395     395
     396     397     398     396     397     398     399     400     401     397
     398     398     399     400     401     402     403     404     399     400
     401     402     403     404     405     406     407     400     401     402
     403     404     401     402     403     404     402     403     404     405
     406     407     408     409     410     403     404     405     406     407
     404     405     406     407     405     406     407     408     409     410
     411     406     407     408     409     410     407     408     409     410
     408     409     410     411     412     413     409     410     411     410
     411     411     412     413     414     418     412     413     414     415
     417     418     419     420     413     414     418     414     415     416
     417     418     419     420     421     422     415     416     417     418
     419     420     422     423     416     417     418     420     421     422
     423     424     425     417     420     422     423     418     422     419
     420     421     422     423     420     421     422     421     422     423
     424     425     422     423     423     424     425     426     424     425
     426     427     428     429     425     426     426     427     428     429
     430     431     432     427     428     429     430     431     432     433
     434     435     428     429     430     431     432     429     430     431
     432     430     431     432     433     434     435     436     437     438
     431     432     433     434     435     432     433     434     435     433
     434     435     436     437     438     439     434     435     436     437
     438     435     436     437     438     436     437     438     439     440
     441     437     438     439     438     439     439     440     441     442
     446     440     441     442     443     445     446     447     448     441
     442     446     442     443     444     445     446     447     448     449
     450     443     444     445     446     447     448     450     451     444
     445     446     448     449     450     451     452     453     445     448
     450     451     446     450     447     448     449     450     451     448
     449     450     449     450     451     452     453     450     451     451
     452     453     454     452     453     454     455     456     457     453
     454     454     455     456     457     458     459     460     455     456
     457     458     459     460     461     462     463     456     457     458
     459     460     457     458     459     460     458     459     460     461
     462     463     464     465     466     459     460     461     462     463
     460     461     462     463     461     462     463     464     465     466
     467     462     463     464     465     466     463     464     465     466
     464     465     466     467     468     469     465     466     467     466
     467     467     468     469     470     474     468     469     470     471
     473     474     475     476     469     470     474     470     471     472
     473     474     475     476     477     478     471     472     473     474
     475     476     478     479     472     473     474     476     477     478
     479     480     481     473     476     478     479     474     478     475
     476     477     478     479     476     477     478     477     478     479
     480     481     478     479     479     480     481     482     480     481
     482     483     484     485     481     482     482     483     484     485
     486     487     488     483     484     485     486     487     488     489
     490     491     484     485     486     487     488     485     486     487
     488     486     487     488     489     490     491     492     493     494
     487     488     489     490     491     488     489     490     491     489
     490     491     492     493     494     495     490     491     492     493
     494     491     492     493     494     492     493     494     495     496
     497     493     494     495     494     495     495     496     497     498
     502     496     497     498     499     501     502     503     504     497
     498     502     498     499     500     501     502     503     504     505
     506     499     500     501     502     503     504     506     507     500
     501     502     504     505     506     507     508     509     501     504
     506     507     502     506     503     504     505     506     507     504
     505     506     505     506     507     508     509     506     507     507
     508     509     510     508     509     510     511     512     513     509
     510     510     511     512     513     514     515     516     511     512
     513     514     515     516     517     518     519     512     513     514
     515     516     513     514     515     516     514     515     516     517
     518     519     520     521     522     515     516     517     518     519
     516     517     518     519     517     518     519     520     521     522
     523     518     519     520     521     522     519     520     521     522
     520     521     522     523     524     525     521     522     523     522
     523     523     524     525     526     530     524     525     526     527
     529     530     531     532     525     526     530     526     527     528
     529     530     531     532     533     534     527     528     529     530
     531     532     534     535     528     529     530     532     533     534
     535     536     537     529     532     534     535     530     534     531
     532     533     534     535     532     533     534     533     534     535
     536     537     534     535     535     536     537     538     536     537
     538     539     540     541     537     538     538     539     540     541
     542     543     544     539     540     541     542     543     544     545
     546     547     540     541     542     543     544     541     542     543
     544     542     543     544     545     546     547     548     549     550
     543     544     545     546     547     544     545     546     547     545
     546     547     548     549     550     551     546     547     548     549
     550     547     548     549     550     548     549     550     551     552
     553     549     550     551     550     551     551     552     553     554
     558     552     553     554     555     557     558     559     560     553
     554     558     554     555     556     557     558     559     560     561
     562     555     556     557     558     559     560     562     563     556
     557     558     560     561     562     563     564     565     557     560
     562     563     558     562     559     560     561     562     563     560
     561     562     561     562     563     564     565     562     563     563
     564     565     566     564     565     566     567     568     569     565
     566     566     567     568     569     570     571     572     567     568
     569     570     571     572     573     574     575     568     569     570
     571     572     569     570     571     572     570     571     572     573
     574     575     576     577     578     571     572     573     574     575
     572     573     574     575     573     574     575     576     577     578
     579     574     575     576     577     578     575     576     577     578
     576     577     578     579     580     581     577     578     579     578
     579     579     580     581     582     586     580     581     582     583
     585     586     587     588     581     582     586     582     583     584
     585     586     587     588     589     590     583     584     585     586
     587     588     590     591     584     585     586     588     589     590
     591     592     593     585     588     590     591     586     590     587
     588     589     590     591     588     589     590     589     590     591
     592     593     590     591     591     592     593     594     592     593
     594     595     596     597     593     594     594     595     596     597
     598     599     600     595     596     597     598     599     600     601
     602     603     596     597     598     599     600     597     598     599
     600     598     599     600     601     602     603     604     605     606
     599     600     601     602     603     600     601     602     603     601
     602     603     604     605     606     607     602     603     604     605
     606     603     604     605     606     604     605     606     607     608
     609     605     606     607     606     607     607     608     609     610
     614     608     609     610     611     613     614     615     616     609
     610     614     610     611     612     613     614     615     616     617
     618     611     612     613     614     615     616     618     619     612
     613     614     616     617     618     619     620     621     613     616
     618     619     614     618     615     616     617     618     619     616
     617     618     617     618     619     620     621     618     619     619
     620     621     622     620     621     622     623     624     625     621
     622     622     623     624     625     626     627     628     623     624
     625     626     627     628     629     630     631     624     625     626
     627     628     625     626     627     628     626     627     628     629
     630     631     632     633     634     627     628     629     630     631
     628     629     630     631     629     630     631     632     633     634
     635     630     631     632     633     634     631     632     633     634
     632     633     634     635     636     637     633     634     635     634
     635     635     636     637     638     642     636     637     638     639
     641     642     643     644     637     638     642     638     639     640
     641     642     643     644     645     646     639     640     641     642
     643     644     646     647     640     641     642     644     645     646
     647     648     649     641     644     646     647     642     646     643
     644     645     646     647     644     645     646     645     646     647
     648     649     646     647     647     648     649     650     648     649
     650     651     652     653     649     650     650     651     652     653
     654     655     656     651     652     653     654     655     656     657
     658     659     652     653     654     655     656     653     654     655
     656     654     655     656     657     658     659     660     661     662
     655     656     657     658     659     656     657     658     659     657
     658     659     660     661     662     663     658     659     660     661
     662     659     660     661     662     660     661     662     663     664
     665     661     662     663     662     663     663     664     665     666
     670     664     665     666     667     669     670     671     672     665
     666     670     666     667     668     669     670     671     672     673
     674     667     668     669     670     671     672     674     675     668
     669     670     672     673     674     675     676     677     669     672
     674     675     670     674     671     672     673     674     675     672
     673     674     673     674     675     676     677     674     675     675
     676     677     678     676     677     678     679     680     681     677
     678     678     679     680     681     682     683     684     679     680
     681     682     683     684     685     686     687     680     681     682
     683     684     681     682     683     684     682     683     684     685
     686     687     688     689     690     683     684     685     686     687
     684     685     686     687     685     686     687     688     689     690
     691     686     687     688     689     690     687     688     689     690
     688     689     690     691     692     693     694     689     690     691
     690     691     691     692     693     694     695     696     697     692
     693     694     695     696     697     698     693     694     695     696
     697     694     695     696     697     695     696     697     698     699
     700     701     696     697     698     697     698     698     699     700
     701     702     703     704     699     700     701     702     703     704
     705     700     701     702     703     704     701     702     703     704
     702     703     704     705     706     707     708     703     704     705
     704     705     705     706     707     708     709     710     711     706
     707     708     709     710     711     712     707     708     709     710
     711     708     709     710     711     709     710     711     712     713
     714     715     710     711     712     711     712     712     713     714
     715     716     717     718     713     714     715     716     717     718
     719     714     715     716     717     718     715     716     717     718
     716     717     718     719     720     721     722     717     718     719
     718     719     719     720     721     722     723     724     725     720
     721     722     723     724     725     726     721     722     723     724
     725     722     723     724     725     723     724     725     726     727
     728     724     725     726     725     726     726     727     728     729
     733     727     728     729     730     732     733     734     735     728
     729     733     729     730     731     732     733     734     735     736
     737     730     731     732     733     734     735     737     738     731
     732     733     735     736     737     738     739     740     732     735
     737     738     733     737     734     735     736     737     738     735
     736     737     736     737     738     739     740     737     738     738
     739     740     741     739     740     741     742     743     744     740
     741     741     742     743     744     745     746     747     742     743
     744     745     746     747     748     749     750     743     744     745
     746     747     744     745     746     747     745     746     747     748
     749     750     751     752     753     746     747     748     749     750
     747     748     749     750     748     749     750     751     752     753
     754     749     750     751     752     753     750     751     752     753
     751     752     753     754     755     756     752     753     754     753
     754     754     755     756     757     761     755     756     757     758
     760     761     762     763     756     757     761     757     758     759
     760     761     762     763     764     765     758     759     760     761
     762     763     765     766     759     760     761     763     764     765
     766     767     768     760     763     765     766     761     765     762
     763     764     765     766     763     764     765     764     765     766
     767     768     765     766     766     767     768     769     767     768
     769     770     771     772     768     769     769     770     771     772
     773     774     775     770     771     772     773     774     775     776
     777     778     771     772     773     774     775     772     773     774
     775     773     774     775     776     777     778     779     780     781
     774     775     776     777     778     775     776     777     778     776
     777     778     779     780     781     782     777     778     779     780
     781     778     779     780     781     779     780     781     782     783
     784     785     780     781     782     781     782     782     783     784
     785     786     787     788     783     784     785     786     787     788
     789     784     785     786     787     788     785     786     787     788
     786     787     788     789     790     791     792     787     788     789
     788     789     789     790     791     792     793     794     795     790
     791     792     793     794     795     796     791     792     793     794
     795     792     793     794     795     793     794     795     796     797
     798     799     794     795     796     795     796     796     797     798
     799     800     801     802     797     798     799     800     801     802
     803     798     799     800     801     802     799     800     801     802
     800     801     802     803     804     805     806     801     802     803
     802     803     803     804     805     806     807     808     809     804
     805     806     807     808     809     810     805     806     807     808
     809     806     807     808     809     807     808     809     810     811
     812     813     808     809     810     809     810     810     811     812
     813     814     815     816     811     812     813     814     815     816
     817     812     813     814     815     816     813     814     815     816
     814     815     816     817     818     819     820     815     816     817
     816     817     817     818     819     820     821     822     823     818
     819     820     821     822     823     824     819     820     821     822
     823     820     821     822     823     821     822     823     824     825
     826     827     822     823     824     823     824     824     825     826
     827     828     829     830     825     826     827     828     829     830
     831     826     827     828     829     830     827     828     829     830
     828     829     830     831     832     833     834     829     830     831
     830     831     831     832     833     834     835     836     837     832
     833     834     835     836     837     838     833     834     835     836
     837     834     835     836     837     835     836     837     838     839
     840     841     836     837     838     837     838     838     839     840
     841     842     843     844     839     840     841     842     843     844
     845     840     841     842     843     844     841     842     843     844
     842     843     844     845     846     847     848     843     844     845
     844     845     845     846     847     848     849     850     851     846
     847     848     849     850     851     852     847     848     849     850
     851     848     849     850     851     849     850     851     852     853
     854     850     851     852     851     852     852     853     854     855
     859     853     854     855     856     858     859     860     861     854
     855     859     855     856     857     858     859     860     861     862
     863     856     857     858     859     860     861     863     864     857
     858     859     861     862     863     864     865     866     858     861
     863     864     859     863     860     861     862     863     864     861
     862     863     862     863     864     865     866     863     864     864
     865     866     867     865     866     867     868     869     870     866
     867     867     868     869     870     871     872     873     868     869
     870     871     872     873     874     875     869     870     871     872
     873     870     871     872     873     871     872     873     874     875
     872     873     874     875     873     874     875     874     875     875
       0
%FLAG HBOND_ACOEF                                                               
%FORMAT(5E16.8)                                                                 

%FLAG HBOND_BCOEF                                                               
%FORMAT(5E16.8)                                                                 

%FLAG HBCUT                                                                     
%FORMAT(5E16.8)                                                                 

%FLAG AMBER_ATOM_TYPE                                                           
%FORMAT(20a4)                                                                   
c3  h1  h1  os  c   o   ca  ca  ca  ha  ha  ca  ha  ca  ha  ca  c   o   os  c3  
h1  h1  c3  hc  hc  c3  hc  hc  c3  h1  h1  os  c3  h1  h1  c3  h1  h1  os  c3  
h1  h1  c3  h1  h1  os  c3  h1  h1  c3  h1  h1  os  c3  h1  h1  c3  h1  h1  os  
c3  h1  h1  c3  h1  h1  os  c   o   ca  ca  ca  ha  ha  ca  ha  ca  ha  ca  c   
o   os  c3  h1  h1  c3  hc  hc  c3  hc  hc  c3  h1  h1  os  c   o   ca  ca  ca  
ha  ha  ca  ha  ca  ha  ca  c   o   os  c3  h1  h1  c3  hc  hc  c3  hc  hc  c3  
h1  h1  os  c   o   ca  ca  ca  ha  ha  ca  ha  ca  ha  ca  c   o   os  c3  h1  
h1  c3  hc  hc  c3  hc  hc  c3  h1  h1  os  c3  h1  h1  c3  h1  h1  os  c3  h1  
h1  c3  h1  h1  os  c3  h1  h1  c3  h1  h1  os  c3  h1  h1  c3  h1  h1  os  c3  
h1  h1  c3  h1  h1  os  c   o   ca  ca  ca  ha  ha  ca  ha  ca  ha  ca  c   o   
os  c3  h1  h1  c3  hc  hc  c3  hc  hc  c3  h1  h1  os  c   o   ca  ca  ca  ha  
ha  ca  ha  ca  ha  ca  c   o   os  c3  h1  h1  c3  hc  hc  c3  hc  hc  c3  h1  
h1  os  c   o   ca  ca  ca  ha  ha  ca  ha  ca  ha  ca  c   o   os  c3  h1  h1  
c3  hc  hc  c3  hc  hc  c3  h1  h1  os  c   o   ca  ca  ca  ha  ha  ca  ha  ca  
ha  ca  c   o   os  c3  h1  h1  c3  hc  hc  c3  hc  hc  c3  h1  h1  os  c   o   
ca  ca  ca  ha  ha  ca  ha  ca  ha  ca  c   o   os  c3  h1  h1  c3  hc  hc  c3  
hc  hc  c3  h1  h1  os  c   o   ca  ca  ca  ha  ha  ca  ha  ca  ha  ca  c   o   
os  c3  h1  h1  c3  hc  hc  c3  hc  hc  c3  h1  h1  os  c   o   ca  ca  ca  ha  
ha  ca  ha  ca  ha  ca  c   o   os  c3  h1  h1  c3  hc  hc  c3  hc  hc  c3  h1  
h1  os  c   o   ca  ca  ca  ha  ha  ca  ha  ca  ha  ca  c   o   os  c3  h1  h1  
c3  hc  hc  c3  hc  hc  c3  h1  h1  os  c   o   ca  ca  ca  ha  ha  ca  ha  ca  
ha  ca  c   o   os  c3  h1  h1  c3  hc  hc  c3  hc  hc  c3  h1  h1  os  c   o   
ca  ca  ca  ha  ha  ca  ha  ca  ha  ca  c   o   os  c3  h1  h1  c3  hc  hc  c3  
hc  hc  c3  h1  h1  os  c   o   ca  ca  ca  ha  ha  ca  ha  ca  ha  ca  c   o   
os  c3  h1  h1  c3  hc  hc  c3  hc  hc  c3  h1  h1  os  c   o   ca  ca  ca  ha  
ha  ca  ha  ca  ha  ca  c   o   os  c3  h1  h1  c3  hc  hc  c3  hc  hc  c3  h1  
h1  os  c   o   ca  ca  ca  ha  ha  ca  ha  ca  ha  ca  c   o   os  c3  h1  h1  
c3  hc  hc  c3  hc  hc  c3  h1  h1  os  c   o   ca  ca  ca  ha  ha  ca  ha  ca  
ha  ca  c   o   os  c3  h1  h1  c3  hc  hc  c3  hc  hc  c3  h1  h1  os  c   o   
ca  ca  ca  ha  ha  ca  ha  ca  ha  ca  c   o   os  c3  h1  h1  c3  hc  hc  c3  
hc  hc  c3  h1  h1  os  c   o   ca  ca  ca  ha  ha  ca  ha  ca  ha  ca  c   o   
os  c3  h1  h1  c3  hc  hc  c3  hc  hc  c3  h1  h1  os  c   o   ca  ca  ca  ha  
ha  ca  ha  ca  ha  ca  c   o   os  c3  h1  h1  c3  hc  hc  c3  hc  hc  c3  h1  
h1  os  c   o   ca  ca  ca  ha  ha  ca  ha  ca  ha  ca  c   o   os  c3  h1  h1  
c3  hc  hc  c3  hc  hc  c3  h1  h1  os  c3  h1  h1  c3  h1  h1  os  c3  h1  h1  
c3  h1  h1  os  c3  h1  h1  c3  h1  h1  os  c3  h1  h1  c3  h1  h1  os  c3  h1  
h1  c3  h1  h1  os  c   o   ca  ca  ca  ha  ha  ca  ha  ca  ha  ca  c   o   os  
c3  h1  h1  c3  hc  hc  c3  hc  hc  c3  h1  h1  os  c   o   ca  ca  ca  ha  ha  
ca  ha  ca  ha  ca  c   o   os  c3  h1  h1  c3  hc  hc  c3  hc  hc  c3  h1  h1  
os  c3  h1  h1  c3  h1  h1  os  c3  h1  h1  c3  h1  h1  os  c3  h1  h1  c3  h1  
h1  os  c3  h1  h1  c3  h1  h1  os  c3  h1  h1  c3  h1  h1  os  c3  h1  h1  c3  
h1  h1  os  c3  h1  h1  c3  h1  h1  os  c3  h1  h1  c3  h1  h1  os  c3  h1  h1  
c3  h1  h1  os  c3  h1  h1  c3  h1  h1  os  c   o   ca  ca  ca  ha  ha  ca  ha  
ca  ha  ca  c   o   os  c3  h1  h1  c3  hc  hc  c3  hc  hc  
%FLAG TREE_CHAIN_CLASSIFICATION                                                 
%FORMAT(20a4)                                                                   
M   E   E   M   M   E   M   B   S   E   E   M   E   M   E   M   M   E   M   M   
E   E   M   E   E   M   E   E   M   E   E   M   M   E   E   M   E   E   M   M   
E   E   M   E   E   M   M   E   E   M   E   E   M   M   E   E   M   E   E   M   
M   E   E   M   E   E   M   M   E   M   B   S   E   E   M   E   M   E   M   M   
E   M   M   E   E   M   E   E   M   E   E   M   E   E   M   M   E   M   B   S   
E   E   M   E   M   E   M   M   E   M   M   E   E   M   E   E   M   E   E   M   
E   E   M   M   E   M   B   S   E   E   M   E   M   E   M   M   E   M   M   E   
E   M   E   E   M   E   E   M   E   E   M   M   E   E   M   E   E   M   M   E   
E   M   E   E   M   M   E   E   M   E   E   M   M   E   E   M   E   E   M   M   
E   E   M   E   E   M   M   E   M   B   S   E   E   M   E   M   E   M   M   E   
M   M   E   E   M   E   E   M   E   E   M   E   E   M   M   E   M   B   S   E   
E   M   E   M   E   M   M   E   M   M   E   E   M   E   E   M   E   E   M   E   
E   M   M   E   M   B   S   E   E   M   E   M   E   M   M   E   M   M   E   E   
M   E   E   M   E   E   M   E   E   M   M   E   M   B   S   E   E   M   E   M   
E   M   M   E   M   M   E   E   M   E   E   M   E   E   M   E   E   M   M   E   
M   B   S   E   E   M   E   M   E   M   M   E   M   M   E   E   M   E   E   M   
E   E   M   E   E   M   M   E   M   B   S   E   E   M   E   M   E   M   M   E   
M   M   E   E   M   E   E   M   E   E   M   E   E   M   M   E   M   B   S   E   
E   M   E   M   E   M   M   E   M   M   E   E   M   E   E   M   E   E   M   E   
E   M   M   E   M   B   S   E   E   M   E   M   E   M   M   E   M   M   E   E   
M   E   E   M   E   E   M   E   E   M   M   E   M   B   S   E   E   M   E   M   
E   M   M   E   M   M   E   E   M   E   E   M   E   E   M   E   E   M   M   E   
M   B   S   E   E   M   E   M   E   M   M   E   M   M   E   E   M   E   E   M   
E   E   M   E   E   M   M   E   M   B   S   E   E   M   E   M   E   M   M   E   
M   M   E   E   M   E   E   M   E   E   M   E   E   M   M   E   M   B   S   E   
E   M   E   M   E   M   M   E   M   M   E   E   M   E   E   M   E   E   M   E   
E   M   M   E   M   B   S   E   E   M   E   M   E   M   M   E   M   M   E   E   
M   E   E   M   E   E   M   E   E   M   M   E   M   B   S   E   E   M   E   M   
E   M   M   E   M   M   E   E   M   E   E   M   E   E   M   E   E   M   M   E   
M   B   S   E   E   M   E   M   E   M   M   E   M   M   E   E   M   E   E   M   
E   E   M   E   E   M   M   E   M   B   S   E   E   M   E   M   E   M   M   E   
M   M   E   E   M   E   E   M   E   E   M   E   E   M   M   E   M   B   S   E   
E   M   E   M   E   M   M   E   M   M   E   E   M   E   E   M   E   E   M   E   
E   M   M   E   M   B   S   E   E   M   E   M   E   M   M   E   M   M   E   E   
M   E   E   M   E   E   M   E   E   M   M   E   E   M   E   E   M   M   E   E   
M   E   E   M   M   E   E   M   E   E   M   M   E   E   M   E   E   M   M   E   
E   M   E   E   M   M   E   M   B   S   E   E   M   E   M   E   M   M   E   M   
M   E   E   M   E   E   M   E   E   M   E   E   M   M   E   M   B   S   E   E   
M   E   M   E   M   M   E   M   M   E   E   M   E   E   M   E   E   M   E   E   
M   M   E   E   M   E   E   M   M   E   E   M   E   E   M   M   E   E   M   E   
E   M   M   E   E   M   E   E   M   M   E   E   M   E   E   M   M   E   E   M   
E   E   M   M   E   E   M   E   E   M   M   E   E   M   E   E   M   M   E   E   
M   E   E   M   M   E   E   M   E   E   M   M   E   M   B   S   E   E   M   E   
M   E   M   M   E   M   M   E   E   M   E   E   M   E   E   
%FLAG JOIN_ARRAY                                                                
%FORMAT(10I8)                                                                   
       0       0       0       0       0       0       0       0       0       0
       0       0       0       0       0       0       0       0       0       0
       0       0       0       0       0       0       0       0       0       0
       0       0       0       0       0       0       0       0       0       0
       0       0       0       0       0       0       0       0       0       0
       0       0       0       0       0       0       0       0       0       0
       0       0       0       0       0       0       0       0       0       0
       0       0       0       0       0       0       0       0       0       0
       0       0       0       0       0       0       0       0       0       0
       0       0       0       0       0       0       0       0       0       0
       0       0       0       0       0       0       0       0       0       0
       0       0       0       0       0       0       0       0       0       0
       0       0       0       0       0       0       0       0       0       0
       0       0       0       0       0       0       0       0       0       0
       0       0       0       0       0       0       0       0       0       0
       0       0       0       0       0       0       0       0       0       0
       0       0       0       0       0       0       0       0       0       0
       0       0       0       0       0       0       0       0       0       0
       0       0       0       0       0       0       0       0       0       0
       0       0       0       0       0       0       0       0       0       0
       0       0       0       0       0       0       0       0       0       0
       0       0       0       0       0       0       0       0       0       0
       0       0       0       0       0       0       0       0       0       0
       0       0       0       0       0       0       0       0       0       0
       0       0       0       0       0       0       0       0       0       0
       0       0       0       0       0       0       0       0       0       0
       0       0       0       0       0       0       0       0       0       0
       0       0       0       0       0       0       0       0       0       0
       0       0       0       0       0       0       0       0       0       0
       0       0       0       0       0       0       0       0       0       0
       0       0       0       0       0       0       0       0       0       0
       0       0       0       0       0       0       0       0       0       0
       0       0       0       0       0       0       0       0       0       0
       0       0       0       0       0       0       0       0       0       0
       0       0       0       0       0       0       0       0       0       0
       0       0       0       0       0       0       0       0       0       0
       0       0       0       0       0       0       0       0       0       0
       0       0       0       0       0       0       0       0       0       0
       0       0       0       0       0       0       0       0       0       0
       0       0       0       0       0       0       0       0       0       0
       0       0       0       0       0       0       0       0       0       0
       0       0       0       0       0       0       0       0       0       0
       0       0       0       0       0       0       0       0       0       0
       0       0       0       0       0       0       0       0       0       0
       0       0       0       0       0       0       0       0       0       0
       0       0       0       0       0       0       0       0       0       0
       0       0       0       0       0       0       0       0       0       0
       0       0       0       0       0       0       0       0       0       0
       0       0       0       0       0       0       0       0       0       0
       0       0       0       0       0       0       0       0       0       0
       0       0       0       0       0       0       0       0       0       0
       0       0       0       0       0       0       0       0       0       0
       0       0       0       0       0       0       0       0       0       0
       0       0       0       0       0       0       0       0       0       0
       0       0       0       0       0       0       0       0       0       0
       0       0       0       0       0       0       0       0       0       0
       0       0       0       0       0       0       0       0       0       0
       0       0       0       0       0       0       0       0       0       0
       0       0       0       0       0       0       0       0       0       0
       0       0       0       0       0       0       0       0       0       0
       0       0       0       0       0       0       0       0       0       0
       0       0       0       0       0       0       0       0       0       0
       0       0       0       0       0       0       0       0       0       0
       0       0       0       0       0       0       0       0       0       0
       0       0       0       0       0       0       0       0       0       0
       0       0       0       0       0       0       0       0       0       0
       0       0       0       0       0       0       0       0       0       0
       0       0       0       0       0       0       0       0       0       0
       0       0       0       0       0       0       0       0       0       0
       0       0       0       0       0       0       0       0       0       0
       0       0       0       0       0       0       0       0       0       0
       0       0       0       0       0       0       0       0       0       0
       0       0       0       0       0       0       0       0       0       0
       0       0       0       0       0       0       0       0       0       0
       0       0       0       0       0       0       0       0       0       0
       0       0       0       0       0       0       0       0       0       0
       0       0       0       0       0       0       0       0       0       0
       0       0       0       0       0       0       0       0       0       0
       0       0       0       0       0       0       0       0       0       0
       0       0       0       0       0       0       0       0       0       0
       0       0       0       0       0       0       0       0       0       0
       0       0       0       0       0       0       0       0       0       0
       0       0       0       0       0       0       0       0       0       0
       0       0       0       0       0       0       0       0       0       0
       0       0       0       0       0       0       0       0       0       0
       0       0       0       0       0       0       0       0       0       0
       0       0       0       0       0       0       0       0       0       0
       0       0       0       0       0
%FLAG IROTAT                                                                    
%FORMAT(10I8)                                                                   
       0       0       0       0       0       0       0       0       0       0
       0       0       0       0       0       0       0       0       0       0
       0       0       0       0       0       0       0       0       0       0
       0       0       0       0       0       0       0       0       0       0
       0       0       0       0       0       0       0       0       0       0
       0       0       0       0       0       0       0       0       0       0
       0       0       0       0       0       0       0       0       0       0
       0       0       0       0       0       0       0       0       0       0
       0       0       0       0       0       0       0       0       0       0
       0       0       0       0       0       0       0       0       0       0
       0       0       0       0       0       0       0       0       0       0
       0       0       0       0       0       0       0       0       0       0
       0       0       0       0       0       0       0       0       0       0
       0       0       0       0       0       0       0       0       0       0
       0       0       0       0       0       0       0       0       0       0
       0       0       0       0       0       0       0       0       0       0
       0       0       0       0       0       0       0       0       0       0
       0       0       0       0       0       0       0       0       0       0
       0       0       0       0       0       0       0       0       0       0
       0       0       0       0       0       0       0       0       0       0
       0       0       0       0       0       0       0       0       0       0
       0       0       0       0       0       0       0       0       0       0
       0       0       0       0       0       0       0       0       0       0
       0       0       0       0       0       0       0       0       0       0
       0       0       0       0       0       0       0       0       0       0
       0       0       0       0       0       0       0       0       0       0
       0       0       0       0       0       0       0       0       0       0
       0       0       0       0       0       0       0       0       0       0
       0       0       0       0       0       0       0       0       0       0
       0       0       0       0       0       0       0       0       0       0
       0       0       0       0       0       0       0       0       0       0
       0       0       0       0       0       0       0       0       0       0
       0       0       0       0       0       0       0       0       0       0
       0       0       0       0       0       0       0       0       0       0
       0       0       0       0       0       0       0       0       0       0
       0       0       0       0       0       0       0       0       0       0
       0       0       0       0       0       0       0       0       0       0
       0       0       0       0       0       0       0       0       0       0
       0       0       0       0       0       0       0       0       0       0
       0       0       0       0       0       0       0       0       0       0
       0       0       0       0       0       0       0       0       0       0
       0       0       0       0       0       0       0       0       0       0
       0       0       0       0       0       0       0       0       0       0
       0       0       0       0       0       0       0       0       0       0
       0       0       0       0       0       0       0       0       0       0
       0       0       0       0       0       0       0       0       0       0
       0       0       0       0       0       0       0       0       0       0
       0       0       0       0       0       0       0       0       0       0
       0       0       0       0       0       0       0       0       0       0
       0       0       0       0       0       0       0       0       0       0
       0       0       0       0       0       0       0       0       0       0
       0       0       0       0       0       0       0       0       0       0
       0       0       0       0       0       0       0       0       0       0
       0       0       0       0       0       0       0       0       0       0
       0       0       0       0       0       0       0       0       0       0
       0       0       0       0       0       0       0       0       0       0
       0       0       0       0       0       0       0       0       0       0
       0       0       0       0       0       0       0       0       0       0
       0       0       0       0       0       0       0       0       0       0
       0       0       0       0       0       0       0       0       0       0
       0       0       0       0       0       0       0       0       0       0
       0       0       0       0       0       0       0       0       0       0
       0       0       0       0       0       0       0       0       0       0
       0       0       0       0       0       0       0       0       0       0
       0       0       0       0       0       0       0       0       0       0
       0       0       0       0       0       0       0       0       0       0
       0       0       0       0       0       0       0       0       0       0
       0       0       0       0       0       0       0       0       0       0
       0       0       0       0       0       0       0       0       0       0
       0       0       0       0       0       0       0       0       0       0
       0       0       0       0       0       0       0       0       0       0
       0       0       0       0       0       0       0       0       0       0
       0       0       0       0       0       0       0       0       0       0
       0       0       0       0       0       0       0       0       0       0
       0       0       0       0       0       0       0       0       0       0
       0       0       0       0       0       0       0       0       0       0
       0       0       0       0       0       0       0       0       0       0
       0       0       0       0       0       0       0       0       0       0
       0       0       0       0       0       0       0       0       0       0
       0       0       0       0       0       0       0       0       0       0
       0       0       0       0       0       0       0       0       0       0
       0       0       0       0       0       0       0       0       0       0
       0       0       0       0       0       0       0       0       0       0
       0       0       0       0       0       0       0       0       0       0
       0       0       0       0       0       0       0       0       0       0
       0       0       0       0       0       0       0       0       0       0
       0       0       0       0       0       0       0       0       0       0
       0       0       0       0       0
%FLAG RADIUS_SET                                                                
%FORMAT(1a80)                                                                   
modified Bondi radii (mbondi)                                                   
%FLAG RADII                                                                     
%FORMAT(5E16.8)                                                                 
  1.70000000E+00  1.30000000E+00  1.30000000E+00  1.50000000E+00  1.70000000E+00
  1.50000000E+00  1.70000000E+00  1.70000000E+00  1.70000000E+00  1.30000000E+00
  1.30000000E+00  1.70000000E+00  1.30000000E+00  1.70000000E+00  1.30000000E+00
  1.70000000E+00  1.70000000E+00  1.50000000E+00  1.50000000E+00  1.70000000E+00
  1.30000000E+00  1.30000000E+00  1.70000000E+00  1.30000000E+00  1.30000000E+00
  1.70000000E+00  1.30000000E+00  1.30000000E+00  1.70000000E+00  1.30000000E+00
  1.30000000E+00  1.50000000E+00  1.70000000E+00  1.30000000E+00  1.30000000E+00
  1.70000000E+00  1.30000000E+00  1.30000000E+00  1.50000000E+00  1.70000000E+00
  1.30000000E+00  1.30000000E+00  1.70000000E+00  1.30000000E+00  1.30000000E+00
  1.50000000E+00  1.70000000E+00  1.30000000E+00  1.30000000E+00  1.70000000E+00
  1.30000000E+00  1.30000000E+00  1.50000000E+00  1.70000000E+00  1.30000000E+00
  1.30000000E+00  1.70000000E+00  1.30000000E+00  1.30000000E+00  1.50000000E+00
  1.70000000E+00  1.30000000E+00  1.30000000E+00  1.70000000E+00  1.30000000E+00
  1.30000000E+00  1.50000000E+00  1.70000000E+00  1.50000000E+00  1.70000000E+00
  1.70000000E+00  1.70000000E+00  1.30000000E+00  1.30000000E+00  1.70000000E+00
  1.30000000E+00  1.70000000E+00  1.30000000E+00  1.70000000E+00  1.70000000E+00
  1.50000000E+00  1.50000000E+00  1.70000000E+00  1.30000000E+00  1.30000000E+00
  1.70000000E+00  1.30000000E+00  1.30000000E+00  1.70000000E+00  1.30000000E+00
  1.30000000E+00  1.70000000E+00  1.30000000E+00  1.30000000E+00  1.50000000E+00
  1.70000000E+00  1.50000000E+00  1.70000000E+00  1.70000000E+00  1.70000000E+00
  1.30000000E+00  1.30000000E+00  1.70000000E+00  1.30000000E+00  1.70000000E+00
  1.30000000E+00  1.70000000E+00  1.70000000E+00  1.50000000E+00  1.50000000E+00
  1.70000000E+00  1.30000000E+00  1.30000000E+00  1.70000000E+00  1.30000000E+00
  1.30000000E+00  1.70000000E+00  1.30000000E+00  1.30000000E+00  1.70000000E+00
  1.30000000E+00  1.30000000E+00  1.50000000E+00  1.70000000E+00  1.50000000E+00
  1.70000000E+00  1.70000000E+00  1.70000000E+00  1.30000000E+00  1.30000000E+00
  1.70000000E+00  1.30000000E+00  1.70000000E+00  1.30000000E+00  1.70000000E+00
  1.70000000E+00  1.50000000E+00  1.50000000E+00  1.70000000E+00  1.30000000E+00
  1.30000000E+00  1.70000000E+00  1.30000000E+00  1.30000000E+00  1.70000000E+00
  1.30000000E+00  1.30000000E+00  1.70000000E+00  1.30000000E+00  1.30000000E+00
  1.50000000E+00  1.70000000E+00  1.30000000E+00  1.30000000E+00  1.70000000E+00
  1.30000000E+00  1.30000000E+00  1.50000000E+00  1.70000000E+00  1.30000000E+00
  1.30000000E+00  1.70000000E+00  1.30000000E+00  1.30000000E+00  1.50000000E+00
  1.70000000E+00  1.30000000E+00  1.30000000E+00  1.70000000E+00  1.30000000E+00
  1.30000000E+00  1.50000000E+00  1.70000000E+00  1.30000000E+00  1.30000000E+00
  1.70000000E+00  1.30000000E+00  1.30000000E+00  1.50000000E+00  1.70000000E+00
  1.30000000E+00  1.30000000E+00  1.70000000E+00  1.30000000E+00  1.30000000E+00
  1.50000000E+00  1.70000000E+00  1.50000000E+00  1.70000000E+00  1.70000000E+00
  1.70000000E+00  1.30000000E+00  1.30000000E+00  1.70000000E+00  1.30000000E+00
  1.70000000E+00  1.30000000E+00  1.70000000E+00  1.70000000E+00  1.50000000E+00
  1.50000000E+00  1.70000000E+00  1.30000000E+00  1.30000000E+00  1.70000000E+00
  1.30000000E+00  1.30000000E+00  1.70000000E+00  1.30000000E+00  1.30000000E+00
  1.70000000E+00  1.30000000E+00  1.30000000E+00  1.50000000E+00  1.70000000E+00
  1.50000000E+00  1.70000000E+00  1.70000000E+00  1.70000000E+00  1.30000000E+00
  1.30000000E+00  1.70000000E+00  1.30000000E+00  1.70000000E+00  1.30000000E+00
  1.70000000E+00  1.70000000E+00  1.50000000E+00  1.50000000E+00  1.70000000E+00
  1.30000000E+00  1.30000000E+00  1.70000000E+00  1.30000000E+00  1.30000000E+00
  1.70000000E+00  1.30000000E+00  1.30000000E+00  1.70000000E+00  1.30000000E+00
  1.30000000E+00  1.50000000E+00  1.70000000E+00  1.50000000E+00  1.70000000E+00
  1.70000000E+00  1.70000000E+00  1.30000000E+00  1.30000000E+00  1.70000000E+00
  1.30000000E+00  1.70000000E+00  1.30000000E+00  1.70000000E+00  1.70000000E+00
  1.50000000E+00  1.50000000E+00  1.70000000E+00  1.30000000E+00  1.30000000E+00
  1.70000000E+00  1.30000000E+00  1.30000000E+00  1.70000000E+00  1.30000000E+00
  1.30000000E+00  1.70000000E+00  1.30000000E+00  1.30000000E+00  1.50000000E+00
  1.70000000E+00  1.50000000E+00  1.70000000E+00  1.70000000E+00  1.70000000E+00
  1.30000000E+00  1.30000000E+00  1.70000000E+00  1.30000000E+00  1.70000000E+00
  1.30000000E+00  1.70000000E+00  1.70000000E+00  1.50000000E+00  1.50000000E+00
  1.70000000E+00  1.30000000E+00  1.30000000E+00  1.70000000E+00  1.30000000E+00
  1.30000000E+00  1.70000000E+00  1.30000000E+00  1.30000000E+00  1.70000000E+00
  1.30000000E+00  1.30000000E+00  1.50000000E+00  1.70000000E+00  1.50000000E+00
  1.70000000E+00  1.70000000E+00  1.70000000E+00  1.30000000E+00  1.30000000E+00
  1.70000000E+00  1.30000000E+00  1.70000000E+00  1.30000000E+00  1.70000000E+00
  1.70000000E+00  1.50000000E+00  1.50000000E+00  1.70000000E+00  1.30000000E+00
  1.30000000E+00  1.70000000E+00  1.30000000E+00  1.30000000E+00  1.70000000E+00
  1.30000000E+00  1.30000000E+00  1.70000000E+00  1.30000000E+00  1.30000000E+00
  1.50000000E+00  1.70000000E+00  1.50000000E+00  1.70000000E+00  1.70000000E+00
  1.70000000E+00  1.30000000E+00  1.30000000E+00  1.70000000E+00  1.30000000E+00
  1.70000000E+00  1.30000000E+00  1.70000000E+00  1.70000000E+00  1.50000000E+00
  1.50000000E+00  1.70000000E+00  1.30000000E+00  1.30000000E+00  1.70000000E+00
  1.30000000E+00  1.30000000E+00  1.70000000E+00  1.30000000E+00  1.30000000E+00
  1.70000000E+00  1.30000000E+00  1.30000000E+00  1.50000000E+00  1.70000000E+00
  1.50000000E+00  1.70000000E+00  1.70000000E+00  1.70000000E+00  1.30000000E+00
  1.30000000E+00  1.70000000E+00  1.30000000E+00  1.70000000E+00  1.30000000E+00
  1.70000000E+00  1.70000000E+00  1.50000000E+00  1.50000000E+00  1.70000000E+00
  1.30000000E+00  1.30000000E+00  1.70000000E+00  1.30000000E+00  1.30000000E+00
  1.70000000E+00  1.30000000E+00  1.30000000E+00  1.70000000E+00  1.30000000E+00
  1.30000000E+00  1.50000000E+00  1.70000000E+00  1.50000000E+00  1.70000000E+00
  1.70000000E+00  1.70000000E+00  1.30000000E+00  1.30000000E+00  1.70000000E+00
  1.30000000E+00  1.70000000E+00  1.30000000E+00  1.70000000E+00  1.70000000E+00
  1.50000000E+00  1.50000000E+00  1.70000000E+00  1.30000000E+00  1.30000000E+00
  1.70000000E+00  1.30000000E+00  1.30000000E+00  1.70000000E+00  1.30000000E+00
  1.30000000E+00  1.70000000E+00  1.30000000E+00  1.30000000E+00  1.50000000E+00
  1.70000000E+00  1.50000000E+00  1.70000000E+00  1.70000000E+00  1.70000000E+00
  1.30000000E+00  1.30000000E+00  1.70000000E+00  1.30000000E+00  1.70000000E+00
  1.30000000E+00  1.70000000E+00  1.70000000E+00  1.50000000E+00  1.50000000E+00
  1.70000000E+00  1.30000000E+00  1.30000000E+00  1.70000000E+00  1.30000000E+00
  1.30000000E+00  1.70000000E+00  1.30000000E+00  1.30000000E+00  1.70000000E+00
  1.30000000E+00  1.30000000E+00  1.50000000E+00  1.70000000E+00  1.50000000E+00
  1.70000000E+00  1.70000000E+00  1.70000000E+00  1.30000000E+00  1.30000000E+00
  1.70000000E+00  1.30000000E+00  1.70000000E+00  1.30000000E+00  1.70000000E+00
  1.70000000E+00  1.50000000E+00  1.50000000E+00  1.70000000E+00  1.30000000E+00
  1.30000000E+00  1.70000000E+00  1.30000000E+00  1.30000000E+00  1.70000000E+00
  1.30000000E+00  1.30000000E+00  1.70000000E+00  1.30000000E+00  1.30000000E+00
  1.50000000E+00  1.70000000E+00  1.50000000E+00  1.70000000E+00  1.70000000E+00
  1.70000000E+00  1.30000000E+00  1.30000000E+00  1.70000000E+00  1.30000000E+00
  1.70000000E+00  1.30000000E+00  1.70000000E+00  1.70000000E+00  1.50000000E+00
  1.50000000E+00  1.70000000E+00  1.30000000E+00  1.30000000E+00  1.70000000E+00
  1.30000000E+00  1.30000000E+00  1.70000000E+00  1.30000000E+00  1.30000000E+00
  1.70000000E+00  1.30000000E+00  1.30000000E+00  1.50000000E+00  1.70000000E+00
  1.50000000E+00  1.70000000E+00  1.70000000E+00  1.70000000E+00  1.30000000E+00
  1.30000000E+00  1.70000000E+00  1.30000000E+00  1.70000000E+00  1.30000000E+00
  1.70000000E+00  1.70000000E+00  1.50000000E+00  1.50000000E+00  1.70000000E+00
  1.30000000E+00  1.30000000E+00  1.70000000E+00  1.30000000E+00  1.30000000E+00
  1.70000000E+00  1.30000000E+00  1.30000000E+00  1.70000000E+00  1.30000000E+00
  1.30000000E+00  1.50000000E+00  1.70000000E+00  1.50000000E+00  1.70000000E+00
  1.70000000E+00  1.70000000E+00  1.30000000E+00  1.30000000E+00  1.70000000E+00
  1.30000000E+00  1.70000000E+00  1.30000000E+00  1.70000000E+00  1.70000000E+00
  1.50000000E+00  1.50000000E+00  1.70000000E+00  1.30000000E+00  1.30000000E+00
  1.70000000E+00  1.30000000E+00  1.30000000E+00  1.70000000E+00  1.30000000E+00
  1.30000000E+00  1.70000000E+00  1.30000000E+00  1.30000000E+00  1.50000000E+00
  1.70000000E+00  1.50000000E+00  1.70000000E+00  1.70000000E+00  1.70000000E+00
  1.30000000E+00  1.30000000E+00  1.70000000E+00  1.30000000E+00  1.70000000E+00
  1.30000000E+00  1.70000000E+00  1.70000000E+00  1.50000000E+00  1.50000000E+00
  1.70000000E+00  1.30000000E+00  1.30000000E+00  1.70000000E+00  1.30000000E+00
  1.30000000E+00  1.70000000E+00  1.30000000E+00  1.30000000E+00  1.70000000E+00
  1.30000000E+00  1.30000000E+00  1.50000000E+00  1.70000000E+00  1.50000000E+00
  1.70000000E+00  1.70000000E+00  1.70000000E+00  1.30000000E+00  1.30000000E+00
  1.70000000E+00  1.30000000E+00  1.70000000E+00  1.30000000E+00  1.70000000E+00
  1.70000000E+00  1.50000000E+00  1.50000000E+00  1.70000000E+00  1.30000000E+00
  1.30000000E+00  1.70000000E+00  1.30000000E+00  1.30000000E+00  1.70000000E+00
  1.30000000E+00  1.30000000E+00  1.70000000E+00  1.30000000E+00  1.30000000E+00
  1.50000000E+00  1.70000000E+00  1.50000000E+00  1.70000000E+00  1.70000000E+00
  1.70000000E+00  1.30000000E+00  1.30000000E+00  1.70000000E+00  1.30000000E+00
  1.70000000E+00  1.30000000E+00  1.70000000E+00  1.70000000E+00  1.50000000E+00
  1.50000000E+00  1.70000000E+00  1.30000000E+00  1.30000000E+00  1.70000000E+00
  1.30000000E+00  1.30000000E+00  1.70000000E+00  1.30000000E+00  1.30000000E+00
  1.70000000E+00  1.30000000E+00  1.30000000E+00  1.50000000E+00  1.70000000E+00
  1.50000000E+00  1.70000000E+00  1.70000000E+00  1.70000000E+00  1.30000000E+00
  1.30000000E+00  1.70000000E+00  1.30000000E+00  1.70000000E+00  1.30000000E+00
  1.70000000E+00  1.70000000E+00  1.50000000E+00  1.50000000E+00  1.70000000E+00
  1.30000000E+00  1.30000000E+00  1.70000000E+00  1.30000000E+00  1.30000000E+00
  1.70000000E+00  1.30000000E+00  1.30000000E+00  1.70000000E+00  1.30000000E+00
  1.30000000E+00  1.50000000E+00  1.70000000E+00  1.50000000E+00  1.70000000E+00
  1.70000000E+00  1.70000000E+00  1.30000000E+00  1.30000000E+00  1.70000000E+00
  1.30000000E+00  1.70000000E+00  1.30000000E+00  1.70000000E+00  1.70000000E+00
  1.50000000E+00  1.50000000E+00  1.70000000E+00  1.30000000E+00  1.30000000E+00
  1.70000000E+00  1.30000000E+00  1.30000000E+00  1.70000000E+00  1.30000000E+00
  1.30000000E+00  1.70000000E+00  1.30000000E+00  1.30000000E+00  1.50000000E+00
  1.70000000E+00  1.30000000E+00  1.30000000E+00  1.70000000E+00  1.30000000E+00
  1.30000000E+00  1.50000000E+00  1.70000000E+00  1.30000000E+00  1.30000000E+00
  1.70000000E+00  1.30000000E+00  1.30000000E+00  1.50000000E+00  1.70000000E+00
  1.30000000E+00  1.30000000E+00  1.70000000E+00  1.30000000E+00  1.30000000E+00
  1.50000000E+00  1.70000000E+00  1.30000000E+00  1.30000000E+00  1.70000000E+00
  1.30000000E+00  1.30000000E+00  1.50000000E+00  1.70000000E+00  1.30000000E+00
  1.30000000E+00  1.70000000E+00  1.30000000E+00  1.30000000E+00  1.50000000E+00
  1.70000000E+00  1.50000000E+00  1.70000000E+00  1.70000000E+00  1.70000000E+00
  1.30000000E+00  1.30000000E+00  1.70000000E+00  1.30000000E+00  1.70000000E+00
  1.30000000E+00  1.70000000E+00  1.70000000E+00  1.50000000E+00  1.50000000E+00
  1.70000000E+00  1.30000000E+00  1.30000000E+00  1.70000000E+00  1.30000000E+00
  1.30000000E+00  1.70000000E+00  1.30000000E+00  1.30000000E+00  1.70000000E+00
  1.30000000E+00  1.30000000E+00  1.50000000E+00  1.70000000E+00  1.50000000E+00
  1.70000000E+00  1.70000000E+00  1.70000000E+00  1.30000000E+00  1.30000000E+00
  1.70000000E+00  1.30000000E+00  1.70000000E+00  1.30000000E+00  1.70000000E+00
  1.70000000E+00  1.50000000E+00  1.50000000E+00  1.70000000E+00  1.30000000E+00
  1.30000000E+00  1.70000000E+00  1.30000000E+00  1.30000000E+00  1.70000000E+00
  1.30000000E+00  1.30000000E+00  1.70000000E+00  1.30000000E+00  1.30000000E+00
  1.50000000E+00  1.70000000E+00  1.30000000E+00  1.30000000E+00  1.70000000E+00
  1.30000000E+00  1.30000000E+00  1.50000000E+00  1.70000000E+00  1.30000000E+00
  1.30000000E+00  1.70000000E+00  1.30000000E+00  1.30000000E+00  1.50000000E+00
  1.70000000E+00  1.30000000E+00  1.30000000E+00  1.70000000E+00  1.30000000E+00
  1.30000000E+00  1.50000000E+00  1.70000000E+00  1.30000000E+00  1.30000000E+00
  1.70000000E+00  1.30000000E+00  1.30000000E+00  1.50000000E+00  1.70000000E+00
  1.30000000E+00  1.30000000E+00  1.70000000E+00  1.30000000E+00  1.30000000E+00
  1.50000000E+00  1.70000000E+00  1.30000000E+00  1.30000000E+00  1.70000000E+00
  1.30000000E+00  1.30000000E+00  1.50000000E+00  1.70000000E+00  1.30000000E+00
  1.30000000E+00  1.70000000E+00  1.30000000E+00  1.30000000E+00  1.50000000E+00
  1.70000000E+00  1.30000000E+00  1.30000000E+00  1.70000000E+00  1.30000000E+00
  1.30000000E+00  1.50000000E+00  1.70000000E+00  1.30000000E+00  1.30000000E+00
  1.70000000E+00  1.30000000E+00  1.30000000E+00  1.50000000E+00  1.70000000E+00
  1.30000000E+00  1.30000000E+00  1.70000000E+00  1.30000000E+00  1.30000000E+00
  1.50000000E+00  1.70000000E+00  1.50000000E+00  1.70000000E+00  1.70000000E+00
  1.70000000E+00  1.30000000E+00  1.30000000E+00  1.70000000E+00  1.30000000E+00
  1.70000000E+00  1.30000000E+00  1.70000000E+00  1.70000000E+00  1.50000000E+00
  1.50000000E+00  1.70000000E+00  1.30000000E+00  1.30000000E+00  1.70000000E+00
  1.30000000E+00  1.30000000E+00  1.70000000E+00  1.30000000E+00  1.30000000E+00
%FLAG SCREEN                                                                    
%FORMAT(5E16.8)                                                                 
  7.20000000E-01  8.50000000E-01  8.50000000E-01  8.50000000E-01  7.20000000E-01
  8.50000000E-01  7.20000000E-01  7.20000000E-01  7.20000000E-01  8.50000000E-01
  8.50000000E-01  7.20000000E-01  8.50000000E-01  7.20000000E-01  8.50000000E-01
  7.20000000E-01  7.20000000E-01  8.50000000E-01  8.50000000E-01  7.20000000E-01
  8.50000000E-01  8.50000000E-01  7.20000000E-01  8.50000000E-01  8.50000000E-01
  7.20000000E-01  8.50000000E-01  8.50000000E-01  7.20000000E-01  8.50000000E-01
  8.50000000E-01  8.50000000E-01  7.20000000E-01  8.50000000E-01  8.50000000E-01
  7.20000000E-01  8.50000000E-01  8.50000000E-01  8.50000000E-01  7.20000000E-01
  8.50000000E-01  8.50000000E-01  7.20000000E-01  8.50000000E-01  8.50000000E-01
  8.50000000E-01  7.20000000E-01  8.50000000E-01  8.50000000E-01  7.20000000E-01
  8.50000000E-01  8.50000000E-01  8.50000000E-01  7.20000000E-01  8.50000000E-01
  8.50000000E-01  7.20000000E-01  8.50000000E-01  8.50000000E-01  8.50000000E-01
  7.20000000E-01  8.50000000E-01  8.50000000E-01  7.20000000E-01  8.50000000E-01
  8.50000000E-01  8.50000000E-01  7.20000000E-01  8.50000000E-01  7.20000000E-01
  7.20000000E-01  7.20000000E-01  8.50000000E-01  8.50000000E-01  7.20000000E-01
  8.50000000E-01  7.20000000E-01  8.50000000E-01  7.20000000E-01  7.20000000E-01
  8.50000000E-01  8.50000000E-01  7.20000000E-01  8.50000000E-01  8.50000000E-01
  7.20000000E-01  8.50000000E-01  8.50000000E-01  7.20000000E-01  8.50000000E-01
  8.50000000E-01  7.20000000E-01  8.50000000E-01  8.50000000E-01  8.50000000E-01
  7.20000000E-01  8.50000000E-01  7.20000000E-01  7.20000000E-01  7.20000000E-01
  8.50000000E-01  8.50000000E-01  7.20000000E-01  8.50000000E-01  7.20000000E-01
  8.50000000E-01  7.20000000E-01  7.20000000E-01  8.50000000E-01  8.50000000E-01
  7.20000000E-01  8.50000000E-01  8.50000000E-01  7.20000000E-01  8.50000000E-01
  8.50000000E-01  7.20000000E-01  8.50000000E-01  8.50000000E-01  7.20000000E-01
  8.50000000E-01  8.50000000E-01  8.50000000E-01  7.20000000E-01  8.50000000E-01
  7.20000000E-01  7.20000000E-01  7.20000000E-01  8.50000000E-01  8.50000000E-01
  7.20000000E-01  8.50000000E-01  7.20000000E-01  8.50000000E-01  7.20000000E-01
  7.20000000E-01  8.50000000E-01  8.50000000E-01  7.20000000E-01  8.50000000E-01
  8.50000000E-01  7.20000000E-01  8.50000000E-01  8.50000000E-01  7.20000000E-01
  8.50000000E-01  8.50000000E-01  7.20000000E-01  8.50000000E-01  8.50000000E-01
  8.50000000E-01  7.20000000E-01  8.50000000E-01  8.50000000E-01  7.20000000E-01
  8.50000000E-01  8.50000000E-01  8.50000000E-01  7.20000000E-01  8.50000000E-01
  8.50000000E-01  7.20000000E-01  8.50000000E-01  8.50000000E-01  8.50000000E-01
  7.20000000E-01  8.50000000E-01  8.50000000E-01  7.20000000E-01  8.50000000E-01
  8.50000000E-01  8.50000000E-01  7.20000000E-01  8.50000000E-01  8.50000000E-01
  7.20000000E-01  8.50000000E-01  8.50000000E-01  8.50000000E-01  7.20000000E-01
  8.50000000E-01  8.50000000E-01  7.20000000E-01  8.50000000E-01  8.50000000E-01
  8.50000000E-01  7.20000000E-01  8.50000000E-01  7.20000000E-01  7.20000000E-01
  7.20000000E-01  8.50000000E-01  8.50000000E-01  7.20000000E-01  8.50000000E-01
  7.20000000E-01  8.50000000E-01  7.20000000E-01  7.20000000E-01  8.50000000E-01
  8.50000000E-01  7.20000000E-01  8.50000000E-01  8.50000000E-01  7.20000000E-01
  8.50000000E-01  8.50000000E-01  7.20000000E-01  8.50000000E-01  8.50000000E-01
  7.20000000E-01  8.50000000E-01  8.50000000E-01  8.50000000E-01  7.20000000E-01
  8.50000000E-01  7.20000000E-01  7.20000000E-01  7.20000000E-01  8.50000000E-01
  8.50000000E-01  7.20000000E-01  8.50000000E-01  7.20000000E-01  8.50000000E-01
  7.20000000E-01  7.20000000E-01  8.50000000E-01  8.50000000E-01  7.20000000E-01
  8.50000000E-01  8.50000000E-01  7.20000000E-01  8.50000000E-01  8.50000000E-01
  7.20000000E-01  8.50000000E-01  8.50000000E-01  7.20000000E-01  8.50000000E-01
  8.50000000E-01  8.50000000E-01  7.20000000E-01  8.50000000E-01  7.20000000E-01
  7.20000000E-01  7.20000000E-01  8.50000000E-01  8.50000000E-01  7.20000000E-01
  8.50000000E-01  7.20000000E-01  8.50000000E-01  7.20000000E-01  7.20000000E-01
  8.50000000E-01  8.50000000E-01  7.20000000E-01  8.50000000E-01  8.50000000E-01
  7.20000000E-01  8.50000000E-01  8.50000000E-01  7.20000000E-01  8.50000000E-01
  8.50000000E-01  7.20000000E-01  8.50000000E-01  8.50000000E-01  8.50000000E-01
  7.20000000E-01  8.50000000E-01  7.20000000E-01  7.20000000E-01  7.20000000E-01
  8.50000000E-01  8.50000000E-01  7.20000000E-01  8.50000000E-01  7.20000000E-01
  8.50000000E-01  7.20000000E-01  7.20000000E-01  8.50000000E-01  8.50000000E-01
  7.20000000E-01  8.50000000E-01  8.50000000E-01  7.20000000E-01  8.50000000E-01
  8.50000000E-01  7.20000000E-01  8.50000000E-01  8.50000000E-01  7.20000000E-01
  8.50000000E-01  8.50000000E-01  8.50000000E-01  7.20000000E-01  8.50000000E-01
  7.20000000E-01  7.20000000E-01  7.20000000E-01  8.50000000E-01  8.50000000E-01
  7.20000000E-01  8.50000000E-01  7.20000000E-01  8.50000000E-01  7.20000000E-01
  7.20000000E-01  8.50000000E-01  8.50000000E-01  7.20000000E-01  8.50000000E-01
  8.50000000E-01  7.20000000E-01  8.50000000E-01  8.50000000E-01  7.20000000E-01
  8.50000000E-01  8.50000000E-01  7.20000000E-01  8.50000000E-01  8.50000000E-01
  8.50000000E-01  7.20000000E-01  8.50000000E-01  7.20000000E-01  7.20000000E-01
  7.20000000E-01  8.50000000E-01  8.50000000E-01  7.20000000E-01  8.50000000E-01
  7.20000000E-01  8.50000000E-01  7.20000000E-01  7.20000000E-01  8.50000000E-01
  8.50000000E-01  7.20000000E-01  8.50000000E-01  8.50000000E-01  7.20000000E-01
  8.50000000E-01  8.50000000E-01  7.20000000E-01  8.50000000E-01  8.50000000E-01
  7.20000000E-01  8.50000000E-01  8.50000000E-01  8.50000000E-01  7.20000000E-01
  8.50000000E-01  7.20000000E-01  7.20000000E-01  7.20000000E-01  8.50000000E-01
  8.50000000E-01  7.20000000E-01  8.50000000E-01  7.20000000E-01  8.50000000E-01
  7.20000000E-01  7.20000000E-01  8.50000000E-01  8.50000000E-01  7.20000000E-01
  8.50000000E-01  8.50000000E-01  7.20000000E-01  8.50000000E-01  8.50000000E-01
  7.20000000E-01  8.50000000E-01  8.50000000E-01  7.20000000E-01  8.50000000E-01
  8.50000000E-01  8.50000000E-01  7.20000000E-01  8.50000000E-01  7.20000000E-01
  7.20000000E-01  7.20000000E-01  8.50000000E-01  8.50000000E-01  7.20000000E-01
  8.50000000E-01  7.20000000E-01  8.50000000E-01  7.20000000E-01  7.20000000E-01
  8.50000000E-01  8.50000000E-01  7.20000000E-01  8.50000000E-01  8.50000000E-01
  7.20000000E-01  8.50000000E-01  8.50000000E-01  7.20000000E-01  8.50000000E-01
  8.50000000E-01  7.20000000E-01  8.50000000E-01  8.50000000E-01  8.50000000E-01
  7.20000000E-01  8.50000000E-01  7.20000000E-01  7.20000000E-01  7.20000000E-01
  8.50000000E-01  8.50000000E-01  7.20000000E-01  8.50000000E-01  7.20000000E-01
  8.50000000E-01  7.20000000E-01  7.20000000E-01  8.50000000E-01  8.50000000E-01
  7.20000000E-01  8.50000000E-01  8.50000000E-01  7.20000000E-01  8.50000000E-01
  8.50000000E-01  7.20000000E-01  8.50000000E-01  8.50000000E-01  7.20000000E-01
  8.50000000E-01  8.50000000E-01  8.50000000E-01  7.20000000E-01  8.50000000E-01
  7.20000000E-01  7.20000000E-01  7.20000000E-01  8.50000000E-01  8.50000000E-01
  7.20000000E-01  8.50000000E-01  7.20000000E-01  8.50000000E-01  7.20000000E-01
  7.20000000E-01  8.50000000E-01  8.50000000E-01  7.20000000E-01  8.50000000E-01
  8.50000000E-01  7.20000000E-01  8.50000000E-01  8.50000000E-01  7.20000000E-01
  8.50000000E-01  8.50000000E-01  7.20000000E-01  8.50000000E-01  8.50000000E-01
  8.50000000E-01  7.20000000E-01  8.50000000E-01  7.20000000E-01  7.20000000E-01
  7.20000000E-01  8.50000000E-01  8.50000000E-01  7.20000000E-01  8.50000000E-01
  7.20000000E-01  8.50000000E-01  7.20000000E-01  7.20000000E-01  8.50000000E-01
  8.50000000E-01  7.20000000E-01  8.50000000E-01  8.50000000E-01  7.20000000E-01
  8.50000000E-01  8.50000000E-01  7.20000000E-01  8.50000000E-01  8.50000000E-01
  7.20000000E-01  8.50000000E-01  8.50000000E-01  8.50000000E-01  7.20000000E-01
  8.50000000E-01  7.20000000E-01  7.20000000E-01  7.20000000E-01  8.50000000E-01
  8.50000000E-01  7.20000000E-01  8.50000000E-01  7.20000000E-01  8.50000000E-01
  7.20000000E-01  7.20000000E-01  8.50000000E-01  8.50000000E-01  7.20000000E-01
  8.50000000E-01  8.50000000E-01  7.20000000E-01  8.50000000E-01  8.50000000E-01
  7.20000000E-01  8.50000000E-01  8.50000000E-01  7.20000000E-01  8.50000000E-01
  8.50000000E-01  8.50000000E-01  7.20000000E-01  8.50000000E-01  7.20000000E-01
  7.20000000E-01  7.20000000E-01  8.50000000E-01  8.50000000E-01  7.20000000E-01
  8.50000000E-01  7.20000000E-01  8.50000000E-01  7.20000000E-01  7.20000000E-01
  8.50000000E-01  8.50000000E-01  7.20000000E-01  8.50000000E-01  8.50000000E-01
  7.20000000E-01  8.50000000E-01  8.50000000E-01  7.20000000E-01  8.50000000E-01
  8.50000000E-01  7.20000000E-01  8.50000000E-01  8.50000000E-01  8.50000000E-01
  7.20000000E-01  8.50000000E-01  7.20000000E-01  7.20000000E-01  7.20000000E-01
  8.50000000E-01  8.50000000E-01  7.20000000E-01  8.50000000E-01  7.20000000E-01
  8.50000000E-01  7.20000000E-01  7.20000000E-01  8.50000000E-01  8.50000000E-01
  7.20000000E-01  8.50000000E-01  8.50000000E-01  7.20000000E-01  8.50000000E-01
  8.50000000E-01  7.20000000E-01  8.50000000E-01  8.50000000E-01  7.20000000E-01
  8.50000000E-01  8.50000000E-01  8.50000000E-01  7.20000000E-01  8.50000000E-01
  7.20000000E-01  7.20000000E-01  7.20000000E-01  8.50000000E-01  8.50000000E-01
  7.20000000E-01  8.50000000E-01  7.20000000E-01  8.50000000E-01  7.20000000E-01
  7.20000000E-01  8.50000000E-01  8.50000000E-01  7.20000000E-01  8.50000000E-01
  8.50000000E-01  7.20000000E-01  8.50000000E-01  8.50000000E-01  7.20000000E-01
  8.50000000E-01  8.50000000E-01  7.20000000E-01  8.50000000E-01  8.50000000E-01
  8.50000000E-01  7.20000000E-01  8.50000000E-01  7.20000000E-01  7.20000000E-01
  7.20000000E-01  8.50000000E-01  8.50000000E-01  7.20000000E-01  8.50000000E-01
  7.20000000E-01  8.50000000E-01  7.20000000E-01  7.20000000E-01  8.50000000E-01
  8.50000000E-01  7.20000000E-01  8.50000000E-01  8.50000000E-01  7.20000000E-01
  8.50000000E-01  8.50000000E-01  7.20000000E-01  8.50000000E-01  8.50000000E-01
  7.20000000E-01  8.50000000E-01  8.50000000E-01  8.50000000E-01  7.20000000E-01
  8.50000000E-01  7.20000000E-01  7.20000000E-01  7.20000000E-01  8.50000000E-01
  8.50000000E-01  7.20000000E-01  8.50000000E-01  7.20000000E-01  8.50000000E-01
  7.20000000E-01  7.20000000E-01  8.50000000E-01  8.50000000E-01  7.20000000E-01
  8.50000000E-01  8.50000000E-01  7.20000000E-01  8.50000000E-01  8.50000000E-01
  7.20000000E-01  8.50000000E-01  8.50000000E-01  7.20000000E-01  8.50000000E-01
  8.50000000E-01  8.50000000E-01  7.20000000E-01  8.50000000E-01  7.20000000E-01
  7.20000000E-01  7.20000000E-01  8.50000000E-01  8.50000000E-01  7.20000000E-01
  8.50000000E-01  7.20000000E-01  8.50000000E-01  7.20000000E-01  7.20000000E-01
  8.50000000E-01  8.50000000E-01  7.20000000E-01  8.50000000E-01  8.50000000E-01
  7.20000000E-01  8.50000000E-01  8.50000000E-01  7.20000000E-01  8.50000000E-01
  8.50000000E-01  7.20000000E-01  8.50000000E-01  8.50000000E-01  8.50000000E-01
  7.20000000E-01  8.50000000E-01  8.50000000E-01  7.20000000E-01  8.50000000E-01
  8.50000000E-01  8.50000000E-01  7.20000000E-01  8.50000000E-01  8.50000000E-01
  7.20000000E-01  8.50000000E-01  8.50000000E-01  8.50000000E-01  7.20000000E-01
  8.50000000E-01  8.50000000E-01  7.20000000E-01  8.50000000E-01  8.50000000E-01
  8.50000000E-01  7.20000000E-01  8.50000000E-01  8.50000000E-01  7.20000000E-01
  8.50000000E-01  8.50000000E-01  8.50000000E-01  7.20000000E-01  8.50000000E-01
  8.50000000E-01  7.20000000E-01  8.50000000E-01  8.50000000E-01  8.50000000E-01
  7.20000000E-01  8.50000000E-01  7.20000000E-01  7.20000000E-01  7.20000000E-01
  8.50000000E-01  8.50000000E-01  7.20000000E-01  8.50000000E-01  7.20000000E-01
  8.50000000E-01  7.20000000E-01  7.20000000E-01  8.50000000E-01  8.50000000E-01
  7.20000000E-01  8.50000000E-01  8.50000000E-01  7.20000000E-01  8.50000000E-01
  8.50000000E-01  7.20000000E-01  8.50000000E-01  8.50000000E-01  7.20000000E-01
  8.50000000E-01  8.50000000E-01  8.50000000E-01  7.20000000E-01  8.50000000E-01
  7.20000000E-01  7.20000000E-01  7.20000000E-01  8.50000000E-01  8.50000000E-01
  7.20000000E-01  8.50000000E-01  7.20000000E-01  8.50000000E-01  7.20000000E-01
  7.20000000E-01  8.50000000E-01  8.50000000E-01  7.20000000E-01  8.50000000E-01
  8.50000000E-01  7.20000000E-01  8.50000000E-01  8.50000000E-01  7.20000000E-01
  8.50000000E-01  8.50000000E-01  7.20000000E-01  8.50000000E-01  8.50000000E-01
  8.50000000E-01  7.20000000E-01  8.50000000E-01  8.50000000E-01  7.20000000E-01
  8.50000000E-01  8.50000000E-01  8.50000000E-01  7.20000000E-01  8.50000000E-01
  8.50000000E-01  7.20000000E-01  8.50000000E-01  8.50000000E-01  8.50000000E-01
  7.20000000E-01  8.50000000E-01  8.50000000E-01  7.20000000E-01  8.50000000E-01
  8.50000000E-01  8.50000000E-01  7.20000000E-01  8.50000000E-01  8.50000000E-01
  7.20000000E-01  8.50000000E-01  8.50000000E-01  8.50000000E-01  7.20000000E-01
  8.50000000E-01  8.50000000E-01  7.20000000E-01  8.50000000E-01  8.50000000E-01
  8.50000000E-01  7.20000000E-01  8.50000000E-01  8.50000000E-01  7.20000000E-01
  8.50000000E-01  8.50000000E-01  8.50000000E-01  7.20000000E-01  8.50000000E-01
  8.50000000E-01  7.20000000E-01  8.50000000E-01  8.50000000E-01  8.50000000E-01
  7.20000000E-01  8.50000000E-01  8.50000000E-01  7.20000000E-01  8.50000000E-01
  8.50000000E-01  8.50000000E-01  7.20000000E-01  8.50000000E-01  8.50000000E-01
  7.20000000E-01  8.50000000E-01  8.50000000E-01  8.50000000E-01  7.20000000E-01
  8.50000000E-01  8.50000000E-01  7.20000000E-01  8.50000000E-01  8.50000000E-01
  8.50000000E-01  7.20000000E-01  8.50000000E-01  7.20000000E-01  7.20000000E-01
  7.20000000E-01  8.50000000E-01  8.50000000E-01  7.20000000E-01  8.50000000E-01
  7.20000000E-01  8.50000000E-01  7.20000000E-01  7.20000000E-01  8.50000000E-01
  8.50000000E-01  7.20000000E-01  8.50000000E-01  8.50000000E-01  7.20000000E-01
  8.50000000E-01  8.50000000E-01  7.20000000E-01  8.50000000E-01  8.50000000E-01
%FLAG IPOL                                                                      
%FORMAT(1I8)                                                                    
       0
