PET
   875
   3.5400032   1.4197788   0.0000019   3.9739191   1.8406752   0.9118129
   3.8698782   1.9705135  -0.8846012   2.1173645   1.4178293   0.0819797
   1.5515726   2.6414837   0.2079375   2.1316557   3.7075418   0.2649345
   0.0675948   2.4905359   0.2409320  -0.5372408   1.2269964   0.1839600
  -1.9251774   1.1090463   0.1709642  -2.3592200   0.1140384   0.1149716
   0.0597752   0.3198922   0.1359708  -0.7372009   3.6363412   0.3119111
  -0.2821469   4.6243405   0.3639132  -2.1310920   3.5173966   0.3009150
  -2.7482435   4.4146746   0.3469180  -2.7321042   2.2524969   0.2159340
  -4.2149616   2.1585696   0.1569361  -4.9597932   3.1174376   0.2019157
  -4.5790596   0.8584795   0.0419431  -5.9841234   0.5895508  -0.0220659
  -6.0952246  -0.4048823  -0.4692519  -6.4791911   1.2997206  -0.6942137
  -6.6083255   0.6046114   1.3703496  -7.6832004   0.4137046   1.2853580
  -6.4842346   1.5929573   1.8275037  -5.9802840  -0.4305877   2.2925268
  -6.4682797  -0.4085462   3.2725264  -4.9135387  -0.2356903   2.4444959
  -6.1045512  -1.8604581   1.7471081  -5.6027052  -1.9280408   0.7773560
  -7.1603558  -2.1164659   1.6271679  -5.4864619  -2.7357055   2.6865401
  -4.1844294  -2.4682108   2.9443655  -3.5142148  -1.5813071   2.4540194
  -3.6830239  -3.4312678   3.9676825  -4.5078716  -4.4408910   4.4833290
  -4.0353693  -5.3024591   5.4706946  -4.7064649  -6.0663148   5.8550437
  -5.5303368  -4.5635630   4.1353557  -2.3667356  -3.3119373   4.4353889
  -1.7116500  -2.5373418   4.0394271  -1.8918712  -4.1787079   5.4255472
  -0.8699774  -4.0719047   5.7894513  -2.7295637  -5.1699896   5.9585020
  -2.2142554  -6.0456996   7.0442083  -1.0883403  -5.9785117   7.4959006
  -3.1904494  -6.9008568   7.4337933  -2.8553568  -7.8244658   8.4755626
  -3.8013094  -8.1651408   8.9118310  -2.2999037  -7.3169682   9.2725156
  -2.0806212  -9.0168123   7.9216938  -1.8249164  -9.6935409   8.7436903
  -1.1415370  -8.6779504   7.4694665  -2.8722832  -9.7761571   6.8666341
  -2.2972706 -10.6372877   6.5104885  -3.0970764  -9.1422959   6.0025086
  -4.2118951 -10.3042101   7.3996004  -4.8269786  -9.4662097   7.7405748
  -4.0310949 -10.9845508   8.2357205  -4.8596232 -10.9919563   6.3327928
  -5.0831280 -10.2456131   5.2253934  -4.7977254  -9.0750614   5.0686160
  -5.7254659 -11.0997159   4.1842525  -6.0400634 -12.4424919   4.4364135
  -6.5986569 -13.2360118   3.4370395  -6.8192510 -14.2757134   3.6649160
  -5.8441643 -12.8929898   5.4060754  -6.0027546 -10.5528235   2.9234497
  -5.7707484  -9.5095163   2.7146332  -6.5656628 -11.3495106   1.9206412
  -6.7688186 -10.9176467   0.9406813  -6.8533605 -12.7000956   2.1687523
  -7.4059762 -13.5357926   1.0699369  -7.6536310 -13.1182357  -0.0438577
  -7.5743703 -14.8056291   1.5117328  -8.1081136 -15.7456250   0.5725045
  -7.8425546 -16.7437632   0.9391306  -7.6266789 -15.6251817  -0.4047007
  -9.6253251 -15.6170520   0.4714395  -9.9994101 -16.3352368  -0.2656467
  -9.8953172 -14.6142780   0.1210617 -10.3123773 -15.8571544   1.8081497
 -11.3986996 -15.7817413   1.6930770 -10.0021374 -15.1191922   2.5552695
 -10.0050579 -17.2445791   2.3895796  -8.9269130 -17.3467767   2.5444841
 -10.3459852 -18.0166802   1.6951177 -10.6962683 -17.3548726   3.6308244
 -10.3805578 -16.4079115   4.5456510  -9.5781186 -15.5057539   4.4099018
 -11.2036456 -16.6218164   5.7715528 -12.1033194 -17.6928500   5.8668309
 -12.8954571 -17.8501205   7.0018344 -13.5898134 -18.6857361   7.0362564
 -12.2103118 -18.4105263   5.0574716 -11.0876234 -15.7230696   6.8413177
 -10.3881012 -14.8903401   6.7851815 -11.8818575 -15.8825105   7.9819192
 -11.7911377 -15.1730627   8.8044480 -12.8006738 -16.9397938   8.0615295
 -13.6664518 -17.0568418   9.2648155 -13.6175924 -16.3004278  10.2143816
 -14.4973214 -18.1173174   9.1196534 -15.4003451 -18.3767773  10.2003258
 -16.2114950 -18.9913080   9.7933813 -15.8526427 -17.4429555  10.5533412
 -14.7001897 -19.1249846  11.3310973 -15.4111526 -19.2919368  12.1469917
 -13.8774573 -18.5202676  11.7293997 -14.1325949 -20.4602179  10.8712363
 -13.6606202 -20.9793402  11.7119366 -13.3750083 -20.3254732  10.0921783
 -15.2085098 -21.3935169  10.2978138 -15.6850631 -20.9178243   9.4355787
 -15.9628441 -21.5965028  11.0622911 -14.5652950 -22.6024343   9.9035822
 -13.5748376 -22.4508627   8.9929031 -13.2033827 -21.4088727   8.4904064
 -12.9689894 -23.7838457   8.7062532 -13.4557619 -24.9504900   9.3125515
 -12.8483106 -26.1797027   9.0666081 -13.2456519 -27.0614855   9.5627412
 -14.3032072 -24.9187782   9.9925514 -11.8799681 -23.8678276   7.8272858
 -11.4950277 -22.9715538   7.3431007 -11.2714365 -25.1028186   7.5789160
 -10.4193531 -25.1564120   6.9012866 -11.7444494 -26.2635791   8.2092357
 -11.0481862 -27.5545466   7.9647170 -10.0936060 -27.6831607   7.2241361
 -11.6415814 -28.5306790   8.6934644 -11.0931073 -29.8475226   8.5680729
 -11.4169044 -30.4098578   9.4513342  -9.9981150 -29.8100201   8.5963836
 -11.5996346 -30.5332384   7.3024111 -11.1492712 -31.5284862   7.2270477
 -11.2919601 -29.9643670   6.4175734 -13.1162701 -30.6597829   7.2854656
 -13.4416895 -31.1773727   6.3770449 -13.5995540 -29.6773641   7.3032125
 -13.6566067 -31.4502437   8.4857411 -13.3733378 -30.9461660   9.4144500
 -13.2369272 -32.4594367   8.4788412 -15.0754067 -31.5031712   8.3639620
 -15.6888011 -30.2972275   8.3113959 -15.1543624 -29.2074754   8.3665366
 -17.1568221 -30.5046926   8.1442539 -17.7100067 -31.7922217   8.1011318
 -19.0773258 -31.9663404   7.8997113 -19.4695443 -32.9793653   7.8607970
 -17.0862512 -32.6757392   8.2101961 -17.9963396 -29.3899493   8.0094886
 -17.5825584 -28.3833600   8.0480120 -19.3698090 -29.5651505   7.8092705
 -20.0129041 -28.6923779   7.6961481 -19.9151056 -30.8559432   7.7391648
 -21.3703168 -31.0133134   7.4769355 -22.1413249 -30.0843600   7.3397598
 -21.6759309 -32.3318860   7.4137596 -23.0483942 -32.6608931   7.1714321
 -23.0644427 -33.6891913   6.7925375 -23.4610312 -32.0225290   6.3818512
 -23.8683474 -32.5684295   8.4551000 -24.9134824 -32.8079996   8.2330099
 -23.8407232 -31.5449428   8.8461599 -23.3510672 -33.5069496   9.5358800
 -23.9766307 -33.4324220  10.4315032 -22.3238141 -33.2587995   9.8225813
 -23.3532213 -34.9769105   9.0924126 -22.7135410 -35.0956183   8.2116501
 -24.3743952 -35.2837207   8.8432209 -22.8525851 -35.7557167  10.1769865
 -22.8109618 -37.1410260   9.8413355 -22.1673822 -37.2987244   8.9670669
 -23.8161220 -37.4973325   9.5842216 -22.2737308 -37.9327911  11.0249634
 -22.9173868 -37.7805107  11.9001357 -21.2668565 -37.5820513  11.2830228
 -22.2369679 -39.3153436  10.6775830 -21.7391734 -40.1055116  11.7539009
 -22.3771886 -39.9827557  12.6390402 -20.7261302 -39.7824290  12.0236604
 -21.7203207 -41.5665684  11.3315282 -21.0815867 -41.6897755  10.4482118
 -22.7327715 -41.8902494  11.0602663 -21.2240464 -42.3543545  12.4102913
 -21.1850819 -43.7359283  12.0633611 -20.5409508 -43.8894291  11.1887518
 -22.1907976 -44.0897648  11.8050111 -20.6469358 -44.5275810  13.2466484
 -21.2915267 -44.3743078  14.1209589 -19.6422594 -44.1735519  13.5045338
 -20.6081547 -45.9097024  12.9018855 -20.1108079 -46.6963059  13.9810176
 -20.7485137 -46.5729855  14.8638196 -19.0984128 -46.3714916  14.2511300
 -20.0891666 -48.1570163  13.5575817 -19.4524282 -48.2778975  12.6737447
 -21.1018546 -48.4794519  13.2857226 -19.5937949 -48.9547043  14.6307903
 -19.5568713 -50.3353819  14.2760482 -18.9039178 -50.4756823  13.4082968
 -20.5659620 -50.6787653  14.0253515 -19.0116544 -51.1111152  15.4837028
 -19.6681966 -50.9574137  16.3451923 -18.0072891 -50.7541342  15.7254960
 -18.9747584 -52.4908248  15.1292102 -20.1668399 -53.0174946  14.7619547
 -21.2341186 -52.4385149  14.7180954 -19.9710874 -54.4469332  14.3818886
 -18.7120523 -55.0576003  14.4686076 -18.5402229 -56.3803199  14.0669403
 -17.5475841 -56.8176045  14.1377874 -17.8469121 -54.5117637  14.8362538
 -21.0645374 -55.1877988  13.9116871 -22.0502130 -54.7295856  13.8453158
 -20.8920232 -56.5168343  13.5103089 -21.7463719 -57.0816502  13.1372522
 -19.6246790 -57.1154511  13.5728054 -19.4605920 -58.5136797  13.0940558
 -20.3691635 -59.1972545  12.6657472 -18.1609072 -58.8790448  13.2096104
 -17.8295282 -60.2088558  12.7943820 -16.7503469 -60.2203349  12.6034586
 -18.3247087 -60.4480436  11.8463305 -18.1747444 -61.2235187  13.8806421
 -17.9263709 -62.2293291  13.5261270 -19.2510983 -61.2029313  14.0862009
 -17.4345576 -60.9466000  15.1813818 -17.6866656 -61.7066181  15.9282680
 -17.7035528 -59.9686102  15.5939379 -15.9091169 -60.9588044  15.0072128
 -15.6161694 -60.1905625  14.2855328 -15.5896827 -61.9385634  14.6429558
 -15.3274724 -60.6900125  16.2800308 -15.7028581 -59.5169583  16.8424767
 -16.4609694 -58.6940760  16.3688133 -15.0531915 -59.3882473  18.1794250
 -14.1768943 -60.3710789  18.6608286 -13.6149703 -60.2548624  19.9301528
 -12.9486632 -61.0414978  20.2748391 -13.9294175 -61.2446966  18.0632365
 -15.3395341 -58.2711296  18.9767079 -16.0126253 -57.4957909  18.6137766
 -14.7733892 -58.1537212  20.2506373 -15.0095763 -57.2861137  20.8667322
 -13.9187225 -59.1532636  20.7393791 -13.3699051 -59.0265820  22.1155769
 -13.5943032 -58.0880674  22.8538592 -12.6047322 -60.1091091  22.3960596
 -11.9913462 -60.1427440  23.6896014 -11.7363203 -61.1894599  23.8910052
 -12.7067847 -59.8337817  24.4602544 -10.7285659 -59.2864762  23.7190516
 -10.2945102 -59.3191613  24.7238164 -10.9774990 -58.2415528  23.5013747
  -9.6946856 -59.7527253  22.7040701  -8.7944858 -59.1328244  22.7703139
 -10.0777945 -59.6796288  21.6808841  -9.2678234 -61.2112600  22.9229725
 -10.1402315 -61.8656869  22.8365689  -8.8309365 -61.3196974  23.9189746
  -8.3057770 -61.5339436  21.9224891  -8.7355482 -61.3814796  20.6475901
  -9.8376620 -61.0142426  20.2916307  -7.6195415 -61.7136159  19.7147029
  -6.3742238 -62.1445537  20.1933262  -5.3306939 -62.4070718  19.3086915
  -4.3756813 -62.7287047  19.7162112  -6.1940514 -62.2695361  21.2579794
  -7.8153729 -61.5741985  18.3334655  -8.7791797 -61.2473097  17.9459848
  -6.7677374 -61.8399177  17.4451783  -6.9269949 -61.7194989  16.3736204
  -5.5148996 -62.2443341  17.9302079  -4.4054893 -62.4728370  16.9667950
  -4.5150343 -62.3549363  15.7625009  -3.2847625 -62.8188555  17.6452252
  -2.1160399 -63.0818977  16.8606742  -1.2556884 -62.9807685  17.5320788
  -2.0020436 -62.3231236  16.0780615  -2.1548321 -64.4909963  16.2761981
  -1.2582471 -64.6539741  15.6690748  -3.0236330 -64.6010677  15.6171948
  -2.2368501 -65.5591537  17.3573072  -2.2376489 -66.5558424  16.9038363
  -3.1525921 -65.4591994  17.9492961  -1.0568407 -65.4991528  18.3378330
  -1.0400047 -64.5233894  18.8322402  -0.1203433 -65.6456481  17.7936267
  -1.2397527 -66.5370896  19.2969239  -2.4004086 -66.4740310  19.9913427
  -3.2689120 -65.6317654  19.8794705  -2.4741218 -67.6371779  20.9228575
  -1.4283180 -68.5667462  21.0111829  -1.5347753 -69.6706213  21.8541395
  -0.7089594 -70.3765987  21.8886795  -0.5242873 -68.4534941  20.4183328
  -3.6198718 -67.8130982  21.7114719  -4.4375631 -67.0957568  21.6592861
  -3.7255777 -68.9207507  22.5594891  -4.6243788 -69.0538180  23.1616101
  -2.6883091 -69.8632497  22.6241306  -2.8481498 -71.0562418  23.4972800
  -3.8230871 -71.2656406  24.1914518  -1.7539151 -71.8471841  23.3828883
  -1.7434267 -73.0444365  24.1684458  -1.0140210 -73.7191758  23.7059415
  -2.7178800 -73.5435394  24.1179191  -1.3365542 -72.7501010  25.6094515
  -1.3554444 -73.6806244  26.1863349  -2.0547294 -72.0621221  26.0700221
   0.0484329 -72.1253813  25.6990055   0.3169496 -71.9512842  26.7461989
   0.0872096 -71.1629107  25.1782639   1.1386821 -73.0150422  25.0847471
   0.9177969 -73.1887744  24.0274567   1.1694259 -73.9728102  25.6104699
   2.3819187 -72.3329550  25.2252628   2.4288607 -71.1082397  24.6497763
   1.5357621 -70.5598435  24.0350718   3.7659840 -70.4993452  24.9094158
   4.7575665 -71.1940527  25.6163455   5.9839885 -70.5916742  25.8874144
   6.7249493 -71.1562236  26.4476197   4.5867757 -72.2053297  25.9765098
   4.0285336 -69.2000156  24.4528915   3.2710124 -68.6502924  23.8962165
   5.2611146 -68.5961122  24.7235309   5.4522585 -67.5820327  24.3725226
   6.2403439 -69.2847340  25.4551858   7.5225735 -68.6007409  25.7701614
   7.7982257 -67.4731026  25.4114518   8.3030543 -69.4261773  26.5087611
   9.5857037 -68.9199968  26.8950458   9.9163942 -69.5183920  27.7516571
   9.4992049 -67.8841944  27.2426770  10.5909653 -69.0480257  25.7541104
  11.5540107 -68.6371993  26.0747197  10.2549960 -68.4642402  24.8895092
  10.7771648 -70.4924712  25.3120799  11.5217459 -70.5490864  24.5111937
   9.8425057 -70.9177631  24.9318638  11.2558933 -71.4022620  26.4524977
  10.5208478 -71.3924751  27.2627127  12.2161525 -71.0419212  26.8302618
  11.3938672 -72.7188285  25.9250122  10.2663088 -73.2376055  25.3839036
   9.1784068 -72.7005617  25.3184961  10.5670907 -74.5936818  24.8392465
  11.8437391 -75.1603294  24.9604213  12.1170904 -76.4087732  24.4062408
  13.1211348 -76.8121276  24.5100149  12.6449765 -74.6355243  25.4743934
   9.5575004 -75.3067091  24.1774886   8.5589256 -74.8829654  24.0815172
   9.8318326 -76.5614180  23.6228280   9.0427714 -77.1038559  23.1020175
  11.1182074 -77.1125324  23.7224367  11.3943450 -78.4256151  23.0815539
  10.5621710 -79.0802955  22.4856470  12.6963685 -78.7517019  23.2670994
  13.1299974 -79.9990400  22.7132605  14.2207388 -79.9420248  22.6224396
  12.7309062 -80.1271814  21.7005799  12.7454376 -81.1640835  23.6207094
  13.0746299 -82.1021344  23.1616692  11.6557863 -81.2139487  23.7274312
  13.3561159 -81.0366135  25.0089844  13.0802325 -81.8999896  25.6233907
  13.0028550 -80.1347674  25.5197733  14.8894807 -80.9649809  24.9756043
  15.2034144 -80.0952605  24.3909095  15.2888756 -81.8731200  24.5168930
  15.3452236 -80.8480343  26.3206868  14.8632301 -79.7775321  26.9952411
  14.1072901 -78.9287068  26.5659682  15.3883469 -79.8052584  28.3915031
  16.2694308 -80.8088237  28.8182957  16.7136871 -80.8432367  30.1381067
  17.3874852 -81.6423576  30.4363868  16.6117937 -81.5831670  28.1365708
  14.9776783 -78.8183770  29.2987078  14.2992753 -78.0282408  28.9803133
  15.4256781 -78.8520662  30.6236087  15.0932697 -78.0857298  31.3238467
  16.2854686 -79.8740211  31.0534660  16.7069788 -79.9130414  32.4789398
  16.3721776 -79.0925616  33.3101714  17.4998502 -80.9925233  32.6841197
  18.0009287 -81.1765387  34.0129096  18.2911536 -82.2299944  34.0978609
  17.2071008 -81.0030791  34.7484130  19.2108828 -80.2829843  34.2702959
  19.5582523 -80.4340849  35.2976848  18.9282081 -79.2288625  34.1696062
  20.3505930 -80.5665657  33.3022430  21.2087654 -79.9262973  33.5316369
  20.0534199 -80.3709563  32.2666514  20.8314408 -82.0233233  33.3662412
  20.0044232 -82.6939514  33.1149726  21.1862693 -82.2481245  34.3753051
  21.8910607 -82.1695641  32.4247295  21.5649754 -81.8631831  31.1467956
  20.4800590 -81.4949438  30.7423437  22.7724712 -82.0218500  30.2849124
  23.9926231 -82.4640931  30.8152466  25.1202908 -82.5632190  30.0034656
  26.0520782 -82.8990823  30.4512794  24.0869840 -82.7246821  31.8663215
  22.6889454 -81.7047800  28.9217931  21.7464191 -81.3667696  28.4936411
  23.8211759 -81.8064194  28.1063641  23.7484518 -81.5485899  27.0497965
  25.0468987 -82.2229750  28.6471913  26.2451276 -82.2751744  27.7681624
  26.2333825 -81.9999290  26.5848083  27.3198122 -82.6652759  28.4954167
  28.5634870 -82.7735160  27.7938606  29.3567406 -82.7302470  28.5489054
  28.7050793 -81.9119879  27.1313374  28.6473895 -84.0910661  27.0285514
  29.5999315 -84.1349638  26.4902562  27.8451243 -84.1451982  26.2837989
  28.5278981 -85.2979934  27.9480796  28.6171868 -86.2234607  27.3696654
  27.5608298 -85.3152000  28.4614098  29.6148033 -85.3246334  29.0322293
  29.5390345 -84.4247858  29.6497803  30.6008143 -85.3591463  28.5618677
  29.4038384 -86.4891221  29.8260082  28.1861915 -86.5663664  30.4131073
  27.2883821 -85.7516251  30.3333575  28.0926739 -87.8467811  31.1732761
  29.1733983 -88.7377779  31.2346213  29.0518534 -89.9488287  31.9121403
  29.9068237 -90.6198675  31.9295091  30.1179389 -88.5098359  30.7473283
  26.8940504 -88.1727708  31.8233812  26.0480941 -87.4877749  31.7908310
  26.7730130 -89.3882160  32.5054690  25.8338982 -89.6368230  32.9997949
  27.8479409 -90.2891488  32.5409559  27.6752665 -91.5946162  33.2316856
  26.6564208 -91.9342434  33.7998684  28.8144497 -92.3190481  33.1155605
  28.8189835 -93.6101716  33.7349180  29.6190595 -94.1868776  33.2568964
  27.8793779 -94.1359001  33.5300601  29.0850910 -93.4975709  35.2333118
  29.0645961 -94.4975669  35.6789720  28.2956752 -92.9070529  35.7121929
  30.4233748 -92.8365632  35.5308844  30.5917760 -92.7952091  36.6120670
  30.4571999 -91.8117454  35.1466586  31.6065410 -93.5912965  34.9080293
  31.4862702 -93.6290799  33.8203105  31.6412827 -94.6112530  35.3049006
  32.7973019 -92.8854800  35.2506478  33.9493629 -93.5183991  34.6977965
  33.8678263 -93.5631752  33.6047476  34.0289682 -94.5476856  35.0687970
  35.1941722 -92.7348914  35.0890120  35.2809982 -92.6915566  36.1817116
  35.1202787 -91.7057128  34.7165338  36.3386330 -93.3769874  34.5309814
  37.5363262 -92.6818026  34.8669488  37.6547566 -92.6389474  35.9577016
  37.4930461 -91.6511034  34.4938604  38.7223073 -93.4058938  34.2484169
  38.6050735 -93.4473586  33.1584876  38.7656698 -94.4371742  34.6198861
  39.9184917 -92.7096978  34.5876499  41.0625546 -93.3495326  34.0287613
  40.9771273 -93.3926204  32.9359418  41.1393544 -94.3790632  34.3996758
  42.3072731 -92.5654766  34.4191662  42.3927290 -92.5229815  35.5120067
  42.2299678 -91.5369248  34.0485975  43.4526119 -93.2044517  33.8619096
  44.6480108 -92.5068273  34.2009770  44.7651059 -92.4648231  35.2898941
  44.6031759 -91.4758268  33.8289060  45.8337026 -93.2292603  33.5799565
  45.7138424 -93.2717223  32.4913580  45.8756666 -94.2606170  33.9513747
  47.0367732 -92.5402325  33.9136296  48.1768167 -93.1855951  33.3503499
  48.0831585 -93.2136309  32.2597230  48.2463548 -94.2098690  33.7312075
  49.4170234 -92.3772699  33.7577207  49.4955381 -92.3507524  34.8485773
  49.3310128 -91.3567602  33.3758686  50.5562676 -93.0221810  33.1948376
  50.7230551 -94.3131754  33.5674383  50.0147684 -94.9483557  34.3231504
  51.9224370 -94.8685173  32.8752370  52.7046070 -94.0749368  32.0243293
  53.7945535 -94.6233190  31.3522113  54.3716486 -93.9809723  30.6919682
  52.4709790 -93.0257937  31.8622004  52.2624089 -96.2152454  33.0658848
  51.6688364 -96.8425813  33.7292417  53.3583557 -96.7651384  32.3922979
  53.6090119 -97.8156226  32.5397919  54.1217756 -95.9743478  31.5203752
  55.2512605 -96.5970982  30.7803651  55.5821517 -97.7603311  30.8970918
  55.8253704 -95.6717027  29.9740984  56.9409164 -96.1086112  29.1896928
  57.0439311 -95.3963821  28.3630527  56.7346762 -97.0884140  28.7439714
  58.2206680 -96.1271266  30.0206976  59.0491120 -96.4815052  29.3985067
  58.1151443 -96.8260162  30.8583336  58.5598020 -94.7543510  30.5836888
  59.4946657 -94.7999259  31.1520002  57.7752126 -94.3934635  31.2568935
  58.7371273 -93.6936999  29.4877745  57.8102205 -93.6003757  28.9142151
  59.5488266 -93.9903310  28.8185936  59.0494211 -92.4596693  30.1282947
  58.1253759 -92.0298292  31.0197508  57.0812563 -92.5810475  31.3064521
  58.6000839 -90.7574469  31.6376178  59.8115555 -90.1675452  31.2503755
  60.2594430 -89.0033466  31.8704458  61.2087539 -88.5801601  31.5521832
  60.4287738 -90.6101275  30.4727307  57.8276347 -90.1504232  32.6378420
  56.8809059 -90.5926986  32.9444655  58.2767709 -88.9800736  33.2589374
  57.6736124 -88.5208356  34.0421361  59.5030065 -88.4083959  32.8875347
  59.9788497 -87.1919015  33.5980864  59.3576664 -86.6320657  34.4795284
  61.1906012 -86.8313462  33.1105587  61.7925937 -85.6666805  33.6865645
  62.8651628 -85.7251752  33.4688722  61.6862801 -85.6809604  34.7773025
  61.2094015 -84.3929383  33.0814663  61.6766072 -83.5228041  33.5543409
  60.1333775 -84.3393586  33.2827558  61.4176592 -84.3250112  31.5753127
  61.0099534 -83.3888786  31.1797665  60.9142948 -85.1524810  31.0644869
  62.9001884 -84.3860037  31.1805470  63.3362883 -85.3240288  31.5365832
  63.4340234 -83.5447944  31.6300312  62.9713444 -84.3149794  29.7590979
  62.2950681 -85.2885261  29.1047485  61.6601832 -86.1948749  29.6064237
  62.4231615 -85.0665712  27.6349213  63.1834558 -84.0060743  27.1221805
  63.2546230 -83.7886368  25.7480972  63.8445401 -82.9500873  25.3869855
  63.7190497 -83.3282264  27.7819004  61.7548711 -85.9250217  26.7505827
  61.1662187 -86.7574438  27.1333133  61.8282425 -85.7075749  25.3705340
  61.2974393 -86.3748834  24.6915292  62.5677306 -84.6286449  24.8631127
  62.5885351 -84.3925161  23.3951279  62.0184578 -85.0957069  22.5847209
  63.3260564 -83.2877233  23.1276957  63.4536447 -82.9203184  21.7495234
  63.7393113 -81.8623835  21.7299165  62.4858324 -82.9998417  21.2413585
  64.5233247 -83.7591817  21.0561483  64.5836782 -83.4667496  20.0026465
  64.2491652 -84.8198412  21.0886123  65.8899900 -83.5988535  21.7065364
  66.6358101 -84.1939134  21.1692460  65.8789170 -83.9360190  22.7482762
  66.3760096 -82.1424081  21.7087620  65.6669372 -81.5199452  22.2624697
  66.4505577 -81.7793776  20.6805109  67.6545907 -82.1152984  22.3373481
  67.6782098 -82.5953728  23.6031628  66.7334546 -83.0253477  24.2346564
  69.0778762 -82.5437454  24.1172955  70.1207504 -82.0220892  23.3389046
  71.4283774 -82.0234038  23.8190699  72.2131413 -81.6210666  23.1835864
  69.9342874 -81.6203652  22.3462222  69.3576620 -83.0436774  25.3969017
  68.5571819 -83.4455746  26.0162814  70.6707373 -83.0429539  25.8796374
  70.8795843 -83.4424849  26.8720375  71.7154149 -82.5452693  25.0863103
  73.1078350 -82.6015343  25.6051256  73.4091957 -83.0349515  26.6994547
  73.9559698 -82.1061821  24.6716810  75.3456412 -82.0824088  25.0164596
  75.9033523 -82.0152870  24.0753597  75.6372014 -83.0245119  25.4946335
  75.6703124 -80.8801958  25.8984735  76.7338480 -80.9007604  26.1582699
  75.1014466 -80.9352437  26.8336620  75.3400828 -79.5608123  25.2153486
  75.6084037 -78.7216171  25.8655642  74.2710323 -79.4832377  24.9914332
  76.0932219 -79.3769835  23.8900405  75.8280309 -80.1853573  23.2022604
  77.1703114 -79.3973082  24.0747405  75.7078284 -78.1175777  23.3459873
  74.3793621 -77.9728811  23.1279135  73.5142951 -78.7993629  23.3396018
  74.1193161 -76.6020783  22.5993875  75.1675044 -75.7008179  22.3656460
  74.9009274 -74.4102175  21.9142744  75.7376497 -73.7349742  21.7545522
  76.2019493 -75.9838473  22.5428100  72.7990394 -76.2022176  22.3492179
  71.9747111 -76.8932636  22.5190982  72.5318365 -74.9066387  21.8939391
  71.5012853 -74.6021307  21.7113487  73.5817242 -73.9990995  21.6877416
  73.2650057 -72.6136510  21.2502591  72.1402788 -72.2096986  21.0310859
  74.4128414 -71.9009421  21.1475738  74.2855634 -70.5377155  20.7280056
  75.2009369 -70.0236879  21.0427803  73.4515457 -70.0535703  21.2488067
  74.1328602 -70.4433700  19.2125991  74.0203965 -69.3923767  18.9266096
  73.2271265 -70.9708636  18.8922666  75.3216359 -71.0451807  18.4769904
  75.1898439 -70.9378048  17.3952667  75.4296035 -72.1123001  18.6974991
  76.6498154 -70.3708162  18.8493144  76.8295910 -70.4821615  19.9237017
  76.6042679 -69.3061478  18.5974581  77.6831917 -71.0123003  18.1049305
  78.9590907 -70.4494096  18.4027756  79.1777766 -70.5541842  19.4726390
  78.9639773 -69.3785851  18.1646158  80.0291523 -71.1607548  17.5870303
  79.8156909 -71.0545497  16.5162532  80.0301650 -72.2316190  17.8250593
  81.2993960 -70.5895476  17.8931008  82.3415402 -71.2213360  17.1545860
  82.1590308 -71.1146210  16.0771324  82.3721336 -72.2934998  17.3846678
  83.6704030 -70.5767153  17.5179436  83.8538021 -70.6846847  18.5941018
  83.6403434 -69.5041946  17.2894599  84.7101830 -71.2090765  16.7765923
  85.9802130 -70.6402295  17.0832874  86.1950459 -70.7466825  18.1537656
  85.9824300 -69.5692014  16.8460052  87.0503914 -71.3522289  16.2682665
  86.8355969 -71.2451857  15.1978394  87.0476216 -72.4222452  16.5054869
  88.3211834 -70.7840001  16.5729447  89.3602125 -71.4178063  15.8317746
  89.1769390 -71.3105100  14.7565471  89.3890260 -72.4901453  16.0612696
  90.6894244 -70.7751689  16.1973619  90.8699638 -70.8819946  17.2730988
  90.6580350 -69.7025929  15.9693173  91.7375358 -71.4011182  15.4603912
  93.0050411 -70.8274289  15.7731005  93.2109402 -70.9485741  16.8417231
  92.9974321 -69.7603277  15.5276170  94.0656080 -71.5612115  14.9399054
  93.8451171 -71.4386743  13.8753847  94.0577404 -72.6248744  15.1913180
  95.3322242 -70.9879233  15.2523941  95.4278713 -69.6567828  15.0238498
  94.5594628 -68.9316343  14.5808472  96.7848636 -69.1892147  15.4313004
  97.7457173 -70.0835128  15.9238398  98.9917738 -69.6211489  16.3409872
  99.7078980 -70.3416799  16.7277301  97.5355242 -71.1471154  16.0021817
  97.0979695 -67.8259177  15.3364853  96.3647280 -67.1199911  14.9492572
  98.3502396 -67.3621997  15.7536019  98.5808173 -66.2990938  15.6847550
  99.2988176 -68.2567635  16.2716406 100.6033740 -67.7295643  16.7526425
 100.9226332 -66.5581754  16.7063110 101.3482580 -68.7503603  17.2416705
 102.6462345 -68.4134325  17.7440254 102.9492663 -69.2302660  18.4089846
 102.5957757 -67.5051917  18.3553916 103.6532429 -68.2701886  16.6064441
 104.6287381 -67.9957210  17.0212956 103.3444479 -67.4651016  15.9299113
 103.7888697 -69.5505731  15.7948379 104.5358750 -69.4194401  15.0050200
 102.8415825 -69.8241500  15.3185737 104.2265805 -70.7484351  16.6498169
 103.4873202 -70.9275104  17.4361135 105.1970724 -70.5377145  17.1063159
 104.3192637 -71.8810955  15.7900989 103.1767781 -72.1946789  15.1345776
 102.1098338 -71.6195486  15.2187207 103.4308078 -73.3668728  14.2471689
 104.6849256 -73.9923904  14.2081785 104.9155691 -75.0573615  13.3403714
 105.9033991 -75.5108314  13.3291436 105.5017107 -73.6536378  14.8403792
 102.3998087 -73.8397946  13.4231604 101.4181467 -73.3689687  13.4473207
 102.6312047 -74.9107084  12.5532176 101.8259805 -75.2650751  11.9096818
 103.8957498 -75.5158819  12.4975429 104.1273408 -76.6201166  11.5289354
 103.2753702 -77.0609811  10.7832750 105.4152749 -77.0320301  11.6159877
 105.8061226 -78.1019871  10.7482009 106.8987730 -78.0634386  10.6717477
 105.4089498 -77.9407963   9.7394952 105.3732071 -79.4515324  11.3138755
 105.6704912 -80.2449703  10.6202593 104.2818096 -79.4874707  11.4075556
 105.9794354 -79.7212929  12.6836202 105.6680755 -80.7062651  13.0468141
 105.6564406 -78.9756159  13.4175583 107.5145777 -79.7004266  12.6647591
 107.8640085 -78.7186737  12.3317495 107.8831154 -80.4677532  11.9791653
 107.9658624 -79.9630552  13.9906525 107.5194104 -79.0937764  14.9278562
 106.7979688 -78.1337680  14.7431104 108.0343687 -79.5119599  16.2642710
 108.8751810 -80.6249984  16.4049262 109.3095692 -81.0262494  17.6661770
 109.9515803 -81.9004352  17.7382186 109.1930569 -81.2019303  15.5402451
 107.6546494 -78.7878485  17.4031652 107.0078319 -77.9167867  17.3093598
 108.0927732 -79.1898974  18.6695005 107.7844337 -78.6259793  19.5498545
 108.9116103 -80.3206725  18.8082901 109.3224349 -80.7536629  20.1702414
 109.0128763 -80.1724033  21.1912878 110.0736912 -81.8775044  20.0774015
 110.5592936 -82.4273494  21.3072327 110.8099687 -83.4754048  21.1073381
 109.7677916 -82.4266954  22.0653489 111.7997076 -81.6802828  21.7888348
 112.1348143 -82.1124197  22.7375108 111.5567009 -80.6276741  21.9737091
 112.9342536 -81.7379129  20.7759339 113.8139756 -81.2142601  21.1643950
 112.6509997 -81.2625889  19.8310216 113.3606909 -83.1759141  20.4476706
 112.5111208 -83.7241392  20.0299194 113.7006510 -83.6744313  21.3590195
 114.4200960 -83.1053571  19.4972458 114.1135535 -82.4577108  18.3483760
 113.0455030 -81.9549566  18.0607456 115.3197732 -82.4258332  17.4708329
 116.5194476 -83.0384266  17.8595676 117.6477741 -82.9595806  17.0464799
 118.5637231 -83.4370090  17.3851072 116.5975397 -83.5729185  18.8028539
 115.2565497 -81.7542187  16.2417923 114.3298248 -81.2795607  15.9227284
 116.3893660 -81.6769914  15.4245016 116.3328285 -81.1444987  14.4751044
 117.5954879 -82.2678464  15.8301730 118.7964776 -82.1285128  14.9645062
 118.8023145 -81.5477387  13.8973172 119.8514705 -82.7379349  15.5574815
 121.0946949 -82.7015438  14.8477683 121.8842460 -82.8905042  15.5840556
 121.2720916 -81.7005399  14.4382104 121.1348020 -83.7697867  13.7587666
 122.0884422 -83.7040900  13.2246511 120.3357807 -83.5936958  13.0295390
 120.9651506 -85.1727468  14.3239263 121.0239122 -85.9133437  13.5195083
 119.9948998 -85.2901054  14.8177535 122.0435053 -85.5276302  15.3576874
 121.9970221 -84.8219928  16.1937138 123.0323162 -85.4721346  14.8905706
 121.7846162 -86.8537455  15.8136158 122.7405457 -87.2590857  16.7910482
 122.7132456 -86.5786252  17.6510698 123.7519685 -87.2215088  16.3679394
 122.4281391 -88.6771503  17.2470954 122.4585322 -89.3611140  16.3899613
 121.4186474 -88.7183310  17.6744590 123.3900102 -89.0709915  18.2233993
 123.1431784 -90.3956911  18.6869398 123.1843888 -91.1030703  17.8481785
 122.1423424 -90.4608448  19.1313399 124.1937344 -90.7642215  19.7232595
 124.1516401 -90.0586411  20.5621835 125.1950825 -90.6980659  19.2801633
 123.9455778 -92.0898479  20.1834312 124.9051516 -92.4835742  21.1605815
 124.8749829 -91.8007075  22.0185978 125.9158743 -92.4436908  20.7360138
 124.5921662 -93.9012825  21.6173389 124.6229041 -94.5840077  20.7592303
 123.5822130 -93.9406732  22.0412007 125.5514143 -94.2971588  22.5939402
 125.3016448 -95.6225041  23.0540489 125.3431452 -96.3275769  22.2159761
 124.3000507 -95.6870970  23.4968198 126.3504445 -95.9899251  24.0925391
 126.3084748 -95.2827378  24.9288050 127.3514005 -95.9226288  23.6487293
 126.1111061 -97.3157273  24.5599166 127.0743939 -97.7022604  25.5377432
 127.0273968 -97.0186426  26.3918410 128.0781478 -97.6637638  25.1018289
 126.7376922 -99.1330021  25.9816612 126.7811669 -99.8051085  25.1182912
 125.7301672 -99.1570411  26.4098441 127.7009811 -99.5195358  26.9594865
 127.4651720-100.8488201  27.4186958 127.5130210-101.5527469  26.5786919
 126.4635692-100.9235109  27.8598558 128.5124594-101.2181370  28.4595022
 128.4647032-100.5184262  29.3030265 129.5156622-101.1483654  28.0211815
 128.2663404-102.5482453  28.9108483 129.2220243-102.9468691  29.8898234
 129.1825900-102.2700864  30.7535444 130.2350560-102.8979054  29.4717583
 128.9149617-104.3684013  30.3352442 128.9559664-105.0450633  29.4727732
 127.9015634-104.4186830  30.7522630 129.8708666-104.7634978  31.3154328
 129.6268918-106.0933199  31.7656267 129.6752766-106.7939971  30.9229409
 128.6243026-106.1662288  32.2048400 130.6747630-106.4629833  32.8057223
 130.6258168-105.7624692  33.6485113 131.6762426-106.3897554  32.3665273
 130.4317888-107.7923271  33.2578657 131.3888643-108.1866226  34.2372341
 131.3484426-107.5104149  35.0988171 132.4016571-108.1358268  33.8188091
 131.0835668-109.6092181  34.6804685 131.1227669-110.2834517  33.8172834
 130.0697212-109.6586049  35.0965058 132.0350558-110.0147043  35.6621637
 131.7851536-111.3462715  36.1070837 131.8454807-112.0358470  35.2586314
 130.7845968-111.4060479  36.5479214 132.8532716-111.6948020  37.1535556
 132.7873570-110.9951870  37.9920245 133.8458573-111.6255188  36.7012035
 132.6035436-113.0254348  37.5981649 131.3750171-113.2279963  38.1301493
 130.4969249-112.3993926  38.2665129 131.2406721-114.6640346  38.5119991
 132.3002207-115.5657073  38.3389465 132.1407530-116.9118187  38.6598876
 132.9802324-117.5841152  38.5022147 133.2574496-115.2382782  37.9413638
 130.0246123-115.1235058  39.0370598 129.1947020-114.4338868  39.1840141
 129.8654795-116.4751002  39.3612053 128.9131007-116.8244608  39.7599808
 130.9194375-117.3791485  39.1605107 130.7065494-118.8183585  39.4679554
 129.6712401-119.2733066  39.9122323 131.8311391-119.5130440  39.1700711
 131.7968805-120.9236169  39.4144771 132.5917040-121.3690203  38.8053076
 130.8493342-121.3493860  39.0650595 132.0408062-121.2296875  40.8894337
 131.9908334-122.3123211  41.0457419 131.2569309-120.7715063  41.5032950
 133.3883580-120.7092883  41.3687797 133.5398780-120.9679042  42.4219580
 133.4511987-119.6198296  41.2784703
