GROningen MAchine for Chemical Simulation
  875
    1PET     C9    1   0.354   0.142   0.000
    1PET     H6    2   0.397   0.184   0.091
    1PET     H7    3   0.387   0.197  -0.088
    1PET     O2    4   0.212   0.142   0.008
    1PET     C8    5   0.155   0.264   0.021
    1PET     O1    6   0.213   0.371   0.026
    1PET     C4    7   0.007   0.249   0.024
    1PET     C5    8  -0.054   0.123   0.018
    1PET     C6    9  -0.193   0.111   0.017
    1PET     H4   10  -0.236   0.011   0.011
    1PET     H3   11   0.006   0.032   0.014
    1PET     C3   12  -0.074   0.364   0.031
    1PET     H2   13  -0.028   0.462   0.036
    1PET     C2   14  -0.213   0.352   0.030
    1PET     H1   15  -0.275   0.441   0.035
    1PET     C1   16  -0.273   0.225   0.022
    1PET     C7   17  -0.421   0.216   0.016
    1PET     O3   18  -0.496   0.312   0.020
    1PET     O4   19  -0.458   0.086   0.004
    1PET    C10   20  -0.598   0.059  -0.002
    1PET     H8   21  -0.610  -0.040  -0.047
    1PET     H9   22  -0.648   0.130  -0.069
    1PET    C11   23  -0.661   0.060   0.137
    1PET    H10   24  -0.768   0.041   0.129
    1PET    H11   25  -0.648   0.159   0.183
    1PET    C12   26  -0.598  -0.043   0.229
    1PET    H13   27  -0.647  -0.041   0.327
    1PET    H14   28  -0.491  -0.024   0.244
    2PEO     C1   29  -0.610  -0.186   0.175
    2PEO     H3   30  -0.560  -0.193   0.078
    2PEO     H4   31  -0.716  -0.212   0.163
    2PEO      O   32  -0.549  -0.274   0.269
    2PEO     C2   33  -0.555  -0.409   0.225
    2PEO     H5   34  -0.504  -0.420   0.128
    2PEO     H6   35  -0.659  -0.440   0.211
    2PEO     C3   36  -0.488  -0.499   0.328
    2PEO     H7   37  -0.539  -0.489   0.425
    2PEO     H8   38  -0.383  -0.469   0.341
    2PEO     O1   39  -0.495  -0.634   0.283
    2PEO     C4   40  -0.433  -0.723   0.376
    2PEO     H9   41  -0.483  -0.716   0.474
    2PEO    H10   42  -0.328  -0.696   0.390
    2PEO     C5   43  -0.443  -0.865   0.323
    2PEO    H11   44  -0.393  -0.872   0.226
    2PEO    H12   45  -0.549  -0.892   0.309
    2PEO     O2   46  -0.382  -0.953   0.417
    2PEO     C6   47  -0.389  -1.089   0.372
    2PEO    H13   48  -0.338  -1.099   0.275
    2PEO    H14   49  -0.493  -1.119   0.358
    2PEO     C7   50  -0.322  -1.178   0.475
    2PEO    H15   51  -0.373  -1.168   0.572
    2PEO    H16   52  -0.217  -1.148   0.488
    2PEO     O3   53  -0.328  -1.313   0.430
    2PEO     C8   54  -0.267  -1.402   0.524
    2PEO    H17   55  -0.317  -1.395   0.621
    2PEO    H18   56  -0.162  -1.374   0.538
    2PEO     C9   57  -0.277  -1.544   0.471
    2PEO    H19   58  -0.227  -1.551   0.374
    2PEO    H20   59  -0.382  -1.571   0.456
    2PEO     O4   60  -0.216  -1.633   0.564
    2PEO    C10   61  -0.223  -1.768   0.518
    2PEO    H21   62  -0.171  -1.777   0.422
    2PEO    H22   63  -0.327  -1.798   0.505
    3PET     C9   64  -0.155  -1.857   0.624
    3PET     H6   65  -0.207  -1.846   0.719
    3PET     H7   66  -0.050  -1.826   0.635
    3PET     O2   67  -0.162  -1.991   0.578
    3PET     C8   68  -0.287  -2.038   0.555
    3PET     O1   69  -0.391  -1.976   0.570
    3PET     C4   70  -0.279  -2.178   0.504
    3PET     C5   71  -0.155  -2.243   0.490
    3PET     C6   72  -0.149  -2.372   0.438
    3PET     H4   73  -0.052  -2.419   0.427
    3PET     H3   74  -0.062  -2.194   0.518
    3PET     C3   75  -0.396  -2.245   0.468
    3PET     H2   76  -0.493  -2.196   0.479
    3PET     C2   77  -0.390  -2.374   0.416
    3PET     H1   78  -0.482  -2.425   0.388
    3PET     C1   79  -0.267  -2.438   0.400
    3PET     C7   80  -0.263  -2.574   0.340
    3PET     O3   81  -0.361  -2.636   0.306
    3PET     O4   82  -0.134  -2.615   0.330
    3PET    C10   83  -0.113  -2.746   0.274
    3PET     H8   84  -0.009  -2.748   0.239
    3PET     H9   85  -0.176  -2.760   0.186
    3PET    C11   86  -0.135  -2.854   0.379
    3PET    H10   87  -0.120  -2.952   0.333
    3PET    H11   88  -0.239  -2.851   0.415
    3PET    C12   89  -0.042  -2.839   0.498
    3PET    H13   90  -0.060  -2.920   0.570
    3PET    H14   91  -0.059  -2.744   0.550
    4PET     C9   92   0.106  -2.843   0.459
    4PET     H6   93   0.128  -2.762   0.389
    4PET     H7   94   0.128  -2.939   0.411
    4PET     O2   95   0.183  -2.828   0.578
    4PET     C8   96   0.158  -2.715   0.648
    4PET     O1   97   0.080  -2.627   0.618
    4PET     C4   98   0.242  -2.714   0.771
    4PET     C5   99   0.332  -2.818   0.799
    4PET     C6  100   0.406  -2.818   0.917
    4PET     H4  101   0.473  -2.901   0.935
    4PET     H3  102   0.344  -2.901   0.730
    4PET     C3  103   0.230  -2.608   0.862
    4PET     H2  104   0.161  -2.526   0.842
    4PET     C2  105   0.304  -2.608   0.980
    4PET     H1  106   0.293  -2.526   1.051
    4PET     C1  107   0.392  -2.714   1.009
    4PET     C7  108   0.466  -2.714   1.138
    4PET     O3  109   0.458  -2.626   1.221
    4PET     O4  110   0.541  -2.826   1.146
    4PET    C10  111   0.620  -2.842   1.265
    4PET     H8  112   0.644  -2.948   1.273
    4PET     H9  113   0.562  -2.815   1.353
    4PET    C11  114   0.749  -2.760   1.256
    4PET    H10  115   0.806  -2.773   1.348
    4PET    H11  116   0.726  -2.654   1.245
    4PET    C12  117   0.835  -2.802   1.137
    4PET    H13  118   0.928  -2.743   1.135
    4PET    H14  119   0.783  -2.785   1.042
    5PET     C9  120   0.875  -2.950   1.142
    5PET     H6  121   0.784  -3.012   1.141
    5PET     H7  122   0.932  -2.970   1.233
    5PET     O2  123   0.954  -2.977   1.027
    5PET     C8  124   0.894  -2.951   0.908
    5PET     O1  125   0.782  -2.908   0.892
    5PET     C4  126   0.990  -2.980   0.798
    5PET     C5  127   1.118  -3.030   0.823
    5PET     C6  128   1.208  -3.052   0.719
    5PET     H4  129   1.307  -3.090   0.743
    5PET     H3  130   1.151  -3.051   0.925
    5PET     C3  131   0.951  -2.954   0.665
    5PET     H2  132   0.852  -2.916   0.643
    5PET     C2  133   1.041  -2.977   0.560
    5PET     H1  134   1.011  -2.956   0.458
    5PET     C1  135   1.170  -3.024   0.587
    5PET     C7  136   1.265  -3.043   0.474
    5PET     O3  137   1.238  -3.021   0.358
    5PET     O4  138   1.385  -3.086   0.522
    5PET    C10  139   1.488  -3.109   0.426
    5PET     H8  140   1.583  -3.107   0.480
    5PET     H9  141   1.491  -3.028   0.353
    5PET    C11  142   1.470  -3.245   0.358
    5PET    H10  143   1.549  -3.259   0.284
    5PET    H11  144   1.374  -3.248   0.305
    5PET    C12  145   1.473  -3.360   0.458
    5PET    H13  146   1.463  -3.456   0.406
    5PET    H14  147   1.391  -3.352   0.531
    6PEO     C1  148   1.604  -3.365   0.539
    6PEO     H3  149   1.617  -3.272   0.594
    6PEO     H4  150   1.689  -3.378   0.470
    6PEO      O  151   1.595  -3.475   0.628
    6PEO     C2  152   1.713  -3.487   0.708
    6PEO     H5  153   1.729  -3.395   0.766
    6PEO     H6  154   1.801  -3.500   0.643
    6PEO     C3  155   1.700  -3.606   0.802
    6PEO     H7  156   1.685  -3.698   0.744
    6PEO     H8  157   1.613  -3.593   0.866
    6PEO     O1  158   1.818  -3.616   0.880
    6PEO     C4  159   1.811  -3.726   0.970
    6PEO     H9  160   1.798  -3.820   0.915
    6PEO    H10  161   1.725  -3.715   1.037
    6PEO     C5  162   1.940  -3.732   1.052
    6PEO    H11  163   1.953  -3.639   1.108
    6PEO    H12  164   2.026  -3.744   0.985
    6PEO     O2  165   1.932  -3.843   1.142
    6PEO     C6  166   2.050  -3.853   1.221
    6PEO    H13  167   2.065  -3.761   1.279
    6PEO    H14  168   2.138  -3.866   1.156
    6PEO     C7  169   2.037  -3.972   1.315
    6PEO    H15  170   2.022  -4.064   1.256
    6PEO    H16  171   1.949  -3.959   1.379
    6PEO     O3  172   2.155  -3.982   1.393
    6PEO     C8  173   2.147  -4.093   1.483
    6PEO    H17  174   2.134  -4.186   1.427
    6PEO    H18  175   2.061  -4.081   1.550
    6PEO     C9  176   2.276  -4.099   1.565
    6PEO    H19  177   2.289  -4.005   1.621
    6PEO    H20  178   2.362  -4.110   1.498
    6PEO     O4  179   2.269  -4.209   1.655
    6PEO    C10  180   2.388  -4.219   1.734
    6PEO    H21  181   2.401  -4.127   1.792
    6PEO    H22  182   2.474  -4.232   1.668
    7PET     C9  183   2.372  -4.339   1.828
    7PET     H6  184   2.358  -4.430   1.768
    7PET     H7  185   2.285  -4.324   1.892
    7PET     O2  186   2.490  -4.349   1.906
    7PET     C8  187   2.605  -4.362   1.835
    7PET     O1  188   2.615  -4.368   1.714
    7PET     C4  189   2.720  -4.367   1.930
    7PET     C5  190   2.701  -4.361   2.069
    7PET     C6  191   2.810  -4.361   2.155
    7PET     H4  192   2.792  -4.355   2.262
    7PET     H3  193   2.601  -4.355   2.111
    7PET     C3  194   2.851  -4.375   1.879
    7PET     H2  195   2.867  -4.380   1.771
    7PET     C2  196   2.960  -4.375   1.966
    7PET     H1  197   3.061  -4.380   1.925
    7PET     C1  198   2.941  -4.367   2.104
    7PET     C7  199   3.059  -4.362   2.194
    7PET     O3  200   3.174  -4.367   2.155
    7PET     O4  201   3.018  -4.350   2.322
    7PET    C10  202   3.120  -4.345   2.422
    7PET     H8  203   3.075  -4.300   2.512
    7PET     H9  204   3.201  -4.279   2.391
    7PET    C11  205   3.172  -4.485   2.455
    7PET    H10  206   3.251  -4.477   2.530
    7PET    H11  207   3.216  -4.531   2.366
    7PET    C12  208   3.062  -4.576   2.507
    7PET    H13  209   3.103  -4.675   2.532
    7PET    H14  210   2.983  -4.591   2.432
    8PET     C9  211   2.994  -4.521   2.633
    8PET     H6  212   2.949  -4.424   2.611
    8PET     H7  213   3.068  -4.510   2.713
    8PET     O2  214   2.893  -4.615   2.672
    8PET     C8  215   2.799  -4.639   2.577
    8PET     O1  216   2.792  -4.590   2.467
    8PET     C4  217   2.703  -4.741   2.630
    8PET     C5  218   2.715  -4.793   2.759
    8PET     C6  219   2.628  -4.891   2.805
    8PET     H4  220   2.641  -4.930   2.906
    8PET     H3  221   2.794  -4.759   2.826
    8PET     C3  222   2.599  -4.786   2.547
    8PET     H2  223   2.588  -4.746   2.446
    8PET     C2  224   2.511  -4.885   2.593
    8PET     H1  225   2.431  -4.920   2.528
    8PET     C1  226   2.526  -4.938   2.722
    8PET     C7  227   2.433  -5.046   2.766
    8PET     O3  228   2.343  -5.090   2.698
    8PET     O4  229   2.467  -5.086   2.891
    8PET    C10  230   2.387  -5.189   2.950
    8PET     H8  231   2.447  -5.234   3.030
    8PET     H9  232   2.368  -5.269   2.876
    8PET    C11  233   2.257  -5.133   3.006
    8PET    H10  234   2.198  -5.215   3.049
    8PET    H11  235   2.198  -5.087   2.926
    8PET    C12  236   2.283  -5.028   3.114
    8PET    H13  237   2.187  -4.991   3.154
    8PET    H14  238   2.337  -4.942   3.073
    9PET     C9  239   2.365  -5.082   3.231
    9PET     H6  240   2.462  -5.117   3.195
    9PET     H7  241   2.311  -5.165   3.278
    9PET     O2  242   2.382  -4.976   3.325
    9PET     C8  243   2.443  -4.866   3.275
    9PET     O1  244   2.483  -4.850   3.162
    9PET     C4  245   2.450  -4.762   3.382
    9PET     C5  246   2.402  -4.787   3.511
    9PET     C6  247   2.406  -4.687   3.609
    9PET     H4  248   2.366  -4.710   3.707
    9PET     H3  249   2.360  -4.884   3.538
    9PET     C3  250   2.504  -4.636   3.352
    9PET     H2  251   2.543  -4.615   3.252
    9PET     C2  252   2.508  -4.536   3.450
    9PET     H1  253   2.550  -4.438   3.425
    9PET     C1  254   2.458  -4.561   3.578
    9PET     C7  255   2.459  -4.451   3.679
    9PET     O3  256   2.503  -4.340   3.658
    9PET     O4  257   2.402  -4.495   3.794
    9PET    C10  258   2.396  -4.401   3.902
    9PET     H8  259   2.318  -4.437   3.970
    9PET     H9  260   2.363  -4.303   3.865
    9PET    C11  261   2.529  -4.393   3.975
    9PET    H10  262   2.522  -4.319   4.056
    9PET    H11  263   2.608  -4.358   3.906
    9PET    C12  264   2.572  -4.527   4.032
    9PET    H13  265   2.667  -4.516   4.086
    9PET    H14  266   2.586  -4.602   3.954
   10PET     C9  267   2.470  -4.584   4.131
   10PET     H6  268   2.374  -4.599   4.080
   10PET     H7  269   2.456  -4.515   4.214
   10PET     O2  270   2.520  -4.709   4.178
   10PET     C8  271   2.545  -4.800   4.082
   10PET     O1  272   2.528  -4.786   3.962
   10PET     C4  273   2.601  -4.924   4.144
   10PET     C5  274   2.617  -4.934   4.283
   10PET     C6  275   2.673  -5.048   4.340
   10PET     H4  276   2.685  -5.052   4.448
   10PET     H3  277   2.587  -4.853   4.349
   10PET     C3  278   2.640  -5.031   4.063
   10PET     H2  279   2.627  -5.025   3.955
   10PET     C2  280   2.696  -5.146   4.120
   10PET     H1  281   2.727  -5.228   4.055
   10PET     C1  282   2.714  -5.154   4.259
   10PET     C7  283   2.779  -5.275   4.316
   10PET     O3  284   2.816  -5.370   4.250
   10PET     O4  285   2.790  -5.261   4.450
   10PET    C10  286   2.850  -5.370   4.521
   10PET     H8  287   2.884  -5.330   4.617
   10PET     H9  288   2.939  -5.406   4.468
   10PET    C11  289   2.749  -5.482   4.545
   10PET    H10  290   2.798  -5.564   4.598
   10PET    H11  291   2.713  -5.521   4.449
   10PET    C12  292   2.629  -5.435   4.625
   10PET    H13  293   2.560  -5.519   4.642
   10PET    H14  294   2.573  -5.357   4.572
   11PET     C9  295   2.667  -5.378   4.762
   11PET     H6  296   2.734  -5.293   4.749
   11PET     H7  297   2.718  -5.455   4.821
   11PET     O2  298   2.547  -5.338   4.828
   11PET     C8  299   2.474  -5.246   4.761
   11PET     O1  300   2.501  -5.196   4.653
   11PET     C4  301   2.350  -5.216   4.839
   11PET     C5  302   2.326  -5.277   4.963
   11PET     C6  303   2.208  -5.252   5.032
   11PET     H4  304   2.192  -5.301   5.127
   11PET     H3  305   2.398  -5.346   5.007
   11PET     C3  306   2.255  -5.128   4.786
   11PET     H2  307   2.273  -5.079   4.690
   11PET     C2  308   2.137  -5.102   4.855
   11PET     H1  309   2.063  -5.033   4.813
   11PET     C1  310   2.112  -5.165   4.978
   11PET     C7  311   1.983  -5.139   5.047
   11PET     O3  312   1.897  -5.064   5.005
   11PET     O4  313   1.978  -5.212   5.161
   11PET    C10  314   1.859  -5.199   5.241
   11PET     H8  315   1.854  -5.287   5.305
   11PET     H9  316   1.770  -5.201   5.177
   11PET    C11  317   1.865  -5.073   5.326
   11PET    H10  318   1.772  -5.064   5.384
   11PET    H11  319   1.871  -4.984   5.262
   11PET    C12  320   1.984  -5.072   5.420
   11PET    H13  321   1.984  -4.982   5.482
   11PET    H14  322   2.079  -5.075   5.365
   12PET     C9  323   1.985  -5.193   5.516
   12PET     H6  324   1.988  -5.285   5.458
   12PET     H7  325   1.894  -5.191   5.577
   12PET     O2  326   2.100  -5.182   5.599
   12PET     C8  327   2.218  -5.177   5.532
   12PET     O1  328   2.233  -5.183   5.412
   12PET     C4  329   2.329  -5.162   5.630
   12PET     C5  330   2.304  -5.158   5.768
   12PET     C6  331   2.409  -5.139   5.858
   12PET     H4  332   2.386  -5.135   5.964
   12PET     H3  333   2.203  -5.168   5.807
   12PET     C3  334   2.461  -5.150   5.584
   12PET     H2  335   2.482  -5.153   5.477
   12PET     C2  336   2.566  -5.131   5.674
   12PET     H1  337   2.668  -5.120   5.637
   12PET     C1  338   2.540  -5.124   5.812
   12PET     C7  339   2.653  -5.099   5.905
   12PET     O3  340   2.769  -5.086   5.870
   12PET     O4  341   2.606  -5.092   6.032
   12PET    C10  342   2.702  -5.069   6.135
   12PET     H8  343   2.647  -5.031   6.222
   12PET     H9  344   2.773  -4.991   6.105
   12PET    C11  345   2.775  -5.198   6.173
   12PET    H10  346   2.849  -5.177   6.250
   12PET    H11  347   2.829  -5.238   6.086
   12PET    C12  348   2.679  -5.306   6.222
   12PET    H13  349   2.734  -5.396   6.250
   12PET    H14  350   2.607  -5.334   6.145
   13PET     C9  351   2.598  -5.261   6.345
   13PET     H6  352   2.539  -5.172   6.320
   13PET     H7  353   2.667  -5.237   6.427
   13PET     O2  354   2.513  -5.369   6.382
   13PET     C8  355   2.427  -5.409   6.285
   13PET     O1  356   2.417  -5.363   6.173
   13PET     C4  357   2.347  -5.525   6.336
   13PET     C5  358   2.363  -5.572   6.467
   13PET     C6  359   2.291  -5.682   6.512
   13PET     H4  360   2.307  -5.717   6.613
   13PET     H3  361   2.433  -5.525   6.536
   13PET     C3  362   2.255  -5.587   6.251
   13PET     H2  363   2.241  -5.551   6.149
   13PET     C2  364   2.182  -5.698   6.296
   13PET     H1  365   2.112  -5.747   6.228
   13PET     C1  366   2.201  -5.747   6.426
   13PET     C7  367   2.126  -5.868   6.469
   13PET     O3  368   2.046  -5.927   6.399
   13PET     O4  369   2.161  -5.900   6.596
   13PET    C10  370   2.097  -6.014   6.654
   13PET     H8  371   2.160  -6.047   6.737
   13PET     H9  372   2.094  -6.096   6.581
   13PET    C11  373   1.958  -5.979   6.705
   13PET    H10  374   1.911  -6.068   6.747
   13PET    H11  375   1.895  -5.944   6.622
   13PET    C12  376   1.962  -5.869   6.811
   13PET    H13  377   1.860  -5.848   6.847
   13PET    H14  378   2.003  -5.776   6.771
   14PET     C9  379   2.047  -5.908   6.933
   14PET     H6  380   2.150  -5.927   6.901
   14PET     H7  381   2.006  -5.998   6.979
   14PET     O2  382   2.043  -5.799   7.024
   14PET     C8  383   2.087  -5.681   6.975
   14PET     O1  384   2.129  -5.661   6.863
   14PET     C4  385   2.074  -5.576   7.080
   14PET     C5  386   2.026  -5.607   7.208
   14PET     C6  387   2.010  -5.507   7.303
   14PET     H4  388   1.972  -5.534   7.401
   14PET     H3  389   1.999  -5.709   7.235
   14PET     C3  390   2.109  -5.444   7.049
   14PET     H2  391   2.147  -5.418   6.950
   14PET     C2  392   2.093  -5.343   7.145
   14PET     H1  393   2.119  -5.240   7.120
   14PET     C1  394   2.042  -5.374   7.272
   14PET     C7  395   2.022  -5.264   7.371
   14PET     O3  396   2.049  -5.148   7.349
   14PET     O4  397   1.969  -5.315   7.485
   14PET    C10  398   1.944  -5.222   7.591
   14PET     H8  399   1.870  -5.270   7.657
   14PET     H9  400   1.897  -5.131   7.551
   14PET    C11  401   2.071  -5.191   7.668
   14PET    H10  402   2.049  -5.119   7.747
   14PET    H11  403   2.145  -5.145   7.601
   14PET    C12  404   2.133  -5.316   7.729
   14PET    H13  405   2.223  -5.289   7.786
   14PET    H14  406   2.162  -5.388   7.652
   15PET     C9  407   2.038  -5.388   7.826
   15PET     H6  408   1.947  -5.418   7.772
   15PET     H7  409   2.010  -5.320   7.907
   15PET     O2  410   2.106  -5.502   7.877
   15PET     C8  411   2.149  -5.590   7.783
   15PET     O1  412   2.134  -5.580   7.662
   15PET     C4  413   2.221  -5.701   7.850
   15PET     C5  414   2.234  -5.707   7.989
   15PET     C6  415   2.306  -5.809   8.050
   15PET     H4  416   2.314  -5.810   8.158
   15PET     H3  417   2.189  -5.631   8.053
   15PET     C3  418   2.280  -5.802   7.772
   15PET     H2  419   2.271  -5.799   7.663
   15PET     C2  420   2.352  -5.905   7.833
   15PET     H1  421   2.398  -5.982   7.771
   15PET     C1  422   2.366  -5.909   7.972
   15PET     C7  423   2.448  -6.017   8.034
   15PET     O3  424   2.502  -6.106   7.971
   15PET     O4  425   2.451  -5.999   8.168
   15PET    C10  426   2.525  -6.096   8.243
   15PET     H8  427   2.549  -6.050   8.340
   15PET     H9  428   2.621  -6.118   8.194
   15PET    C11  429   2.443  -6.223   8.266
   15PET    H10  430   2.503  -6.295   8.322
   15PET    H11  431   2.418  -6.269   8.169
   15PET    C12  432   2.314  -6.195   8.341
   15PET    H13  433   2.259  -6.288   8.357
   15PET    H14  434   2.249  -6.127   8.285
   16PET     C9  435   2.338  -6.131   8.478
   16PET     H6  436   2.391  -6.036   8.466
   16PET     H7  437   2.399  -6.198   8.540
   16PET     O2  438   2.211  -6.110   8.539
   16PET     C8  439   2.126  -6.032   8.468
   16PET     O1  440   2.148  -5.979   8.360
   16PET     C4  441   1.996  -6.021   8.541
   16PET     C5  442   1.978  -6.084   8.665
   16PET     C6  443   1.855  -6.077   8.729
   16PET     H4  444   1.843  -6.127   8.825
   16PET     H3  445   2.058  -6.139   8.712
   16PET     C3  446   1.891  -5.950   8.483
   16PET     H2  447   1.904  -5.900   8.387
   16PET     C2  448   1.767  -5.943   8.548
   16PET     H1  449   1.685  -5.888   8.502
   16PET     C1  450   1.748  -6.007   8.671
   16PET     C7  451   1.614  -6.002   8.735
   16PET     O3  452   1.519  -5.943   8.689
   16PET     O4  453   1.617  -6.074   8.850
   16PET    C10  454   1.495  -6.078   8.926
   16PET     H8  455   1.502  -6.166   8.992
   16PET     H9  456   1.410  -6.096   8.859
   16PET    C11  457   1.477  -5.952   9.009
   16PET    H10  458   1.382  -5.958   9.064
   16PET    H11  459   1.472  -5.864   8.943
   16PET    C12  460   1.591  -5.931   9.107
   16PET    H13  461   1.574  -5.841   9.167
   16PET    H14  462   1.687  -5.919   9.055
   17PET     C9  463   1.608  -6.048   9.205
   17PET     H6  464   1.628  -6.140   9.149
   17PET     H7  465   1.516  -6.061   9.263
   17PET     O2  466   1.717  -6.017   9.291
   17PET     C8  467   1.835  -5.995   9.228
   17PET     O1  468   1.855  -5.999   9.109
   17PET     C4  469   1.938  -5.960   9.330
   17PET     C5  470   1.908  -5.958   9.467
   17PET     C6  471   2.005  -5.922   9.560
   17PET     H4  472   1.978  -5.920   9.665
   17PET     H3  473   1.809  -5.984   9.503
   17PET     C3  474   2.068  -5.928   9.288
   17PET     H2  475   2.093  -5.929   9.182
   17PET     C2  476   2.165  -5.891   9.381
   17PET     H1  477   2.265  -5.864   9.347
   17PET     C1  478   2.134  -5.886   9.518
   17PET     C7  479   2.238  -5.842   9.614
   17PET     O3  480   2.351  -5.811   9.583
   17PET     O4  481   2.186  -5.842   9.739
   17PET    C10  482   2.273  -5.802   9.845
   17PET     H8  483   2.210  -5.772   9.930
   17PET     H9  484   2.331  -5.713   9.816
   17PET    C11  485   2.364  -5.917   9.887
   17PET    H10  486   2.431  -5.883   9.967
   17PET    H11  487   2.427  -5.948   9.803
   17PET    C12  488   2.285  -6.038   9.936
   17PET    H13  489   2.353  -6.117   9.967
   17PET    H14  490   2.221  -6.078   9.857
   18PET     C9  491   2.194  -6.005  10.055
   18PET     H6  492   2.122  -5.927  10.026
   18PET     H7  493   2.255  -5.969  10.139
   18PET     O2  494   2.126  -6.125  10.091
   18PET     C8  495   2.051  -6.180   9.992
   18PET     O1  496   2.038  -6.138   9.879
   18PET     C4  497   1.989  -6.306  10.043
   18PET     C5  498   2.008  -6.348  10.175
   18PET     C6  499   1.953  -6.468  10.219
   18PET     H4  500   1.971  -6.499  10.322
   18PET     H3  501   2.067  -6.290  10.245
   18PET     C3  502   1.912  -6.384   9.956
   18PET     H2  503   1.896  -6.352   9.853
   18PET     C2  504   1.856  -6.504  10.000
   18PET     H1  505   1.797  -6.565   9.932
   18PET     C1  506   1.878  -6.548  10.132
   18PET     C7  507   1.822  -6.679  10.175
   18PET     O3  508   1.755  -6.751  10.104
   18PET     O4  509   1.857  -6.703  10.304
   18PET    C10  510   1.810  -6.825  10.361
   18PET     H8  511   1.875  -6.846  10.447
   18PET     H9  512   1.823  -6.908  10.290
   18PET    C11  513   1.665  -6.812  10.407
   18PET    H10  514   1.632  -6.908  10.449
   18PET    H11  515   1.601  -6.789  10.322
   18PET    C12  516   1.648  -6.702  10.511
   18PET    H13  517   1.543  -6.698  10.544
   18PET    H14  518   1.675  -6.604  10.471
   19PET     C9  519   1.734  -6.725  10.636
   19PET     H6  520   1.839  -6.728  10.608
   19PET     H7  521   1.706  -6.820  10.683
   19PET     O2  522   1.709  -6.617  10.726
   19PET     C8  523   1.735  -6.494  10.675
   19PET     O1  524   1.777  -6.469  10.564
   19PET     C4  525   1.701  -6.391  10.778
   19PET     C5  526   1.654  -6.428  10.905
   19PET     C6  527   1.619  -6.330  10.998
   19PET     H4  528   1.582  -6.362  11.095
   19PET     H3  529   1.643  -6.532  10.933
   19PET     C3  530   1.715  -6.255  10.746
   19PET     H2  531   1.752  -6.225  10.648
   19PET     C2  532   1.680  -6.157  10.839
   19PET     H1  533   1.690  -6.052  10.813
   19PET     C1  534   1.630  -6.194  10.965
   19PET     C7  535   1.589  -6.088  11.061
   19PET     O3  536   1.597  -5.969  11.038
   19PET     O4  537   1.541  -6.145  11.174
   19PET    C10  538   1.497  -6.056  11.277
   19PET     H8  539   1.430  -6.114  11.342
   19PET     H9  540   1.438  -5.975  11.234
   19PET    C11  541   1.615  -6.004  11.358
   19PET    H10  542   1.579  -5.935  11.435
   19PET    H11  543   1.683  -5.947  11.293
   19PET    C12  544   1.694  -6.116  11.424
   19PET    H13  545   1.777  -6.074  11.483
   19PET    H14  546   1.737  -6.184  11.349
   20PET     C9  547   1.608  -6.201  11.518
   20PET     H6  548   1.526  -6.247  11.462
   20PET     H7  549   1.567  -6.138  11.597
   20PET     O2  550   1.692  -6.302  11.574
   20PET     C8  551   1.752  -6.383  11.483
   20PET     O1  552   1.740  -6.377  11.362
   20PET     C4  553   1.839  -6.480  11.555
   20PET     C5  554   1.847  -6.482  11.695
   20PET     C6  555   1.932  -6.571  11.759
   20PET     H4  556   1.937  -6.568  11.868
   20PET     H3  557   1.788  -6.413  11.755
   20PET     C3  558   1.916  -6.571  11.480
   20PET     H2  559   1.910  -6.572  11.372
   20PET     C2  560   2.002  -6.660  11.546
   20PET     H1  561   2.062  -6.730  11.487
   20PET     C1  562   2.011  -6.660  11.686
   20PET     C7  563   2.107  -6.753  11.752
   20PET     O3  564   2.176  -6.832  11.693
   20PET     O4  565   2.102  -6.733  11.886
   20PET    C10  566   2.189  -6.815  11.965
   20PET     H8  567   2.201  -6.764  12.062
   20PET     H9  568   2.288  -6.822  11.920
   20PET    C11  569   2.127  -6.953  11.987
   20PET    H10  570   2.196  -7.014  12.047
   20PET    H11  571   2.113  -7.004  11.891
   20PET    C12  572   1.993  -6.946  12.058
   20PET    H13  573   1.953  -7.047  12.074
   20PET    H14  574   1.919  -6.890  11.998
   21PET     C9  575   2.001  -6.877  12.195
   21PET     H6  576   2.038  -6.775  12.182
   21PET     H7  577   2.069  -6.932  12.259
   21PET     O2  578   1.870  -6.876  12.250
   21PET     C8  579   1.776  -6.814  12.175
   21PET     O1  580   1.794  -6.760  12.068
   21PET     C4  581   1.644  -6.824  12.243
   21PET     C5  582   1.631  -6.886  12.368
   21PET     C6  583   1.506  -6.898  12.428
   21PET     H4  584   1.500  -6.949  12.525
   21PET     H3  585   1.718  -6.927  12.419
   21PET     C3  586   1.530  -6.771  12.181
   21PET     H2  587   1.539  -6.721  12.084
   21PET     C2  588   1.405  -6.783  12.241
   21PET     H1  589   1.317  -6.742  12.192
   21PET     C1  590   1.392  -6.848  12.365
   21PET     C7  591   1.257  -6.864  12.425
   21PET     O3  592   1.155  -6.821  12.375
   21PET     O4  593   1.267  -6.932  12.541
   21PET    C10  594   1.145  -6.956  12.613
   21PET     H8  595   1.164  -7.040  12.681
   21PET     H9  596   1.066  -6.988  12.544
   21PET    C11  597   1.104  -6.833  12.693
   21PET    H10  598   1.009  -6.853  12.745
   21PET    H11  599   1.086  -6.748  12.625
   21PET    C12  600   1.210  -6.792  12.794
   21PET    H13  601   1.176  -6.705  12.851
   21PET    H14  602   1.304  -6.765  12.745
   22PET     C9  603   1.241  -6.904  12.895
   22PET     H6  604   1.278  -6.992  12.841
   22PET     H7  605   1.150  -6.930  12.950
   22PET     O2  606   1.341  -6.855  12.984
   22PET     C8  607   1.456  -6.814  12.925
   22PET     O1  608   1.481  -6.817  12.806
   22PET     C4  609   1.548  -6.762  13.029
   22PET     C5  610   1.513  -6.763  13.165
   22PET     C6  611   1.600  -6.710  13.260
   22PET     H4  612   1.569  -6.711  13.365
   22PET     H3  613   1.418  -6.804  13.198
   22PET     C3  614   1.672  -6.709  12.990
   22PET     H2  615   1.701  -6.708  12.885
   22PET     C2  616   1.759  -6.656  13.086
   22PET     H1  617   1.855  -6.614  13.055
   22PET     C1  618   1.722  -6.655  13.222
   22PET     C7  619   1.814  -6.593  13.321
   22PET     O3  620   1.922  -6.544  13.293
   22PET     O4  621   1.758  -6.599  13.444
   22PET    C10  622   1.834  -6.544  13.552
   22PET     H8  623   1.764  -6.524  13.634
   22PET     H9  624   1.878  -6.448  13.523
   22PET    C11  625   1.941  -6.643  13.600
   22PET    H10  626   1.999  -6.597  13.681
   22PET    H11  627   2.011  -6.665  13.518
   22PET    C12  628   1.881  -6.774  13.648
   22PET    H13  629   1.960  -6.841  13.683
   22PET    H14  630   1.827  -6.825  13.567
   23PET     C9  631   1.782  -6.755  13.763
   23PET     H6  632   1.699  -6.690  13.730
   23PET     H7  633   1.832  -6.708  13.848
   23PET     O2  634   1.732  -6.883  13.799
   23PET     C8  635   1.672  -6.952  13.699
   23PET     O1  636   1.655  -6.913  13.585
   23PET     C4  637   1.629  -7.085  13.750
   23PET     C5  638   1.649  -7.122  13.883
   23PET     C6  639   1.613  -7.249  13.928
   23PET     H4  640   1.631  -7.275  14.032
   23PET     H3  641   1.695  -7.054  13.954
   23PET     C3  642   1.568  -7.176  13.662
   23PET     H2  643   1.551  -7.148  13.558
   23PET     C2  644   1.531  -7.303  13.707
   23PET     H1  645   1.485  -7.373  13.637
   23PET     C1  646   1.555  -7.341  13.840
   23PET     C7  647   1.519  -7.478  13.883
   23PET     O3  648   1.467  -7.561  13.811
   23PET     O4  649   1.553  -7.495  14.013
   23PET    C10  650   1.524  -7.622  14.072
   23PET     H8  651   1.588  -7.632  14.160
   23PET     H9  652   1.553  -7.703  14.003
   23PET    C11  653   1.378  -7.632  14.113
   23PET    H10  654   1.359  -7.731  14.155
   23PET    H11  655   1.313  -7.621  14.025
   23PET    C12  656   1.339  -7.526  14.214
   23PET    H13  657   1.234  -7.537  14.243
   23PET    H14  658   1.351  -7.425  14.172
   24PET     C9  659   1.423  -7.532  14.342
   24PET     H6  660   1.529  -7.518  14.317
   24PET     H7  661   1.410  -7.630  14.390
   24PET     O2  662   1.378  -7.428  14.429
   24PET     C8  663   1.386  -7.304  14.377
   24PET     O1  664   1.427  -7.273  14.267
   24PET     C4  665   1.332  -7.206  14.476
   24PET     C5  666   1.287  -7.248  14.602
   24PET     C6  667   1.233  -7.156  14.692
   24PET     H4  668   1.198  -7.192  14.788
   24PET     H3  669   1.292  -7.353  14.632
   24PET     C3  670   1.325  -7.070  14.442
   24PET     H2  671   1.360  -7.036  14.345
   24PET     C2  672   1.271  -6.978  14.532
   24PET     H1  673   1.265  -6.873  14.505
   24PET     C1  674   1.223  -7.021  14.657
   24PET     C7  675   1.162  -6.922  14.749
   24PET     O3  676   1.152  -6.803  14.724
   24PET     O4  677   1.120  -6.984  14.862
   24PET    C10  678   1.058  -6.902  14.962
   24PET     H8  679   0.999  -6.969  15.026
   24PET     H9  680   0.988  -6.832  14.916
   24PET    C11  681   1.164  -6.830  15.046
   24PET    H10  682   1.113  -6.767  15.120
   24PET    H11  683   1.224  -6.764  14.982
   24PET    C12  684   1.257  -6.927  15.116
   24PET    H13  685   1.329  -6.872  15.177
   24PET    H14  686   1.313  -6.988  15.045
   25PEO     C1  687   1.183  -7.024  15.209
   25PEO     H3  688   1.111  -7.083  15.151
   25PEO     H4  689   1.129  -6.967  15.286
   25PEO      O  690   1.280  -7.109  15.269
   25PEO     C2  691   1.218  -7.204  15.357
   25PEO     H5  692   1.146  -7.265  15.302
   25PEO     H6  693   1.163  -7.151  15.436
   25PEO     C3  694   1.325  -7.292  15.419
   25PEO     H7  695   1.397  -7.231  15.475
   25PEO     H8  696   1.380  -7.345  15.340
   25PEO     O1  697   1.263  -7.386  15.506
   25PEO     C4  698   1.359  -7.472  15.567
   25PEO     H9  699   1.431  -7.413  15.625
   25PEO    H10  700   1.414  -7.527  15.491
   25PEO     C5  701   1.287  -7.570  15.659
   25PEO    H11  702   1.215  -7.629  15.601
   25PEO    H12  703   1.231  -7.515  15.736
   25PEO     O2  704   1.383  -7.655  15.720
   25PEO     C6  705   1.320  -7.749  15.807
   25PEO    H13  706   1.249  -7.811  15.751
   25PEO    H14  707   1.265  -7.697  15.886
   25PEO     C7  708   1.427  -7.838  15.869
   25PEO    H15  709   1.499  -7.776  15.925
   25PEO    H16  710   1.483  -7.890  15.790
   25PEO     O3  711   1.365  -7.932  15.956
   25PEO     C8  712   1.461  -8.017  16.017
   25PEO    H17  713   1.533  -7.958  16.075
   25PEO    H18  714   1.517  -8.072  15.940
   25PEO     C9  715   1.390  -8.115  16.109
   25PEO    H19  716   1.317  -8.174  16.051
   25PEO    H20  717   1.334  -8.060  16.185
   25PEO     O4  718   1.485  -8.202  16.170
   25PEO    C10  719   1.422  -8.295  16.257
   25PEO    H21  720   1.351  -8.357  16.200
   25PEO    H22  721   1.367  -8.242  16.336
   26PET     C9  722   1.532  -8.383  16.318
   26PET     H6  723   1.602  -8.321  16.374
   26PET     H7  724   1.585  -8.436  16.239
   26PET     O2  725   1.468  -8.477  16.405
   26PET     C8  726   1.395  -8.422  16.505
   26PET     O1  727   1.379  -8.303  16.526
   26PET     C4  728   1.332  -8.531  16.585
   26PET     C5  729   1.355  -8.666  16.555
   26PET     C6  730   1.292  -8.766  16.628
   26PET     H4  731   1.311  -8.870  16.601
   26PET     H3  732   1.422  -8.695  16.474
   26PET     C3  733   1.246  -8.498  16.690
   26PET     H2  734   1.227  -8.393  16.715
   26PET     C2  735   1.182  -8.598  16.764
   26PET     H1  736   1.115  -8.571  16.845
   26PET     C1  737   1.204  -8.733  16.732
   26PET     C7  738   1.131  -8.838  16.808
   26PET     O3  739   1.055  -8.815  16.900
   26PET     O4  740   1.164  -8.960  16.759
   26PET    C10  741   1.103  -9.073  16.823
   26PET     H8  742   1.109  -9.156  16.752
   26PET     H9  743   0.996  -9.054  16.840
   26PET    C11  744   1.175  -9.110  16.952
   26PET    H10  745   1.125  -9.195  16.998
   26PET    H11  746   1.171  -9.026  17.022
   26PET    C12  747   1.322  -9.144  16.927
   26PET    H13  748   1.370  -9.172  17.022
   26PET    H14  749   1.376  -9.059  16.886
   27PET     C9  750   1.340  -9.261  16.830
   27PET     H6  751   1.295  -9.235  16.733
   27PET     H7  752   1.291  -9.350  16.870
   27PET     O2  753   1.479  -9.284  16.815
   27PET     C8  754   1.550  -9.177  16.770
   27PET     O1  755   1.506  -9.068  16.742
   27PET     C4  756   1.695  -9.214  16.763
   27PET     C5  757   1.738  -9.343  16.796
   27PET     C6  758   1.874  -9.374  16.794
   27PET     H4  759   1.905  -9.475  16.821
   27PET     H3  760   1.668  -9.420  16.826
   27PET     C3  761   1.788  -9.117  16.725
   27PET     H2  762   1.756  -9.017  16.698
   27PET     C2  763   1.925  -9.149  16.722
   27PET     H1  764   1.997  -9.072  16.693
   27PET     C1  765   1.968  -9.277  16.758
   27PET     C7  766   2.114  -9.306  16.758
   27PET     O3  767   2.200  -9.226  16.727
   27PET     O4  768   2.134  -9.434  16.799
   27PET    C10  769   2.270  -9.479  16.805
   27PET     H8  770   2.272  -9.565  16.872
   27PET     H9  771   2.334  -9.402  16.850
   27PET    C11  772   2.321  -9.519  16.667
   27PET    H10  773   2.425  -9.551  16.674
   27PET    H11  774   2.317  -9.433  16.599
   27PET    C12  775   2.237  -9.631  16.605
   27PET    H13  776   2.278  -9.658  16.507
   27PET    H14  777   2.133  -9.600  16.591
   28PEO     C1  778   2.236  -9.757  16.692
   28PEO     H3  779   2.193  -9.734  16.790
   28PEO     H4  780   2.338  -9.794  16.705
   28PEO      O  781   2.156  -9.854  16.625
   28PEO     C2  782   2.148  -9.975  16.700
   28PEO     H5  783   2.104  -9.956  16.799
   28PEO     H6  784   2.248 -10.017  16.716
   28PEO     C3  785   2.062 -10.076  16.626
   28PEO     H7  786   2.105 -10.096  16.527
   28PEO     H8  787   1.961 -10.035  16.610
   28PEO     O1  788   2.055 -10.196  16.701
   28PEO     C4  789   1.975 -10.294  16.636
   28PEO     H9  790   2.017 -10.318  16.537
   28PEO    H10  791   1.873 -10.256  16.620
   28PEO     C5  792   1.971 -10.420  16.721
   28PEO    H11  793   1.928 -10.397  16.819
   28PEO    H12  794   2.072 -10.459  16.736
   28PEO     O2  795   1.891 -10.518  16.655
   28PEO     C6  796   1.884 -10.639  16.731
   28PEO    H13  797   1.840 -10.619  16.829
   28PEO    H14  798   1.984 -10.680  16.746
   28PEO     C7  799   1.797 -10.739  16.656
   28PEO    H15  800   1.841 -10.759  16.557
   28PEO    H16  801   1.697 -10.698  16.640
   28PEO     O3  802   1.790 -10.860  16.731
   28PEO     C8  803   1.710 -10.958  16.665
   28PEO    H17  804   1.753 -10.981  16.567
   28PEO    H18  805   1.609 -10.919  16.650
   28PEO     C9  806   1.706 -11.083  16.750
   28PEO    H19  807   1.664 -11.060  16.849
   28PEO    H20  808   1.808 -11.121  16.766
   28PEO     O4  809   1.626 -11.182  16.685
   28PEO    C10  810   1.619 -11.302  16.762
   28PEO    H21  811   1.575 -11.281  16.860
   28PEO    H22  812   1.720 -11.343  16.776
   29PEO     C1  813   1.532 -11.402  16.684
   29PEO     H3  814   1.577 -11.422  16.586
   29PEO     H4  815   1.432 -11.360  16.670
   29PEO      O  816   1.525 -11.522  16.761
   29PEO     C2  817   1.446 -11.621  16.695
   29PEO     H5  818   1.489 -11.644  16.597
   29PEO     H6  819   1.345 -11.583  16.679
   29PEO     C3  820   1.442 -11.747  16.780
   29PEO     H7  821   1.398 -11.724  16.878
   29PEO     H8  822   1.543 -11.785  16.796
   29PEO     O1  823   1.363 -11.845  16.713
   29PEO     C4  824   1.355 -11.965  16.789
   29PEO     H9  825   1.310 -11.946  16.887
   29PEO    H10  826   1.455 -12.006  16.805
   29PEO     C5  827   1.270 -12.066  16.713
   29PEO    H11  828   1.314 -12.086  16.615
   29PEO    H12  829   1.169 -12.025  16.697
   29PEO     O2  830   1.262 -12.187  16.789
   29PEO     C6  831   1.183 -12.285  16.722
   29PEO    H13  832   1.226 -12.308  16.624
   29PEO    H14  833   1.081 -12.247  16.706
   29PEO     C7  834   1.178 -12.411  16.807
   29PEO    H15  835   1.135 -12.388  16.905
   29PEO    H16  836   1.280 -12.448  16.823
   29PEO     O3  837   1.100 -12.509  16.741
   29PEO     C8  838   1.092 -12.629  16.817
   29PEO    H17  839   1.048 -12.609  16.915
   29PEO    H18  840   1.193 -12.670  16.833
   29PEO     C9  841   1.007 -12.730  16.741
   29PEO    H19  842   1.052 -12.750  16.643
   29PEO    H20  843   0.907 -12.689  16.724
   29PEO     O4  844   0.999 -12.851  16.816
   29PEO    C10  845   0.920 -12.949  16.748
   29PEO    H21  846   0.964 -12.971  16.651
   29PEO    H22  847   0.818 -12.910  16.733
   30PET     C9  848   0.917 -13.075  16.836
   30PET     H6  849   0.872 -13.051  16.933
   30PET     H7  850   1.018 -13.112  16.851
   30PET     O2  851   0.838 -13.172  16.769
   30PET     C8  852   0.711 -13.134  16.741
   30PET     O1  853   0.660 -13.027  16.769
   30PET     C4  854   0.642 -13.244  16.667
   30PET     C5  855   0.706 -13.365  16.640
   30PET     C6  856   0.642 -13.464  16.567
   30PET     H4  857   0.695 -13.557  16.546
   30PET     H3  858   0.808 -13.383  16.673
   30PET     C3  859   0.510 -13.224  16.623
   30PET     H2  860   0.458 -13.131  16.644
   30PET     C2  861   0.445 -13.324  16.550
   30PET     H1  862   0.343 -13.308  16.515
   30PET     C1  863   0.511 -13.444  16.520
   30PET     C7  864   0.441 -13.547  16.438
   30PET     O3  865   0.328 -13.535  16.396
   30PET     O4  866   0.524 -13.653  16.419
   30PET    C10  867   0.472 -13.761  16.341
   30PET     H8  868   0.558 -13.818  16.305
   30PET     H9  869   0.418 -13.724  16.253
   30PET    C11  870   0.383 -13.851  16.427
   30PET    H10  871   0.343 -13.932  16.365
   30PET    H11  872   0.298 -13.794  16.465
   30PET    C12  873   0.458 -13.910  16.545
   30PET    H13  874   0.392 -13.976  16.603
   30PET    H14  875   0.494 -13.832  16.613
   4.51944  14.93861  17.61084
