%VERSION  VERSION_STAMP = V0001.000  DATE = 12/15/25  08:30:02                  
%FLAG TITLE                                                                     
%FORMAT(20a4)                                                                   
PET                                                                             
%FLAG POINTERS                                                                  
%FORMAT(10I8)                                                                   
     875       7     400     499     946     623    1638    1146       0       0
    4481      30     499     623    1146       9      15      26       8       0
       0       0       0       0       0       0       0       0      35       0
       0
%FLAG ATOM_NAME                                                                 
%FORMAT(20a4)                                                                   
C9  H6  H7  O2  C8  O1  C4  C5  C6  H4  H3  C3  H2  C2  H1  C1  C7  O3  O4  C10 
H8  H9  C11 H10 H11 C12 H13 H14 C9  H6  H7  O2  C8  O1  C4  C5  C6  H4  H3  C3  
H2  C2  H1  C1  C7  O3  O4  C10 H8  H9  C11 H10 H11 C12 H13 H14 C9  H6  H7  O2  
C8  O1  C4  C5  C6  H4  H3  C3  H2  C2  H1  C1  C7  O3  O4  C10 H8  H9  C11 H10 
H11 C12 H13 H14 C9  H6  H7  O2  C8  O1  C4  C5  C6  H4  H3  C3  H2  C2  H1  C1  
C7  O3  O4  C10 H8  H9  C11 H10 H11 C12 H13 H14 C9  H6  H7  O2  C8  O1  C4  C5  
C6  H4  H3  C3  H2  C2  H1  C1  C7  O3  O4  C10 H8  H9  C11 H10 H11 C12 H13 H14 
C9  H6  H7  O2  C8  O1  C4  C5  C6  H4  H3  C3  H2  C2  H1  C1  C7  O3  O4  C10 
H8  H9  C11 H10 H11 C12 H13 H14 C1  H3  H4  O   C2  H5  H6  C3  H7  H8  O1  C4  
H9  H10 C5  H11 H12 O2  C6  H13 H14 C7  H15 H16 O3  C8  H17 H18 C9  H19 H20 O4  
C10 H21 H22 C9  H6  H7  O2  C8  O1  C4  C5  C6  H4  H3  C3  H2  C2  H1  C1  C7  
O3  O4  C10 H8  H9  C11 H10 H11 C12 H13 H14 C9  H6  H7  O2  C8  O1  C4  C5  C6  
H4  H3  C3  H2  C2  H1  C1  C7  O3  O4  C10 H8  H9  C11 H10 H11 C12 H13 H14 C9  
H6  H7  O2  C8  O1  C4  C5  C6  H4  H3  C3  H2  C2  H1  C1  C7  O3  O4  C10 H8  
H9  C11 H10 H11 C12 H13 H14 C9  H6  H7  O2  C8  O1  C4  C5  C6  H4  H3  C3  H2  
C2  H1  C1  C7  O3  O4  C10 H8  H9  C11 H10 H11 C12 H13 H14 C9  H6  H7  O2  C8  
O1  C4  C5  C6  H4  H3  C3  H2  C2  H1  C1  C7  O3  O4  C10 H8  H9  C11 H10 H11 
C12 H13 H14 C9  H6  H7  O2  C8  O1  C4  C5  C6  H4  H3  C3  H2  C2  H1  C1  C7  
O3  O4  C10 H8  H9  C11 H10 H11 C12 H13 H14 C9  H6  H7  O2  C8  O1  C4  C5  C6  
H4  H3  C3  H2  C2  H1  C1  C7  O3  O4  C10 H8  H9  C11 H10 H11 C12 H13 H14 C9  
H6  H7  O2  C8  O1  C4  C5  C6  H4  H3  C3  H2  C2  H1  C1  C7  O3  O4  C10 H8  
H9  C11 H10 H11 C12 H13 H14 C9  H6  H7  O2  C8  O1  C4  C5  C6  H4  H3  C3  H2  
C2  H1  C1  C7  O3  O4  C10 H8  H9  C11 H10 H11 C12 H13 H14 C1  H3  H4  O   C2  
H5  H6  C3  H7  H8  O1  C4  H9  H10 C5  H11 H12 O2  C6  H13 H14 C7  H15 H16 O3  
C8  H17 H18 C9  H19 H20 O4  C10 H21 H22 C9  H6  H7  O2  C8  O1  C4  C5  C6  H4  
H3  C3  H2  C2  H1  C1  C7  O3  O4  C10 H8  H9  C11 H10 H11 C12 H13 H14 C9  H6  
H7  O2  C8  O1  C4  C5  C6  H4  H3  C3  H2  C2  H1  C1  C7  O3  O4  C10 H8  H9  
C11 H10 H11 C12 H13 H14 C9  H6  H7  O2  C8  O1  C4  C5  C6  H4  H3  C3  H2  C2  
H1  C1  C7  O3  O4  C10 H8  H9  C11 H10 H11 C12 H13 H14 C9  H6  H7  O2  C8  O1  
C4  C5  C6  H4  H3  C3  H2  C2  H1  C1  C7  O3  O4  C10 H8  H9  C11 H10 H11 C12 
H13 H14 C9  H6  H7  O2  C8  O1  C4  C5  C6  H4  H3  C3  H2  C2  H1  C1  C7  O3  
O4  C10 H8  H9  C11 H10 H11 C12 H13 H14 C1  H3  H4  O   C2  H5  H6  C3  H7  H8  
O1  C4  H9  H10 C5  H11 H12 O2  C6  H13 H14 C7  H15 H16 O3  C8  H17 H18 C9  H19 
H20 O4  C10 H21 H22 C9  H6  H7  O2  C8  O1  C4  C5  C6  H4  H3  C3  H2  C2  H1  
C1  C7  O3  O4  C10 H8  H9  C11 H10 H11 C12 H13 H14 C9  H6  H7  O2  C8  O1  C4  
C5  C6  H4  H3  C3  H2  C2  H1  C1  C7  O3  O4  C10 H8  H9  C11 H10 H11 C12 H13 
H14 C9  H6  H7  O2  C8  O1  C4  C5  C6  H4  H3  C3  H2  C2  H1  C1  C7  O3  O4  
C10 H8  H9  C11 H10 H11 C12 H13 H14 C9  H6  H7  O2  C8  O1  C4  C5  C6  H4  H3  
C3  H2  C2  H1  C1  C7  O3  O4  C10 H8  H9  C11 H10 H11 C12 H13 H14 C1  H3  H4  
O   C2  H5  H6  C3  H7  H8  O1  C4  H9  H10 C5  H11 H12 O2  C6  H13 H14 C7  H15 
H16 O3  C8  H17 H18 C9  H19 H20 O4  C10 H21 H22 C1  H3  H4  O   C2  H5  H6  C3  
H7  H8  O1  C4  H9  H10 C5  H11 H12 O2  C6  H13 H14 C7  H15 H16 O3  C8  H17 H18 
C9  H19 H20 O4  C10 H21 H22 C9  H6  H7  O2  C8  O1  C4  C5  C6  H4  H3  C3  H2  
C2  H1  C1  C7  O3  O4  C10 H8  H9  C11 H10 H11 C12 H13 H14 
%FLAG CHARGE                                                                    
%FORMAT(5E16.8)                                                                 
  2.36601988E+00  9.82601083E-01  9.82601083E-01 -7.84568415E+00  1.18708809E+01
 -9.58538536E+00 -1.83824740E+00 -1.62145670E+00 -1.62145670E+00  3.02932982E+00
  3.02005467E+00 -1.62145670E+00  3.02005467E+00 -1.62145670E+00  3.02932982E+00
 -1.83824740E+00  1.19079268E+01 -9.63914114E+00 -7.84568415E+00  2.60132444E+00
  1.20802916E+00  1.20802916E+00 -1.97799422E+00  1.06906590E+00  1.06906590E+00
 -1.66803290E+00  6.79983347E-01  6.79983347E-01  2.36601988E+00  9.82601083E-01
  9.82601083E-01 -7.84568415E+00  1.18708809E+01 -9.58538536E+00 -1.83824740E+00
 -1.62145670E+00 -1.62145670E+00  3.02932982E+00  3.02005467E+00 -1.62145670E+00
  3.02005467E+00 -1.62145670E+00  3.02932982E+00 -1.83824740E+00  1.19079268E+01
 -9.63914114E+00 -7.84568415E+00  2.60132444E+00  1.20802916E+00  1.20802916E+00
 -1.97799422E+00  1.06906590E+00  1.06906590E+00 -1.66803290E+00  6.79983347E-01
  6.79983347E-01  2.36601988E+00  9.82601083E-01  9.82601083E-01 -7.84568415E+00
  1.18708809E+01 -9.58538536E+00 -1.83824740E+00 -1.62145670E+00 -1.62145670E+00
  3.02932982E+00  3.02005467E+00 -1.62145670E+00  3.02005467E+00 -1.62145670E+00
  3.02932982E+00 -1.83824740E+00  1.19079268E+01 -9.63914114E+00 -7.84568415E+00
  2.60132444E+00  1.20802916E+00  1.20802916E+00 -1.97799422E+00  1.06906590E+00
  1.06906590E+00 -1.66803290E+00  6.79983347E-01  6.79983347E-01  2.36601988E+00
  9.82601083E-01  9.82601083E-01 -7.84568415E+00  1.18708809E+01 -9.58538536E+00
 -1.83824740E+00 -1.62145670E+00 -1.62145670E+00  3.02932982E+00  3.02005467E+00
 -1.62145670E+00  3.02005467E+00 -1.62145670E+00  3.02932982E+00 -1.83824740E+00
  1.19079268E+01 -9.63914114E+00 -7.84568415E+00  2.60132444E+00  1.20802916E+00
  1.20802916E+00 -1.97799422E+00  1.06906590E+00  1.06906590E+00 -1.66803290E+00
  6.79983347E-01  6.79983347E-01  2.36601988E+00  9.82601083E-01  9.82601083E-01
 -7.84568415E+00  1.18708809E+01 -9.58538536E+00 -1.83824740E+00 -1.62145670E+00
 -1.62145670E+00  3.02932982E+00  3.02005467E+00 -1.62145670E+00  3.02005467E+00
 -1.62145670E+00  3.02932982E+00 -1.83824740E+00  1.19079268E+01 -9.63914114E+00
 -7.84568415E+00  2.60132444E+00  1.20802916E+00  1.20802916E+00 -1.97799422E+00
  1.06906590E+00  1.06906590E+00 -1.66803290E+00  6.79983347E-01  6.79983347E-01
  2.36601988E+00  9.82601083E-01  9.82601083E-01 -7.84568415E+00  1.18708809E+01
 -9.58538536E+00 -1.83824740E+00 -1.62145670E+00 -1.62145670E+00  3.02932982E+00
  3.02005467E+00 -1.62145670E+00  3.02005467E+00 -1.62145670E+00  3.02932982E+00
 -1.83824740E+00  1.19079268E+01 -9.63914114E+00 -7.84568415E+00  2.60132444E+00
  1.20802916E+00  1.20802916E+00 -1.97799422E+00  1.06906590E+00  1.06906590E+00
 -1.66803290E+00  6.79983347E-01  6.79983347E-01  2.45724071E+00  4.76968703E-01
  4.76968703E-01 -7.66564783E+00  2.36445276E+00  7.36800478E-01  7.36800478E-01
  2.42012189E+00  7.92487827E-01  7.92487827E-01 -7.70141821E+00  2.42012189E+00
  7.92487827E-01  7.92487827E-01  2.40157158E+00  7.73919303E-01  7.73919303E-01
 -7.68354213E+00  2.40157158E+00  7.73919303E-01  7.73919303E-01  2.42012189E+00
  7.92487827E-01  7.92487827E-01 -7.70141821E+00  2.42012189E+00  7.92487827E-01
  7.92487827E-01  2.36445276E+00  7.36800478E-01  7.36800478E-01 -7.66564783E+00
  2.45724071E+00  4.76968703E-01  4.76968703E-01  2.36601988E+00  9.82601083E-01
  9.82601083E-01 -7.84568415E+00  1.18708809E+01 -9.58538536E+00 -1.83824740E+00
 -1.62145670E+00 -1.62145670E+00  3.02932982E+00  3.02005467E+00 -1.62145670E+00
  3.02005467E+00 -1.62145670E+00  3.02932982E+00 -1.83824740E+00  1.19079268E+01
 -9.63914114E+00 -7.84568415E+00  2.60132444E+00  1.20802916E+00  1.20802916E+00
 -1.97799422E+00  1.06906590E+00  1.06906590E+00 -1.66803290E+00  6.79983347E-01
  6.79983347E-01  2.36601988E+00  9.82601083E-01  9.82601083E-01 -7.84568415E+00
  1.18708809E+01 -9.58538536E+00 -1.83824740E+00 -1.62145670E+00 -1.62145670E+00
  3.02932982E+00  3.02005467E+00 -1.62145670E+00  3.02005467E+00 -1.62145670E+00
  3.02932982E+00 -1.83824740E+00  1.19079268E+01 -9.63914114E+00 -7.84568415E+00
  2.60132444E+00  1.20802916E+00  1.20802916E+00 -1.97799422E+00  1.06906590E+00
  1.06906590E+00 -1.66803290E+00  6.79983347E-01  6.79983347E-01  2.36601988E+00
  9.82601083E-01  9.82601083E-01 -7.84568415E+00  1.18708809E+01 -9.58538536E+00
 -1.83824740E+00 -1.62145670E+00 -1.62145670E+00  3.02932982E+00  3.02005467E+00
 -1.62145670E+00  3.02005467E+00 -1.62145670E+00  3.02932982E+00 -1.83824740E+00
  1.19079268E+01 -9.63914114E+00 -7.84568415E+00  2.60132444E+00  1.20802916E+00
  1.20802916E+00 -1.97799422E+00  1.06906590E+00  1.06906590E+00 -1.66803290E+00
  6.79983347E-01  6.79983347E-01  2.36601988E+00  9.82601083E-01  9.82601083E-01
 -7.84568415E+00  1.18708809E+01 -9.58538536E+00 -1.83824740E+00 -1.62145670E+00
 -1.62145670E+00  3.02932982E+00  3.02005467E+00 -1.62145670E+00  3.02005467E+00
 -1.62145670E+00  3.02932982E+00 -1.83824740E+00  1.19079268E+01 -9.63914114E+00
 -7.84568415E+00  2.60132444E+00  1.20802916E+00  1.20802916E+00 -1.97799422E+00
  1.06906590E+00  1.06906590E+00 -1.66803290E+00  6.79983347E-01  6.79983347E-01
  2.36601988E+00  9.82601083E-01  9.82601083E-01 -7.84568415E+00  1.18708809E+01
 -9.58538536E+00 -1.83824740E+00 -1.62145670E+00 -1.62145670E+00  3.02932982E+00
  3.02005467E+00 -1.62145670E+00  3.02005467E+00 -1.62145670E+00  3.02932982E+00
 -1.83824740E+00  1.19079268E+01 -9.63914114E+00 -7.84568415E+00  2.60132444E+00
  1.20802916E+00  1.20802916E+00 -1.97799422E+00  1.06906590E+00  1.06906590E+00
 -1.66803290E+00  6.79983347E-01  6.79983347E-01  2.36601988E+00  9.82601083E-01
  9.82601083E-01 -7.84568415E+00  1.18708809E+01 -9.58538536E+00 -1.83824740E+00
 -1.62145670E+00 -1.62145670E+00  3.02932982E+00  3.02005467E+00 -1.62145670E+00
  3.02005467E+00 -1.62145670E+00  3.02932982E+00 -1.83824740E+00  1.19079268E+01
 -9.63914114E+00 -7.84568415E+00  2.60132444E+00  1.20802916E+00  1.20802916E+00
 -1.97799422E+00  1.06906590E+00  1.06906590E+00 -1.66803290E+00  6.79983347E-01
  6.79983347E-01  2.36601988E+00  9.82601083E-01  9.82601083E-01 -7.84568415E+00
  1.18708809E+01 -9.58538536E+00 -1.83824740E+00 -1.62145670E+00 -1.62145670E+00
  3.02932982E+00  3.02005467E+00 -1.62145670E+00  3.02005467E+00 -1.62145670E+00
  3.02932982E+00 -1.83824740E+00  1.19079268E+01 -9.63914114E+00 -7.84568415E+00
  2.60132444E+00  1.20802916E+00  1.20802916E+00 -1.97799422E+00  1.06906590E+00
  1.06906590E+00 -1.66803290E+00  6.79983347E-01  6.79983347E-01  2.36601988E+00
  9.82601083E-01  9.82601083E-01 -7.84568415E+00  1.18708809E+01 -9.58538536E+00
 -1.83824740E+00 -1.62145670E+00 -1.62145670E+00  3.02932982E+00  3.02005467E+00
 -1.62145670E+00  3.02005467E+00 -1.62145670E+00  3.02932982E+00 -1.83824740E+00
  1.19079268E+01 -9.63914114E+00 -7.84568415E+00  2.60132444E+00  1.20802916E+00
  1.20802916E+00 -1.97799422E+00  1.06906590E+00  1.06906590E+00 -1.66803290E+00
  6.79983347E-01  6.79983347E-01  2.36601988E+00  9.82601083E-01  9.82601083E-01
 -7.84568415E+00  1.18708809E+01 -9.58538536E+00 -1.83824740E+00 -1.62145670E+00
 -1.62145670E+00  3.02932982E+00  3.02005467E+00 -1.62145670E+00  3.02005467E+00
 -1.62145670E+00  3.02932982E+00 -1.83824740E+00  1.19079268E+01 -9.63914114E+00
 -7.84568415E+00  2.60132444E+00  1.20802916E+00  1.20802916E+00 -1.97799422E+00
  1.06906590E+00  1.06906590E+00 -1.66803290E+00  6.79983347E-01  6.79983347E-01
  2.45724071E+00  4.76968703E-01  4.76968703E-01 -7.66564783E+00  2.36445276E+00
  7.36800478E-01  7.36800478E-01  2.42012189E+00  7.92487827E-01  7.92487827E-01
 -7.70141821E+00  2.42012189E+00  7.92487827E-01  7.92487827E-01  2.40157158E+00
  7.73919303E-01  7.73919303E-01 -7.68354213E+00  2.40157158E+00  7.73919303E-01
  7.73919303E-01  2.42012189E+00  7.92487827E-01  7.92487827E-01 -7.70141821E+00
  2.42012189E+00  7.92487827E-01  7.92487827E-01  2.36445276E+00  7.36800478E-01
  7.36800478E-01 -7.66564783E+00  2.45724071E+00  4.76968703E-01  4.76968703E-01
  2.36601988E+00  9.82601083E-01  9.82601083E-01 -7.84568415E+00  1.18708809E+01
 -9.58538536E+00 -1.83824740E+00 -1.62145670E+00 -1.62145670E+00  3.02932982E+00
  3.02005467E+00 -1.62145670E+00  3.02005467E+00 -1.62145670E+00  3.02932982E+00
 -1.83824740E+00  1.19079268E+01 -9.63914114E+00 -7.84568415E+00  2.60132444E+00
  1.20802916E+00  1.20802916E+00 -1.97799422E+00  1.06906590E+00  1.06906590E+00
 -1.66803290E+00  6.79983347E-01  6.79983347E-01  2.36601988E+00  9.82601083E-01
  9.82601083E-01 -7.84568415E+00  1.18708809E+01 -9.58538536E+00 -1.83824740E+00
 -1.62145670E+00 -1.62145670E+00  3.02932982E+00  3.02005467E+00 -1.62145670E+00
  3.02005467E+00 -1.62145670E+00  3.02932982E+00 -1.83824740E+00  1.19079268E+01
 -9.63914114E+00 -7.84568415E+00  2.60132444E+00  1.20802916E+00  1.20802916E+00
 -1.97799422E+00  1.06906590E+00  1.06906590E+00 -1.66803290E+00  6.79983347E-01
  6.79983347E-01  2.36601988E+00  9.82601083E-01  9.82601083E-01 -7.84568415E+00
  1.18708809E+01 -9.58538536E+00 -1.83824740E+00 -1.62145670E+00 -1.62145670E+00
  3.02932982E+00  3.02005467E+00 -1.62145670E+00  3.02005467E+00 -1.62145670E+00
  3.02932982E+00 -1.83824740E+00  1.19079268E+01 -9.63914114E+00 -7.84568415E+00
  2.60132444E+00  1.20802916E+00  1.20802916E+00 -1.97799422E+00  1.06906590E+00
  1.06906590E+00 -1.66803290E+00  6.79983347E-01  6.79983347E-01  2.36601988E+00
  9.82601083E-01  9.82601083E-01 -7.84568415E+00  1.18708809E+01 -9.58538536E+00
 -1.83824740E+00 -1.62145670E+00 -1.62145670E+00  3.02932982E+00  3.02005467E+00
 -1.62145670E+00  3.02005467E+00 -1.62145670E+00  3.02932982E+00 -1.83824740E+00
  1.19079268E+01 -9.63914114E+00 -7.84568415E+00  2.60132444E+00  1.20802916E+00
  1.20802916E+00 -1.97799422E+00  1.06906590E+00  1.06906590E+00 -1.66803290E+00
  6.79983347E-01  6.79983347E-01  2.36601988E+00  9.82601083E-01  9.82601083E-01
 -7.84568415E+00  1.18708809E+01 -9.58538536E+00 -1.83824740E+00 -1.62145670E+00
 -1.62145670E+00  3.02932982E+00  3.02005467E+00 -1.62145670E+00  3.02005467E+00
 -1.62145670E+00  3.02932982E+00 -1.83824740E+00  1.19079268E+01 -9.63914114E+00
 -7.84568415E+00  2.60132444E+00  1.20802916E+00  1.20802916E+00 -1.97799422E+00
  1.06906590E+00  1.06906590E+00 -1.66803290E+00  6.79983347E-01  6.79983347E-01
  2.45724071E+00  4.76968703E-01  4.76968703E-01 -7.66564783E+00  2.36445276E+00
  7.36800478E-01  7.36800478E-01  2.42012189E+00  7.92487827E-01  7.92487827E-01
 -7.70141821E+00  2.42012189E+00  7.92487827E-01  7.92487827E-01  2.40157158E+00
  7.73919303E-01  7.73919303E-01 -7.68354213E+00  2.40157158E+00  7.73919303E-01
  7.73919303E-01  2.42012189E+00  7.92487827E-01  7.92487827E-01 -7.70141821E+00
  2.42012189E+00  7.92487827E-01  7.92487827E-01  2.36445276E+00  7.36800478E-01
  7.36800478E-01 -7.66564783E+00  2.45724071E+00  4.76968703E-01  4.76968703E-01
  2.36601988E+00  9.82601083E-01  9.82601083E-01 -7.84568415E+00  1.18708809E+01
 -9.58538536E+00 -1.83824740E+00 -1.62145670E+00 -1.62145670E+00  3.02932982E+00
  3.02005467E+00 -1.62145670E+00  3.02005467E+00 -1.62145670E+00  3.02932982E+00
 -1.83824740E+00  1.19079268E+01 -9.63914114E+00 -7.84568415E+00  2.60132444E+00
  1.20802916E+00  1.20802916E+00 -1.97799422E+00  1.06906590E+00  1.06906590E+00
 -1.66803290E+00  6.79983347E-01  6.79983347E-01  2.36601988E+00  9.82601083E-01
  9.82601083E-01 -7.84568415E+00  1.18708809E+01 -9.58538536E+00 -1.83824740E+00
 -1.62145670E+00 -1.62145670E+00  3.02932982E+00  3.02005467E+00 -1.62145670E+00
  3.02005467E+00 -1.62145670E+00  3.02932982E+00 -1.83824740E+00  1.19079268E+01
 -9.63914114E+00 -7.84568415E+00  2.60132444E+00  1.20802916E+00  1.20802916E+00
 -1.97799422E+00  1.06906590E+00  1.06906590E+00 -1.66803290E+00  6.79983347E-01
  6.79983347E-01  2.36601988E+00  9.82601083E-01  9.82601083E-01 -7.84568415E+00
  1.18708809E+01 -9.58538536E+00 -1.83824740E+00 -1.62145670E+00 -1.62145670E+00
  3.02932982E+00  3.02005467E+00 -1.62145670E+00  3.02005467E+00 -1.62145670E+00
  3.02932982E+00 -1.83824740E+00  1.19079268E+01 -9.63914114E+00 -7.84568415E+00
  2.60132444E+00  1.20802916E+00  1.20802916E+00 -1.97799422E+00  1.06906590E+00
  1.06906590E+00 -1.66803290E+00  6.79983347E-01  6.79983347E-01  2.36601988E+00
  9.82601083E-01  9.82601083E-01 -7.84568415E+00  1.18708809E+01 -9.58538536E+00
 -1.83824740E+00 -1.62145670E+00 -1.62145670E+00  3.02932982E+00  3.02005467E+00
 -1.62145670E+00  3.02005467E+00 -1.62145670E+00  3.02932982E+00 -1.83824740E+00
  1.19079268E+01 -9.63914114E+00 -7.84568415E+00  2.60132444E+00  1.20802916E+00
  1.20802916E+00 -1.97799422E+00  1.06906590E+00  1.06906590E+00 -1.66803290E+00
  6.79983347E-01  6.79983347E-01  2.45724071E+00  4.76968703E-01  4.76968703E-01
 -7.66564783E+00  2.36445276E+00  7.36800478E-01  7.36800478E-01  2.42012189E+00
  7.92487827E-01  7.92487827E-01 -7.70141821E+00  2.42012189E+00  7.92487827E-01
  7.92487827E-01  2.40157158E+00  7.73919303E-01  7.73919303E-01 -7.68354213E+00
  2.40157158E+00  7.73919303E-01  7.73919303E-01  2.42012189E+00  7.92487827E-01
  7.92487827E-01 -7.70141821E+00  2.42012189E+00  7.92487827E-01  7.92487827E-01
  2.36445276E+00  7.36800478E-01  7.36800478E-01 -7.66564783E+00  2.45724071E+00
  4.76968703E-01  4.76968703E-01  2.45724071E+00  4.76968703E-01  4.76968703E-01
 -7.66564783E+00  2.36445276E+00  7.36800478E-01  7.36800478E-01  2.42012189E+00
  7.92487827E-01  7.92487827E-01 -7.70141821E+00  2.42012189E+00  7.92487827E-01
  7.92487827E-01  2.40157158E+00  7.73919303E-01  7.73919303E-01 -7.68354213E+00
  2.40157158E+00  7.73919303E-01  7.73919303E-01  2.42012189E+00  7.92487827E-01
  7.92487827E-01 -7.70141821E+00  2.42012189E+00  7.92487827E-01  7.92487827E-01
  2.36445276E+00  7.36800478E-01  7.36800478E-01 -7.66564783E+00  2.45724071E+00
  4.76968703E-01  4.76968703E-01  2.36601988E+00  9.82601083E-01  9.82601083E-01
 -7.84568415E+00  1.18708809E+01 -9.58538536E+00 -1.83824740E+00 -1.62145670E+00
 -1.62145670E+00  3.02932982E+00  3.02005467E+00 -1.62145670E+00  3.02005467E+00
 -1.62145670E+00  3.02932982E+00 -1.83824740E+00  1.19079268E+01 -9.63914114E+00
 -7.84568415E+00  2.60132444E+00  1.20802916E+00  1.20802916E+00 -1.97799422E+00
  1.06906590E+00  1.06906590E+00 -1.66803290E+00  6.79983347E-01  6.79983347E-01
%FLAG ATOMIC_NUMBER                                                             
%FORMAT(10I8)                                                                   
       6       1       1       8       6       8       6       6       6       1
       1       6       1       6       1       6       6       8       8       6
       1       1       6       1       1       6       1       1       6       1
       1       8       6       8       6       6       6       1       1       6
       1       6       1       6       6       8       8       6       1       1
       6       1       1       6       1       1       6       1       1       8
       6       8       6       6       6       1       1       6       1       6
       1       6       6       8       8       6       1       1       6       1
       1       6       1       1       6       1       1       8       6       8
       6       6       6       1       1       6       1       6       1       6
       6       8       8       6       1       1       6       1       1       6
       1       1       6       1       1       8       6       8       6       6
       6       1       1       6       1       6       1       6       6       8
       8       6       1       1       6       1       1       6       1       1
       6       1       1       8       6       8       6       6       6       1
       1       6       1       6       1       6       6       8       8       6
       1       1       6       1       1       6       1       1       6       1
       1       8       6       1       1       6       1       1       8       6
       1       1       6       1       1       8       6       1       1       6
       1       1       8       6       1       1       6       1       1       8
       6       1       1       6       1       1       8       6       8       6
       6       6       1       1       6       1       6       1       6       6
       8       8       6       1       1       6       1       1       6       1
       1       6       1       1       8       6       8       6       6       6
       1       1       6       1       6       1       6       6       8       8
       6       1       1       6       1       1       6       1       1       6
       1       1       8       6       8       6       6       6       1       1
       6       1       6       1       6       6       8       8       6       1
       1       6       1       1       6       1       1       6       1       1
       8       6       8       6       6       6       1       1       6       1
       6       1       6       6       8       8       6       1       1       6
       1       1       6       1       1       6       1       1       8       6
       8       6       6       6       1       1       6       1       6       1
       6       6       8       8       6       1       1       6       1       1
       6       1       1       6       1       1       8       6       8       6
       6       6       1       1       6       1       6       1       6       6
       8       8       6       1       1       6       1       1       6       1
       1       6       1       1       8       6       8       6       6       6
       1       1       6       1       6       1       6       6       8       8
       6       1       1       6       1       1       6       1       1       6
       1       1       8       6       8       6       6       6       1       1
       6       1       6       1       6       6       8       8       6       1
       1       6       1       1       6       1       1       6       1       1
       8       6       8       6       6       6       1       1       6       1
       6       1       6       6       8       8       6       1       1       6
       1       1       6       1       1       6       1       1       8       6
       1       1       6       1       1       8       6       1       1       6
       1       1       8       6       1       1       6       1       1       8
       6       1       1       6       1       1       8       6       1       1
       6       1       1       8       6       8       6       6       6       1
       1       6       1       6       1       6       6       8       8       6
       1       1       6       1       1       6       1       1       6       1
       1       8       6       8       6       6       6       1       1       6
       1       6       1       6       6       8       8       6       1       1
       6       1       1       6       1       1       6       1       1       8
       6       8       6       6       6       1       1       6       1       6
       1       6       6       8       8       6       1       1       6       1
       1       6       1       1       6       1       1       8       6       8
       6       6       6       1       1       6       1       6       1       6
       6       8       8       6       1       1       6       1       1       6
       1       1       6       1       1       8       6       8       6       6
       6       1       1       6       1       6       1       6       6       8
       8       6       1       1       6       1       1       6       1       1
       6       1       1       8       6       1       1       6       1       1
       8       6       1       1       6       1       1       8       6       1
       1       6       1       1       8       6       1       1       6       1
       1       8       6       1       1       6       1       1       8       6
       8       6       6       6       1       1       6       1       6       1
       6       6       8       8       6       1       1       6       1       1
       6       1       1       6       1       1       8       6       8       6
       6       6       1       1       6       1       6       1       6       6
       8       8       6       1       1       6       1       1       6       1
       1       6       1       1       8       6       8       6       6       6
       1       1       6       1       6       1       6       6       8       8
       6       1       1       6       1       1       6       1       1       6
       1       1       8       6       8       6       6       6       1       1
       6       1       6       1       6       6       8       8       6       1
       1       6       1       1       6       1       1       6       1       1
       8       6       1       1       6       1       1       8       6       1
       1       6       1       1       8       6       1       1       6       1
       1       8       6       1       1       6       1       1       8       6
       1       1       6       1       1       8       6       1       1       6
       1       1       8       6       1       1       6       1       1       8
       6       1       1       6       1       1       8       6       1       1
       6       1       1       8       6       1       1       6       1       1
       8       6       8       6       6       6       1       1       6       1
       6       1       6       6       8       8       6       1       1       6
       1       1       6       1       1
%FLAG MASS                                                                      
%FORMAT(5E16.8)                                                                 
  1.20100000E+01  1.00800000E+00  1.00800000E+00  1.60000000E+01  1.20100000E+01
  1.60000000E+01  1.20100000E+01  1.20100000E+01  1.20100000E+01  1.00800000E+00
  1.00800000E+00  1.20100000E+01  1.00800000E+00  1.20100000E+01  1.00800000E+00
  1.20100000E+01  1.20100000E+01  1.60000000E+01  1.60000000E+01  1.20100000E+01
  1.00800000E+00  1.00800000E+00  1.20100000E+01  1.00800000E+00  1.00800000E+00
  1.20100000E+01  1.00800000E+00  1.00800000E+00  1.20100000E+01  1.00800000E+00
  1.00800000E+00  1.60000000E+01  1.20100000E+01  1.60000000E+01  1.20100000E+01
  1.20100000E+01  1.20100000E+01  1.00800000E+00  1.00800000E+00  1.20100000E+01
  1.00800000E+00  1.20100000E+01  1.00800000E+00  1.20100000E+01  1.20100000E+01
  1.60000000E+01  1.60000000E+01  1.20100000E+01  1.00800000E+00  1.00800000E+00
  1.20100000E+01  1.00800000E+00  1.00800000E+00  1.20100000E+01  1.00800000E+00
  1.00800000E+00  1.20100000E+01  1.00800000E+00  1.00800000E+00  1.60000000E+01
  1.20100000E+01  1.60000000E+01  1.20100000E+01  1.20100000E+01  1.20100000E+01
  1.00800000E+00  1.00800000E+00  1.20100000E+01  1.00800000E+00  1.20100000E+01
  1.00800000E+00  1.20100000E+01  1.20100000E+01  1.60000000E+01  1.60000000E+01
  1.20100000E+01  1.00800000E+00  1.00800000E+00  1.20100000E+01  1.00800000E+00
  1.00800000E+00  1.20100000E+01  1.00800000E+00  1.00800000E+00  1.20100000E+01
  1.00800000E+00  1.00800000E+00  1.60000000E+01  1.20100000E+01  1.60000000E+01
  1.20100000E+01  1.20100000E+01  1.20100000E+01  1.00800000E+00  1.00800000E+00
  1.20100000E+01  1.00800000E+00  1.20100000E+01  1.00800000E+00  1.20100000E+01
  1.20100000E+01  1.60000000E+01  1.60000000E+01  1.20100000E+01  1.00800000E+00
  1.00800000E+00  1.20100000E+01  1.00800000E+00  1.00800000E+00  1.20100000E+01
  1.00800000E+00  1.00800000E+00  1.20100000E+01  1.00800000E+00  1.00800000E+00
  1.60000000E+01  1.20100000E+01  1.60000000E+01  1.20100000E+01  1.20100000E+01
  1.20100000E+01  1.00800000E+00  1.00800000E+00  1.20100000E+01  1.00800000E+00
  1.20100000E+01  1.00800000E+00  1.20100000E+01  1.20100000E+01  1.60000000E+01
  1.60000000E+01  1.20100000E+01  1.00800000E+00  1.00800000E+00  1.20100000E+01
  1.00800000E+00  1.00800000E+00  1.20100000E+01  1.00800000E+00  1.00800000E+00
  1.20100000E+01  1.00800000E+00  1.00800000E+00  1.60000000E+01  1.20100000E+01
  1.60000000E+01  1.20100000E+01  1.20100000E+01  1.20100000E+01  1.00800000E+00
  1.00800000E+00  1.20100000E+01  1.00800000E+00  1.20100000E+01  1.00800000E+00
  1.20100000E+01  1.20100000E+01  1.60000000E+01  1.60000000E+01  1.20100000E+01
  1.00800000E+00  1.00800000E+00  1.20100000E+01  1.00800000E+00  1.00800000E+00
  1.20100000E+01  1.00800000E+00  1.00800000E+00  1.20100000E+01  1.00800000E+00
  1.00800000E+00  1.60000000E+01  1.20100000E+01  1.00800000E+00  1.00800000E+00
  1.20100000E+01  1.00800000E+00  1.00800000E+00  1.60000000E+01  1.20100000E+01
  1.00800000E+00  1.00800000E+00  1.20100000E+01  1.00800000E+00  1.00800000E+00
  1.60000000E+01  1.20100000E+01  1.00800000E+00  1.00800000E+00  1.20100000E+01
  1.00800000E+00  1.00800000E+00  1.60000000E+01  1.20100000E+01  1.00800000E+00
  1.00800000E+00  1.20100000E+01  1.00800000E+00  1.00800000E+00  1.60000000E+01
  1.20100000E+01  1.00800000E+00  1.00800000E+00  1.20100000E+01  1.00800000E+00
  1.00800000E+00  1.60000000E+01  1.20100000E+01  1.60000000E+01  1.20100000E+01
  1.20100000E+01  1.20100000E+01  1.00800000E+00  1.00800000E+00  1.20100000E+01
  1.00800000E+00  1.20100000E+01  1.00800000E+00  1.20100000E+01  1.20100000E+01
  1.60000000E+01  1.60000000E+01  1.20100000E+01  1.00800000E+00  1.00800000E+00
  1.20100000E+01  1.00800000E+00  1.00800000E+00  1.20100000E+01  1.00800000E+00
  1.00800000E+00  1.20100000E+01  1.00800000E+00  1.00800000E+00  1.60000000E+01
  1.20100000E+01  1.60000000E+01  1.20100000E+01  1.20100000E+01  1.20100000E+01
  1.00800000E+00  1.00800000E+00  1.20100000E+01  1.00800000E+00  1.20100000E+01
  1.00800000E+00  1.20100000E+01  1.20100000E+01  1.60000000E+01  1.60000000E+01
  1.20100000E+01  1.00800000E+00  1.00800000E+00  1.20100000E+01  1.00800000E+00
  1.00800000E+00  1.20100000E+01  1.00800000E+00  1.00800000E+00  1.20100000E+01
  1.00800000E+00  1.00800000E+00  1.60000000E+01  1.20100000E+01  1.60000000E+01
  1.20100000E+01  1.20100000E+01  1.20100000E+01  1.00800000E+00  1.00800000E+00
  1.20100000E+01  1.00800000E+00  1.20100000E+01  1.00800000E+00  1.20100000E+01
  1.20100000E+01  1.60000000E+01  1.60000000E+01  1.20100000E+01  1.00800000E+00
  1.00800000E+00  1.20100000E+01  1.00800000E+00  1.00800000E+00  1.20100000E+01
  1.00800000E+00  1.00800000E+00  1.20100000E+01  1.00800000E+00  1.00800000E+00
  1.60000000E+01  1.20100000E+01  1.60000000E+01  1.20100000E+01  1.20100000E+01
  1.20100000E+01  1.00800000E+00  1.00800000E+00  1.20100000E+01  1.00800000E+00
  1.20100000E+01  1.00800000E+00  1.20100000E+01  1.20100000E+01  1.60000000E+01
  1.60000000E+01  1.20100000E+01  1.00800000E+00  1.00800000E+00  1.20100000E+01
  1.00800000E+00  1.00800000E+00  1.20100000E+01  1.00800000E+00  1.00800000E+00
  1.20100000E+01  1.00800000E+00  1.00800000E+00  1.60000000E+01  1.20100000E+01
  1.60000000E+01  1.20100000E+01  1.20100000E+01  1.20100000E+01  1.00800000E+00
  1.00800000E+00  1.20100000E+01  1.00800000E+00  1.20100000E+01  1.00800000E+00
  1.20100000E+01  1.20100000E+01  1.60000000E+01  1.60000000E+01  1.20100000E+01
  1.00800000E+00  1.00800000E+00  1.20100000E+01  1.00800000E+00  1.00800000E+00
  1.20100000E+01  1.00800000E+00  1.00800000E+00  1.20100000E+01  1.00800000E+00
  1.00800000E+00  1.60000000E+01  1.20100000E+01  1.60000000E+01  1.20100000E+01
  1.20100000E+01  1.20100000E+01  1.00800000E+00  1.00800000E+00  1.20100000E+01
  1.00800000E+00  1.20100000E+01  1.00800000E+00  1.20100000E+01  1.20100000E+01
  1.60000000E+01  1.60000000E+01  1.20100000E+01  1.00800000E+00  1.00800000E+00
  1.20100000E+01  1.00800000E+00  1.00800000E+00  1.20100000E+01  1.00800000E+00
  1.00800000E+00  1.20100000E+01  1.00800000E+00  1.00800000E+00  1.60000000E+01
  1.20100000E+01  1.60000000E+01  1.20100000E+01  1.20100000E+01  1.20100000E+01
  1.00800000E+00  1.00800000E+00  1.20100000E+01  1.00800000E+00  1.20100000E+01
  1.00800000E+00  1.20100000E+01  1.20100000E+01  1.60000000E+01  1.60000000E+01
  1.20100000E+01  1.00800000E+00  1.00800000E+00  1.20100000E+01  1.00800000E+00
  1.00800000E+00  1.20100000E+01  1.00800000E+00  1.00800000E+00  1.20100000E+01
  1.00800000E+00  1.00800000E+00  1.60000000E+01  1.20100000E+01  1.60000000E+01
  1.20100000E+01  1.20100000E+01  1.20100000E+01  1.00800000E+00  1.00800000E+00
  1.20100000E+01  1.00800000E+00  1.20100000E+01  1.00800000E+00  1.20100000E+01
  1.20100000E+01  1.60000000E+01  1.60000000E+01  1.20100000E+01  1.00800000E+00
  1.00800000E+00  1.20100000E+01  1.00800000E+00  1.00800000E+00  1.20100000E+01
  1.00800000E+00  1.00800000E+00  1.20100000E+01  1.00800000E+00  1.00800000E+00
  1.60000000E+01  1.20100000E+01  1.60000000E+01  1.20100000E+01  1.20100000E+01
  1.20100000E+01  1.00800000E+00  1.00800000E+00  1.20100000E+01  1.00800000E+00
  1.20100000E+01  1.00800000E+00  1.20100000E+01  1.20100000E+01  1.60000000E+01
  1.60000000E+01  1.20100000E+01  1.00800000E+00  1.00800000E+00  1.20100000E+01
  1.00800000E+00  1.00800000E+00  1.20100000E+01  1.00800000E+00  1.00800000E+00
  1.20100000E+01  1.00800000E+00  1.00800000E+00  1.60000000E+01  1.20100000E+01
  1.00800000E+00  1.00800000E+00  1.20100000E+01  1.00800000E+00  1.00800000E+00
  1.60000000E+01  1.20100000E+01  1.00800000E+00  1.00800000E+00  1.20100000E+01
  1.00800000E+00  1.00800000E+00  1.60000000E+01  1.20100000E+01  1.00800000E+00
  1.00800000E+00  1.20100000E+01  1.00800000E+00  1.00800000E+00  1.60000000E+01
  1.20100000E+01  1.00800000E+00  1.00800000E+00  1.20100000E+01  1.00800000E+00
  1.00800000E+00  1.60000000E+01  1.20100000E+01  1.00800000E+00  1.00800000E+00
  1.20100000E+01  1.00800000E+00  1.00800000E+00  1.60000000E+01  1.20100000E+01
  1.60000000E+01  1.20100000E+01  1.20100000E+01  1.20100000E+01  1.00800000E+00
  1.00800000E+00  1.20100000E+01  1.00800000E+00  1.20100000E+01  1.00800000E+00
  1.20100000E+01  1.20100000E+01  1.60000000E+01  1.60000000E+01  1.20100000E+01
  1.00800000E+00  1.00800000E+00  1.20100000E+01  1.00800000E+00  1.00800000E+00
  1.20100000E+01  1.00800000E+00  1.00800000E+00  1.20100000E+01  1.00800000E+00
  1.00800000E+00  1.60000000E+01  1.20100000E+01  1.60000000E+01  1.20100000E+01
  1.20100000E+01  1.20100000E+01  1.00800000E+00  1.00800000E+00  1.20100000E+01
  1.00800000E+00  1.20100000E+01  1.00800000E+00  1.20100000E+01  1.20100000E+01
  1.60000000E+01  1.60000000E+01  1.20100000E+01  1.00800000E+00  1.00800000E+00
  1.20100000E+01  1.00800000E+00  1.00800000E+00  1.20100000E+01  1.00800000E+00
  1.00800000E+00  1.20100000E+01  1.00800000E+00  1.00800000E+00  1.60000000E+01
  1.20100000E+01  1.60000000E+01  1.20100000E+01  1.20100000E+01  1.20100000E+01
  1.00800000E+00  1.00800000E+00  1.20100000E+01  1.00800000E+00  1.20100000E+01
  1.00800000E+00  1.20100000E+01  1.20100000E+01  1.60000000E+01  1.60000000E+01
  1.20100000E+01  1.00800000E+00  1.00800000E+00  1.20100000E+01  1.00800000E+00
  1.00800000E+00  1.20100000E+01  1.00800000E+00  1.00800000E+00  1.20100000E+01
  1.00800000E+00  1.00800000E+00  1.60000000E+01  1.20100000E+01  1.60000000E+01
  1.20100000E+01  1.20100000E+01  1.20100000E+01  1.00800000E+00  1.00800000E+00
  1.20100000E+01  1.00800000E+00  1.20100000E+01  1.00800000E+00  1.20100000E+01
  1.20100000E+01  1.60000000E+01  1.60000000E+01  1.20100000E+01  1.00800000E+00
  1.00800000E+00  1.20100000E+01  1.00800000E+00  1.00800000E+00  1.20100000E+01
  1.00800000E+00  1.00800000E+00  1.20100000E+01  1.00800000E+00  1.00800000E+00
  1.60000000E+01  1.20100000E+01  1.60000000E+01  1.20100000E+01  1.20100000E+01
  1.20100000E+01  1.00800000E+00  1.00800000E+00  1.20100000E+01  1.00800000E+00
  1.20100000E+01  1.00800000E+00  1.20100000E+01  1.20100000E+01  1.60000000E+01
  1.60000000E+01  1.20100000E+01  1.00800000E+00  1.00800000E+00  1.20100000E+01
  1.00800000E+00  1.00800000E+00  1.20100000E+01  1.00800000E+00  1.00800000E+00
  1.20100000E+01  1.00800000E+00  1.00800000E+00  1.60000000E+01  1.20100000E+01
  1.00800000E+00  1.00800000E+00  1.20100000E+01  1.00800000E+00  1.00800000E+00
  1.60000000E+01  1.20100000E+01  1.00800000E+00  1.00800000E+00  1.20100000E+01
  1.00800000E+00  1.00800000E+00  1.60000000E+01  1.20100000E+01  1.00800000E+00
  1.00800000E+00  1.20100000E+01  1.00800000E+00  1.00800000E+00  1.60000000E+01
  1.20100000E+01  1.00800000E+00  1.00800000E+00  1.20100000E+01  1.00800000E+00
  1.00800000E+00  1.60000000E+01  1.20100000E+01  1.00800000E+00  1.00800000E+00
  1.20100000E+01  1.00800000E+00  1.00800000E+00  1.60000000E+01  1.20100000E+01
  1.60000000E+01  1.20100000E+01  1.20100000E+01  1.20100000E+01  1.00800000E+00
  1.00800000E+00  1.20100000E+01  1.00800000E+00  1.20100000E+01  1.00800000E+00
  1.20100000E+01  1.20100000E+01  1.60000000E+01  1.60000000E+01  1.20100000E+01
  1.00800000E+00  1.00800000E+00  1.20100000E+01  1.00800000E+00  1.00800000E+00
  1.20100000E+01  1.00800000E+00  1.00800000E+00  1.20100000E+01  1.00800000E+00
  1.00800000E+00  1.60000000E+01  1.20100000E+01  1.60000000E+01  1.20100000E+01
  1.20100000E+01  1.20100000E+01  1.00800000E+00  1.00800000E+00  1.20100000E+01
  1.00800000E+00  1.20100000E+01  1.00800000E+00  1.20100000E+01  1.20100000E+01
  1.60000000E+01  1.60000000E+01  1.20100000E+01  1.00800000E+00  1.00800000E+00
  1.20100000E+01  1.00800000E+00  1.00800000E+00  1.20100000E+01  1.00800000E+00
  1.00800000E+00  1.20100000E+01  1.00800000E+00  1.00800000E+00  1.60000000E+01
  1.20100000E+01  1.60000000E+01  1.20100000E+01  1.20100000E+01  1.20100000E+01
  1.00800000E+00  1.00800000E+00  1.20100000E+01  1.00800000E+00  1.20100000E+01
  1.00800000E+00  1.20100000E+01  1.20100000E+01  1.60000000E+01  1.60000000E+01
  1.20100000E+01  1.00800000E+00  1.00800000E+00  1.20100000E+01  1.00800000E+00
  1.00800000E+00  1.20100000E+01  1.00800000E+00  1.00800000E+00  1.20100000E+01
  1.00800000E+00  1.00800000E+00  1.60000000E+01  1.20100000E+01  1.60000000E+01
  1.20100000E+01  1.20100000E+01  1.20100000E+01  1.00800000E+00  1.00800000E+00
  1.20100000E+01  1.00800000E+00  1.20100000E+01  1.00800000E+00  1.20100000E+01
  1.20100000E+01  1.60000000E+01  1.60000000E+01  1.20100000E+01  1.00800000E+00
  1.00800000E+00  1.20100000E+01  1.00800000E+00  1.00800000E+00  1.20100000E+01
  1.00800000E+00  1.00800000E+00  1.20100000E+01  1.00800000E+00  1.00800000E+00
  1.60000000E+01  1.20100000E+01  1.00800000E+00  1.00800000E+00  1.20100000E+01
  1.00800000E+00  1.00800000E+00  1.60000000E+01  1.20100000E+01  1.00800000E+00
  1.00800000E+00  1.20100000E+01  1.00800000E+00  1.00800000E+00  1.60000000E+01
  1.20100000E+01  1.00800000E+00  1.00800000E+00  1.20100000E+01  1.00800000E+00
  1.00800000E+00  1.60000000E+01  1.20100000E+01  1.00800000E+00  1.00800000E+00
  1.20100000E+01  1.00800000E+00  1.00800000E+00  1.60000000E+01  1.20100000E+01
  1.00800000E+00  1.00800000E+00  1.20100000E+01  1.00800000E+00  1.00800000E+00
  1.60000000E+01  1.20100000E+01  1.00800000E+00  1.00800000E+00  1.20100000E+01
  1.00800000E+00  1.00800000E+00  1.60000000E+01  1.20100000E+01  1.00800000E+00
  1.00800000E+00  1.20100000E+01  1.00800000E+00  1.00800000E+00  1.60000000E+01
  1.20100000E+01  1.00800000E+00  1.00800000E+00  1.20100000E+01  1.00800000E+00
  1.00800000E+00  1.60000000E+01  1.20100000E+01  1.00800000E+00  1.00800000E+00
  1.20100000E+01  1.00800000E+00  1.00800000E+00  1.60000000E+01  1.20100000E+01
  1.00800000E+00  1.00800000E+00  1.20100000E+01  1.00800000E+00  1.00800000E+00
  1.60000000E+01  1.20100000E+01  1.60000000E+01  1.20100000E+01  1.20100000E+01
  1.20100000E+01  1.00800000E+00  1.00800000E+00  1.20100000E+01  1.00800000E+00
  1.20100000E+01  1.00800000E+00  1.20100000E+01  1.20100000E+01  1.60000000E+01
  1.60000000E+01  1.20100000E+01  1.00800000E+00  1.00800000E+00  1.20100000E+01
  1.00800000E+00  1.00800000E+00  1.20100000E+01  1.00800000E+00  1.00800000E+00
%FLAG ATOM_TYPE_INDEX                                                           
%FORMAT(10I8)                                                                   
       1       2       2       3       4       5       4       4       4       6
       6       4       6       4       6       4       4       5       3       1
       2       2       1       7       7       1       7       7       1       2
       2       3       4       5       4       4       4       6       6       4
       6       4       6       4       4       5       3       1       2       2
       1       7       7       1       7       7       1       2       2       3
       4       5       4       4       4       6       6       4       6       4
       6       4       4       5       3       1       2       2       1       7
       7       1       7       7       1       2       2       3       4       5
       4       4       4       6       6       4       6       4       6       4
       4       5       3       1       2       2       1       7       7       1
       7       7       1       2       2       3       4       5       4       4
       4       6       6       4       6       4       6       4       4       5
       3       1       2       2       1       7       7       1       7       7
       1       2       2       3       4       5       4       4       4       6
       6       4       6       4       6       4       4       5       3       1
       2       2       1       7       7       1       7       7       1       2
       2       3       1       2       2       1       2       2       3       1
       2       2       1       2       2       3       1       2       2       1
       2       2       3       1       2       2       1       2       2       3
       1       2       2       1       2       2       3       4       5       4
       4       4       6       6       4       6       4       6       4       4
       5       3       1       2       2       1       7       7       1       7
       7       1       2       2       3       4       5       4       4       4
       6       6       4       6       4       6       4       4       5       3
       1       2       2       1       7       7       1       7       7       1
       2       2       3       4       5       4       4       4       6       6
       4       6       4       6       4       4       5       3       1       2
       2       1       7       7       1       7       7       1       2       2
       3       4       5       4       4       4       6       6       4       6
       4       6       4       4       5       3       1       2       2       1
       7       7       1       7       7       1       2       2       3       4
       5       4       4       4       6       6       4       6       4       6
       4       4       5       3       1       2       2       1       7       7
       1       7       7       1       2       2       3       4       5       4
       4       4       6       6       4       6       4       6       4       4
       5       3       1       2       2       1       7       7       1       7
       7       1       2       2       3       4       5       4       4       4
       6       6       4       6       4       6       4       4       5       3
       1       2       2       1       7       7       1       7       7       1
       2       2       3       4       5       4       4       4       6       6
       4       6       4       6       4       4       5       3       1       2
       2       1       7       7       1       7       7       1       2       2
       3       4       5       4       4       4       6       6       4       6
       4       6       4       4       5       3       1       2       2       1
       7       7       1       7       7       1       2       2       3       1
       2       2       1       2       2       3       1       2       2       1
       2       2       3       1       2       2       1       2       2       3
       1       2       2       1       2       2       3       1       2       2
       1       2       2       3       4       5       4       4       4       6
       6       4       6       4       6       4       4       5       3       1
       2       2       1       7       7       1       7       7       1       2
       2       3       4       5       4       4       4       6       6       4
       6       4       6       4       4       5       3       1       2       2
       1       7       7       1       7       7       1       2       2       3
       4       5       4       4       4       6       6       4       6       4
       6       4       4       5       3       1       2       2       1       7
       7       1       7       7       1       2       2       3       4       5
       4       4       4       6       6       4       6       4       6       4
       4       5       3       1       2       2       1       7       7       1
       7       7       1       2       2       3       4       5       4       4
       4       6       6       4       6       4       6       4       4       5
       3       1       2       2       1       7       7       1       7       7
       1       2       2       3       1       2       2       1       2       2
       3       1       2       2       1       2       2       3       1       2
       2       1       2       2       3       1       2       2       1       2
       2       3       1       2       2       1       2       2       3       4
       5       4       4       4       6       6       4       6       4       6
       4       4       5       3       1       2       2       1       7       7
       1       7       7       1       2       2       3       4       5       4
       4       4       6       6       4       6       4       6       4       4
       5       3       1       2       2       1       7       7       1       7
       7       1       2       2       3       4       5       4       4       4
       6       6       4       6       4       6       4       4       5       3
       1       2       2       1       7       7       1       7       7       1
       2       2       3       4       5       4       4       4       6       6
       4       6       4       6       4       4       5       3       1       2
       2       1       7       7       1       7       7       1       2       2
       3       1       2       2       1       2       2       3       1       2
       2       1       2       2       3       1       2       2       1       2
       2       3       1       2       2       1       2       2       3       1
       2       2       1       2       2       3       1       2       2       1
       2       2       3       1       2       2       1       2       2       3
       1       2       2       1       2       2       3       1       2       2
       1       2       2       3       1       2       2       1       2       2
       3       4       5       4       4       4       6       6       4       6
       4       6       4       4       5       3       1       2       2       1
       7       7       1       7       7
%FLAG NUMBER_EXCLUDED_ATOMS                                                     
%FORMAT(10I8)                                                                   
       6       3       2       5       8       3       9       8       9       4
       2       5       3       5       2       4       6       2       7       9
       5       4       9       5       4       7       5       4       6       3
       2       5       8       3       9       8       9       4       2       5
       3       5       2       4       6       2       7       9       5       4
       9       5       4       7       5       4       6       3       2       5
       8       3       9       8       9       4       2       5       3       5
       2       4       6       2       7       9       5       4       9       5
       4       7       5       4       6       3       2       5       8       3
       9       8       9       4       2       5       3       5       2       4
       6       2       7       9       5       4       9       5       4       7
       5       4       6       3       2       5       8       3       9       8
       9       4       2       5       3       5       2       4       6       2
       7       9       5       4       9       5       4       7       5       4
       6       3       2       5       8       3       9       8       9       4
       2       5       3       5       2       4       6       2       7       9
       5       4       9       5       4       7       5       4       7       3
       2       7       7       5       4       7       3       2       7       7
       5       4       7       3       2       7       7       5       4       7
       3       2       7       7       5       4       7       3       2       7
       7       5       4       6       3       2       5       8       3       9
       8       9       4       2       5       3       5       2       4       6
       2       7       9       5       4       9       5       4       7       5
       4       6       3       2       5       8       3       9       8       9
       4       2       5       3       5       2       4       6       2       7
       9       5       4       9       5       4       7       5       4       6
       3       2       5       8       3       9       8       9       4       2
       5       3       5       2       4       6       2       7       9       5
       4       9       5       4       7       5       4       6       3       2
       5       8       3       9       8       9       4       2       5       3
       5       2       4       6       2       7       9       5       4       9
       5       4       7       5       4       6       3       2       5       8
       3       9       8       9       4       2       5       3       5       2
       4       6       2       7       9       5       4       9       5       4
       7       5       4       6       3       2       5       8       3       9
       8       9       4       2       5       3       5       2       4       6
       2       7       9       5       4       9       5       4       7       5
       4       6       3       2       5       8       3       9       8       9
       4       2       5       3       5       2       4       6       2       7
       9       5       4       9       5       4       7       5       4       6
       3       2       5       8       3       9       8       9       4       2
       5       3       5       2       4       6       2       7       9       5
       4       9       5       4       7       5       4       6       3       2
       5       8       3       9       8       9       4       2       5       3
       5       2       4       6       2       7       9       5       4       9
       5       4       7       5       4       7       3       2       7       7
       5       4       7       3       2       7       7       5       4       7
       3       2       7       7       5       4       7       3       2       7
       7       5       4       7       3       2       7       7       5       4
       6       3       2       5       8       3       9       8       9       4
       2       5       3       5       2       4       6       2       7       9
       5       4       9       5       4       7       5       4       6       3
       2       5       8       3       9       8       9       4       2       5
       3       5       2       4       6       2       7       9       5       4
       9       5       4       7       5       4       6       3       2       5
       8       3       9       8       9       4       2       5       3       5
       2       4       6       2       7       9       5       4       9       5
       4       7       5       4       6       3       2       5       8       3
       9       8       9       4       2       5       3       5       2       4
       6       2       7       9       5       4       9       5       4       7
       5       4       6       3       2       5       8       3       9       8
       9       4       2       5       3       5       2       4       6       2
       7       9       5       4       9       5       4       7       5       4
       7       3       2       7       7       5       4       7       3       2
       7       7       5       4       7       3       2       7       7       5
       4       7       3       2       7       7       5       4       7       3
       2       7       7       5       4       6       3       2       5       8
       3       9       8       9       4       2       5       3       5       2
       4       6       2       7       9       5       4       9       5       4
       7       5       4       6       3       2       5       8       3       9
       8       9       4       2       5       3       5       2       4       6
       2       7       9       5       4       9       5       4       7       5
       4       6       3       2       5       8       3       9       8       9
       4       2       5       3       5       2       4       6       2       7
       9       5       4       9       5       4       7       5       4       6
       3       2       5       8       3       9       8       9       4       2
       5       3       5       2       4       6       2       7       9       5
       4       9       5       4       7       5       4       7       3       2
       7       7       5       4       7       3       2       7       7       5
       4       7       3       2       7       7       5       4       7       3
       2       7       7       5       4       7       3       2       7       7
       5       4       7       3       2       7       7       5       4       7
       3       2       7       7       5       4       7       3       2       7
       7       5       4       7       3       2       7       7       5       4
       7       3       2       7       7       5       4       6       3       2
       5       8       3       9       8       9       4       2       5       3
       5       2       4       6       2       7       8       5       4       5
       4       3       2       1       1
%FLAG NONBONDED_PARM_INDEX                                                      
%FORMAT(10I8)                                                                   
       1       2       4       7      11      16      22       2       3       5
       8      12      17      23       4       5       6       9      13      18
      24       7       8       9      10      14      19      25      11      12
      13      14      15      20      26      16      17      18      19      20
      21      27      22      23      24      25      26      27      28
%FLAG RESIDUE_LABEL                                                             
%FORMAT(20a4)                                                                   
PET PET PET PET PET PET PEO PET PET PET PET PET PET PET PET PET PEO PET PET PET 
PET PET PEO PET PET PET PET PEO PEO PET 
%FLAG RESIDUE_POINTER                                                           
%FORMAT(10I8)                                                                   
       1      29      57      85     113     141     169     204     232     260
     288     316     344     372     400     428     456     491     519     547
     575     603     631     666     694     722     750     778     813     848
%FLAG BOND_FORCE_CONSTANT                                                       
%FORMAT(5E16.8)                                                                 
  3.45250000E+02  2.28890000E+02  3.44220000E+02  2.82270000E+02  5.90600000E+02
  3.51310000E+02  2.62840000E+02  3.60690000E+02  3.54250000E+02
%FLAG BOND_EQUIL_VALUE                                                          
%FORMAT(5E16.8)                                                                 
  1.09620000E+00  1.53540000E+00  1.09690000E+00  1.42730000E+00  1.21900000E+00
  1.36210000E+00  1.49070000E+00  1.08600000E+00  1.39860000E+00
%FLAG ANGLE_FORCE_CONSTANT                                                      
%FORMAT(5E16.8)                                                                 
  4.32700000E+01  3.58000000E+01  4.32800000E+01  7.74400000E+01  5.98700000E+01
  3.56400000E+01  5.62000000E+01  1.01260000E+02  8.94300000E+01  7.79600000E+01
  7.85800000E+01  4.49000000E+01  6.14400000E+01  6.36700000E+01  8.83300000E+01
%FLAG ANGLE_EQUIL_VALUE                                                         
%FORMAT(5E16.8)                                                                 
  1.91427794E+00  1.88024401E+00  1.91270715E+00  1.87832415E+00  1.96576518E+00
  1.89455572E+00  1.92579712E+00  2.15024656E+00  2.02144121E+00  2.13977458E+00
  1.96192545E+00  2.09230160E+00  2.10015559E+00  2.09474507E+00  1.98269488E+00
%FLAG DIHEDRAL_FORCE_CONSTANT                                                   
%FORMAT(5E16.8)                                                                 
  1.55555556E-01  2.50000000E-01  0.00000000E+00  8.00000000E-01  3.83000000E-01
  1.20000000E-01  1.30000000E-01  5.20000000E-01  1.40000000E+00  2.70000000E+00
  3.83333333E-01  1.60000000E+00  3.67000000E+00  3.10000000E-01  3.62500000E+00
  5.80000000E-01  1.00000000E+00  8.80000000E-01  8.00000000E-02  7.50000000E-01
  1.80000000E-01  9.00000000E-01  5.00000000E-01  3.37000000E-01  1.05000000E+01
  1.10000000E+00
%FLAG DIHEDRAL_PERIODICITY                                                      
%FORMAT(5E16.8)                                                                 
  3.00000000E+00  1.00000000E+00  3.00000000E+00  1.00000000E+00  3.00000000E+00
  3.00000000E+00  3.00000000E+00  3.00000000E+00  1.00000000E+00  2.00000000E+00
  3.00000000E+00  1.00000000E+00  2.00000000E+00  3.00000000E+00  2.00000000E+00
  2.00000000E+00  2.00000000E+00  1.00000000E+00  2.00000000E+00  3.00000000E+00
  1.00000000E+00  2.00000000E+00  3.00000000E+00  3.00000000E+00  2.00000000E+00
  2.00000000E+00
%FLAG DIHEDRAL_PHASE                                                            
%FORMAT(5E16.8)                                                                 
  0.00000000E+00  0.00000000E+00  0.00000000E+00  3.14159400E+00  0.00000000E+00
  0.00000000E+00  0.00000000E+00  0.00000000E+00  3.14159400E+00  3.14159400E+00
  0.00000000E+00  3.14159400E+00  3.14159400E+00  0.00000000E+00  3.14159400E+00
  3.14159400E+00  3.14159400E+00  3.14159400E+00  0.00000000E+00  0.00000000E+00
  0.00000000E+00  0.00000000E+00  0.00000000E+00  0.00000000E+00  3.14159400E+00
  3.14159400E+00
%FLAG SCEE_SCALE_FACTOR                                                         
%FORMAT(5E16.8)                                                                 
  1.20000000E+00  1.20000000E+00  1.20000000E+00  1.20000000E+00  1.20000000E+00
  1.20000000E+00  1.20000000E+00  1.20000000E+00  1.20000000E+00  1.20000000E+00
  1.20000000E+00  1.20000000E+00  1.20000000E+00  1.20000000E+00  1.20000000E+00
  1.20000000E+00  1.20000000E+00  1.20000000E+00  1.20000000E+00  1.20000000E+00
  1.20000000E+00  1.20000000E+00  1.20000000E+00  1.20000000E+00  0.00000000E+00
  0.00000000E+00
%FLAG SCNB_SCALE_FACTOR                                                         
%FORMAT(5E16.8)                                                                 
  2.00000000E+00  2.00000000E+00  2.00000000E+00  2.00000000E+00  2.00000000E+00
  2.00000000E+00  2.00000000E+00  2.00000000E+00  2.00000000E+00  2.00000000E+00
  2.00000000E+00  2.00000000E+00  2.00000000E+00  2.00000000E+00  2.00000000E+00
  2.00000000E+00  2.00000000E+00  2.00000000E+00  2.00000000E+00  2.00000000E+00
  2.00000000E+00  2.00000000E+00  2.00000000E+00  2.00000000E+00  0.00000000E+00
  0.00000000E+00
%FLAG SOLTY                                                                     
%FORMAT(5E16.8)                                                                 
  0.00000000E+00  0.00000000E+00  0.00000000E+00  0.00000000E+00  0.00000000E+00
  0.00000000E+00  0.00000000E+00  0.00000000E+00
%FLAG LENNARD_JONES_ACOEF                                                       
%FORMAT(5E16.8)                                                                 
  1.02073671E+06  6.97998263E+04  3.39005767E+03  5.42502534E+05  3.44374471E+04
  2.83662575E+05  8.43969952E+05  5.63013422E+04  4.46121722E+05  6.96551276E+05
  6.30925504E+05  3.86646725E+04  3.27367585E+05  5.17507491E+05  3.76435470E+05
  9.27554496E+04  4.88692384E+03  4.65732396E+04  7.52549148E+04  5.27277400E+04
  6.90855956E+03  1.00235148E+05  5.22955465E+03  5.02224902E+04  8.12662403E+04
  5.68021765E+04  7.41026906E+03  7.94617769E+03
%FLAG LENNARD_JONES_BCOEF                                                       
%FORMAT(5E16.8)                                                                 
  6.63431737E+02  1.14981426E+02  1.67944276E+01  4.38146883E+02  7.31636661E+01
  2.87011518E+02  5.90251928E+02  1.01040256E+02  3.88758656E+02  5.24668528E+02
  5.62969425E+02  9.23664132E+01  3.67361018E+02  4.98871431E+02  4.69350655E+02
  1.24325688E+02  1.89134207E+01  7.98066064E+01  1.09570372E+02  1.01173582E+02
  2.10929191E+01  1.37787728E+02  2.08590256E+01  8.83545880E+01  1.21392023E+02
  1.11953944E+02  2.32899892E+01  2.57122925E+01
%FLAG BONDS_INC_HYDROGEN                                                        
%FORMAT(10I8)                                                                   
      75      78       1      75      81       1      66      69       1      66
      72       1      57      60       3      57      63       3      39      42
       8      33      36       8      24      27       8      21      30       8
       0       3       3       0       6       3     159     162       1     159
     165       1     150     153       1     150     156       1     141     144
       3     141     147       3     123     126       8     117     120       8
     108     111       8     105     114       8      84      87       3      84
      90       3     243     246       1     243     249       1     234     237
       1     234     240       1     225     228       3     225     231       3
     207     210       8     201     204       8     192     195       8     189
     198       8     168     171       3     168     174       3     327     330
       1     327     333       1     318     321       1     318     324       1
     309     312       3     309     315       3     291     294       8     285
     288       8     276     279       8     273     282       8     252     255
       3     252     258       3     411     414       1     411     417       1
     402     405       1     402     408       1     393     396       3     393
     399       3     375     378       8     369     372       8     360     363
       8     357     366       8     336     339       3     336     342       3
     495     498       1     495     501       1     486     489       1     486
     492       1     477     480       3     477     483       3     459     462
       8     453     456       8     444     447       8     441     450       8
     420     423       3     420     426       3     600     603       3     600
     606       3     588     591       3     588     594       3     579     582
       3     579     585       3     567     570       3     567     573       3
     558     561       3     558     564       3     546     549       3     546
     552       3     537     540       3     537     543       3     525     528
       3     525     531       3     516     519       3     516     522       3
     504     507       3     504     510       3     684     687       1     684
     690       1     675     678       1     675     681       1     666     669
       3     666     672       3     648     651       8     642     645       8
     633     636       8     630     639       8     609     612       3     609
     615       3     768     771       1     768     774       1     759     762
       1     759     765       1     750     753       3     750     756       3
     732     735       8     726     729       8     717     720       8     714
     723       8     693     696       3     693     699       3     852     855
       1     852     858       1     843     846       1     843     849       1
     834     837       3     834     840       3     816     819       8     810
     813       8     801     804       8     798     807       8     777     780
       3     777     783       3     936     939       1     936     942       1
     927     930       1     927     933       1     918     921       3     918
     924       3     900     903       8     894     897       8     885     888
       8     882     891       8     861     864       3     861     867       3
    1020    1023       1    1020    1026       1    1011    1014       1    1011
    1017       1    1002    1005       3    1002    1008       3     984     987
       8     978     981       8     969     972       8     966     975       8
     945     948       3     945     951       3    1104    1107       1    1104
    1110       1    1095    1098       1    1095    1101       1    1086    1089
       3    1086    1092       3    1068    1071       8    1062    1065       8
    1053    1056       8    1050    1059       8    1029    1032       3    1029
    1035       3    1188    1191       1    1188    1194       1    1179    1182
       1    1179    1185       1    1170    1173       3    1170    1176       3
    1152    1155       8    1146    1149       8    1137    1140       8    1134
    1143       8    1113    1116       3    1113    1119       3    1272    1275
       1    1272    1278       1    1263    1266       1    1263    1269       1
    1254    1257       3    1254    1260       3    1236    1239       8    1230
    1233       8    1221    1224       8    1218    1227       8    1197    1200
       3    1197    1203       3    1356    1359       1    1356    1362       1
    1347    1350       1    1347    1353       1    1338    1341       3    1338
    1344       3    1320    1323       8    1314    1317       8    1305    1308
       8    1302    1311       8    1281    1284       3    1281    1287       3
    1461    1464       3    1461    1467       3    1449    1452       3    1449
    1455       3    1440    1443       3    1440    1446       3    1428    1431
       3    1428    1434       3    1419    1422       3    1419    1425       3
    1407    1410       3    1407    1413       3    1398    1401       3    1398
    1404       3    1386    1389       3    1386    1392       3    1377    1380
       3    1377    1383       3    1365    1368       3    1365    1371       3
    1545    1548       1    1545    1551       1    1536    1539       1    1536
    1542       1    1527    1530       3    1527    1533       3    1509    1512
       8    1503    1506       8    1494    1497       8    1491    1500       8
    1470    1473       3    1470    1476       3    1629    1632       1    1629
    1635       1    1620    1623       1    1620    1626       1    1611    1614
       3    1611    1617       3    1593    1596       8    1587    1590       8
    1578    1581       8    1575    1584       8    1554    1557       3    1554
    1560       3    1713    1716       1    1713    1719       1    1704    1707
       1    1704    1710       1    1695    1698       3    1695    1701       3
    1677    1680       8    1671    1674       8    1662    1665       8    1659
    1668       8    1638    1641       3    1638    1644       3    1797    1800
       1    1797    1803       1    1788    1791       1    1788    1794       1
    1779    1782       3    1779    1785       3    1761    1764       8    1755
    1758       8    1746    1749       8    1743    1752       8    1722    1725
       3    1722    1728       3    1881    1884       1    1881    1887       1
    1872    1875       1    1872    1878       1    1863    1866       3    1863
    1869       3    1845    1848       8    1839    1842       8    1830    1833
       8    1827    1836       8    1806    1809       3    1806    1812       3
    1986    1989       3    1986    1992       3    1974    1977       3    1974
    1980       3    1965    1968       3    1965    1971       3    1953    1956
       3    1953    1959       3    1944    1947       3    1944    1950       3
    1932    1935       3    1932    1938       3    1923    1926       3    1923
    1929       3    1911    1914       3    1911    1917       3    1902    1905
       3    1902    1908       3    1890    1893       3    1890    1896       3
    2070    2073       1    2070    2076       1    2061    2064       1    2061
    2067       1    2052    2055       3    2052    2058       3    2034    2037
       8    2028    2031       8    2019    2022       8    2016    2025       8
    1995    1998       3    1995    2001       3    2154    2157       1    2154
    2160       1    2145    2148       1    2145    2151       1    2136    2139
       3    2136    2142       3    2118    2121       8    2112    2115       8
    2103    2106       8    2100    2109       8    2079    2082       3    2079
    2085       3    2238    2241       1    2238    2244       1    2229    2232
       1    2229    2235       1    2220    2223       3    2220    2226       3
    2202    2205       8    2196    2199       8    2187    2190       8    2184
    2193       8    2163    2166       3    2163    2169       3    2322    2325
       1    2322    2328       1    2313    2316       1    2313    2319       1
    2304    2307       3    2304    2310       3    2286    2289       8    2280
    2283       8    2271    2274       8    2268    2277       8    2247    2250
       3    2247    2253       3    2427    2430       3    2427    2433       3
    2415    2418       3    2415    2421       3    2406    2409       3    2406
    2412       3    2394    2397       3    2394    2400       3    2385    2388
       3    2385    2391       3    2373    2376       3    2373    2379       3
    2364    2367       3    2364    2370       3    2352    2355       3    2352
    2358       3    2343    2346       3    2343    2349       3    2331    2334
       3    2331    2337       3    2532    2535       3    2532    2538       3
    2520    2523       3    2520    2526       3    2511    2514       3    2511
    2517       3    2499    2502       3    2499    2505       3    2490    2493
       3    2490    2496       3    2478    2481       3    2478    2484       3
    2469    2472       3    2469    2475       3    2457    2460       3    2457
    2463       3    2448    2451       3    2448    2454       3    2436    2439
       3    2436    2442       3    2616    2619       1    2616    2622       1
    2607    2610       1    2607    2613       1    2598    2601       3    2598
    2604       3    2580    2583       8    2574    2577       8    2565    2568
       8    2562    2571       8    2541    2544       3    2541    2547       3
%FLAG BONDS_WITHOUT_HYDROGEN                                                    
%FORMAT(10I8)                                                                   
      75      84       2      66      75       2      57      66       2      54
      57       4      48      51       5      48      54       6      45      48
       7      39      45       9      33      39       9      24      45       9
      21      24       9      18      21       9      18      33       9      12
      15       5      12      18       7       9      12       6       0       9
       4     159     168       2     150     159       2     141     150       2
     138     141       4     132     135       5     132     138       6     129
     132       7     123     129       9     117     123       9     108     129
       9     105     108       9     102     105       9     102     117       9
      96      99       5      96     102       7      93      96       6      84
      93       4     243     252       2     234     243       2     225     234
       2     222     225       4     216     219       5     216     222       6
     213     216       7     207     213       9     201     207       9     192
     213       9     189     192       9     186     189       9     186     201
       9     180     183       5     180     186       7     177     180       6
     168     177       4     327     336       2     318     327       2     309
     318       2     306     309       4     300     303       5     300     306
       6     297     300       7     291     297       9     285     291       9
     276     297       9     273     276       9     270     273       9     270
     285       9     264     267       5     264     270       7     261     264
       6     252     261       4     411     420       2     402     411       2
     393     402       2     390     393       4     384     387       5     384
     390       6     381     384       7     375     381       9     369     375
       9     360     381       9     357     360       9     354     357       9
     354     369       9     348     351       5     348     354       7     345
     348       6     336     345       4     495     504       2     486     495
       2     477     486       2     474     477       4     468     471       5
     468     474       6     465     468       7     459     465       9     453
     459       9     444     465       9     441     444       9     438     441
       9     438     453       9     432     435       5     432     438       7
     429     432       6     420     429       4     600     609       2     597
     600       4     588     597       4     579     588       2     576     579
       4     567     576       4     558     567       2     555     558       4
     546     555       4     537     546       2     534     537       4     525
     534       4     516     525       2     513     516       4     504     513
       4     684     693       2     675     684       2     666     675       2
     663     666       4     657     660       5     657     663       6     654
     657       7     648     654       9     642     648       9     633     654
       9     630     633       9     627     630       9     627     642       9
     621     624       5     621     627       7     618     621       6     609
     618       4     768     777       2     759     768       2     750     759
       2     747     750       4     741     744       5     741     747       6
     738     741       7     732     738       9     726     732       9     717
     738       9     714     717       9     711     714       9     711     726
       9     705     708       5     705     711       7     702     705       6
     693     702       4     852     861       2     843     852       2     834
     843       2     831     834       4     825     828       5     825     831
       6     822     825       7     816     822       9     810     816       9
     801     822       9     798     801       9     795     798       9     795
     810       9     789     792       5     789     795       7     786     789
       6     777     786       4     936     945       2     927     936       2
     918     927       2     915     918       4     909     912       5     909
     915       6     906     909       7     900     906       9     894     900
       9     885     906       9     882     885       9     879     882       9
     879     894       9     873     876       5     873     879       7     870
     873       6     861     870       4    1020    1029       2    1011    1020
       2    1002    1011       2     999    1002       4     993     996       5
     993     999       6     990     993       7     984     990       9     978
     984       9     969     990       9     966     969       9     963     966
       9     963     978       9     957     960       5     957     963       7
     954     957       6     945     954       4    1104    1113       2    1095
    1104       2    1086    1095       2    1083    1086       4    1077    1080
       5    1077    1083       6    1074    1077       7    1068    1074       9
    1062    1068       9    1053    1074       9    1050    1053       9    1047
    1050       9    1047    1062       9    1041    1044       5    1041    1047
       7    1038    1041       6    1029    1038       4    1188    1197       2
    1179    1188       2    1170    1179       2    1167    1170       4    1161
    1164       5    1161    1167       6    1158    1161       7    1152    1158
       9    1146    1152       9    1137    1158       9    1134    1137       9
    1131    1134       9    1131    1146       9    1125    1128       5    1125
    1131       7    1122    1125       6    1113    1122       4    1272    1281
       2    1263    1272       2    1254    1263       2    1251    1254       4
    1245    1248       5    1245    1251       6    1242    1245       7    1236
    1242       9    1230    1236       9    1221    1242       9    1218    1221
       9    1215    1218       9    1215    1230       9    1209    1212       5
    1209    1215       7    1206    1209       6    1197    1206       4    1356
    1365       2    1347    1356       2    1338    1347       2    1335    1338
       4    1329    1332       5    1329    1335       6    1326    1329       7
    1320    1326       9    1314    1320       9    1305    1326       9    1302
    1305       9    1299    1302       9    1299    1314       9    1293    1296
       5    1293    1299       7    1290    1293       6    1281    1290       4
    1461    1470       2    1458    1461       4    1449    1458       4    1440
    1449       2    1437    1440       4    1428    1437       4    1419    1428
       2    1416    1419       4    1407    1416       4    1398    1407       2
    1395    1398       4    1386    1395       4    1377    1386       2    1374
    1377       4    1365    1374       4    1545    1554       2    1536    1545
       2    1527    1536       2    1524    1527       4    1518    1521       5
    1518    1524       6    1515    1518       7    1509    1515       9    1503
    1509       9    1494    1515       9    1491    1494       9    1488    1491
       9    1488    1503       9    1482    1485       5    1482    1488       7
    1479    1482       6    1470    1479       4    1629    1638       2    1620
    1629       2    1611    1620       2    1608    1611       4    1602    1605
       5    1602    1608       6    1599    1602       7    1593    1599       9
    1587    1593       9    1578    1599       9    1575    1578       9    1572
    1575       9    1572    1587       9    1566    1569       5    1566    1572
       7    1563    1566       6    1554    1563       4    1713    1722       2
    1704    1713       2    1695    1704       2    1692    1695       4    1686
    1689       5    1686    1692       6    1683    1686       7    1677    1683
       9    1671    1677       9    1662    1683       9    1659    1662       9
    1656    1659       9    1656    1671       9    1650    1653       5    1650
    1656       7    1647    1650       6    1638    1647       4    1797    1806
       2    1788    1797       2    1779    1788       2    1776    1779       4
    1770    1773       5    1770    1776       6    1767    1770       7    1761
    1767       9    1755    1761       9    1746    1767       9    1743    1746
       9    1740    1743       9    1740    1755       9    1734    1737       5
    1734    1740       7    1731    1734       6    1722    1731       4    1881
    1890       2    1872    1881       2    1863    1872       2    1860    1863
       4    1854    1857       5    1854    1860       6    1851    1854       7
    1845    1851       9    1839    1845       9    1830    1851       9    1827
    1830       9    1824    1827       9    1824    1839       9    1818    1821
       5    1818    1824       7    1815    1818       6    1806    1815       4
    1986    1995       2    1983    1986       4    1974    1983       4    1965
    1974       2    1962    1965       4    1953    1962       4    1944    1953
       2    1941    1944       4    1932    1941       4    1923    1932       2
    1920    1923       4    1911    1920       4    1902    1911       2    1899
    1902       4    1890    1899       4    2070    2079       2    2061    2070
       2    2052    2061       2    2049    2052       4    2043    2046       5
    2043    2049       6    2040    2043       7    2034    2040       9    2028
    2034       9    2019    2040       9    2016    2019       9    2013    2016
       9    2013    2028       9    2007    2010       5    2007    2013       7
    2004    2007       6    1995    2004       4    2154    2163       2    2145
    2154       2    2136    2145       2    2133    2136       4    2127    2130
       5    2127    2133       6    2124    2127       7    2118    2124       9
    2112    2118       9    2103    2124       9    2100    2103       9    2097
    2100       9    2097    2112       9    2091    2094       5    2091    2097
       7    2088    2091       6    2079    2088       4    2238    2247       2
    2229    2238       2    2220    2229       2    2217    2220       4    2211
    2214       5    2211    2217       6    2208    2211       7    2202    2208
       9    2196    2202       9    2187    2208       9    2184    2187       9
    2181    2184       9    2181    2196       9    2175    2178       5    2175
    2181       7    2172    2175       6    2163    2172       4    2322    2331
       2    2313    2322       2    2304    2313       2    2301    2304       4
    2295    2298       5    2295    2301       6    2292    2295       7    2286
    2292       9    2280    2286       9    2271    2292       9    2268    2271
       9    2265    2268       9    2265    2280       9    2259    2262       5
    2259    2265       7    2256    2259       6    2247    2256       4    2427
    2436       2    2424    2427       4    2415    2424       4    2406    2415
       2    2403    2406       4    2394    2403       4    2385    2394       2
    2382    2385       4    2373    2382       4    2364    2373       2    2361
    2364       4    2352    2361       4    2343    2352       2    2340    2343
       4    2331    2340       4    2532    2541       2    2529    2532       4
    2520    2529       4    2511    2520       2    2508    2511       4    2499
    2508       4    2490    2499       2    2487    2490       4    2478    2487
       4    2469    2478       2    2466    2469       4    2457    2466       4
    2448    2457       2    2445    2448       4    2436    2445       4    2607
    2616       2    2598    2607       2    2595    2598       4    2589    2592
       5    2589    2595       6    2586    2589       7    2580    2586       9
    2574    2580       9    2565    2586       9    2562    2565       9    2559
    2562       9    2559    2574       9    2553    2556       5    2553    2559
       7    2550    2553       6    2541    2550       4
%FLAG ANGLES_INC_HYDROGEN                                                       
%FORMAT(10I8)                                                                   
      81      75      84       1      78      75      81       2      78      75
      84       1      75      84      87       3      75      84      90       3
      72      66      75       1      69      66      72       2      69      66
      75       1      66      75      78       1      66      75      81       1
      63      57      66       3      60      57      63       6      60      57
      66       3      57      66      69       1      57      66      72       1
      54      57      60       7      54      57      63       7      42      39
      45      12      36      33      39      12      33      39      42      12
      27      24      45      12      24      21      30      12      21      24
      27      12      18      21      30      12      18      33      36      12
       6       0       9       7       3       0       6       6       3       0
       9       7     165     159     168       1     162     159     165       2
     162     159     168       1     159     168     171       3     159     168
     174       3     156     150     159       1     153     150     156       2
     153     150     159       1     150     159     162       1     150     159
     165       1     147     141     150       3     144     141     147       6
     144     141     150       3     141     150     153       1     141     150
     156       1     138     141     144       7     138     141     147       7
     126     123     129      12     120     117     123      12     117     123
     126      12     111     108     129      12     108     105     114      12
     105     108     111      12     102     105     114      12     102     117
     120      12      90      84      93       7      87      84      90       6
      87      84      93       7     249     243     252       1     246     243
     249       2     246     243     252       1     243     252     255       3
     243     252     258       3     240     234     243       1     237     234
     240       2     237     234     243       1     234     243     246       1
     234     243     249       1     231     225     234       3     228     225
     231       6     228     225     234       3     225     234     237       1
     225     234     240       1     222     225     228       7     222     225
     231       7     210     207     213      12     204     201     207      12
     201     207     210      12     195     192     213      12     192     189
     198      12     189     192     195      12     186     189     198      12
     186     201     204      12     174     168     177       7     171     168
     174       6     171     168     177       7     333     327     336       1
     330     327     333       2     330     327     336       1     327     336
     339       3     327     336     342       3     324     318     327       1
     321     318     324       2     321     318     327       1     318     327
     330       1     318     327     333       1     315     309     318       3
     312     309     315       6     312     309     318       3     309     318
     321       1     309     318     324       1     306     309     312       7
     306     309     315       7     294     291     297      12     288     285
     291      12     285     291     294      12     279     276     297      12
     276     273     282      12     273     276     279      12     270     273
     282      12     270     285     288      12     258     252     261       7
     255     252     258       6     255     252     261       7     417     411
     420       1     414     411     417       2     414     411     420       1
     411     420     423       3     411     420     426       3     408     402
     411       1     405     402     408       2     405     402     411       1
     402     411     414       1     402     411     417       1     399     393
     402       3     396     393     399       6     396     393     402       3
     393     402     405       1     393     402     408       1     390     393
     396       7     390     393     399       7     378     375     381      12
     372     369     375      12     369     375     378      12     363     360
     381      12     360     357     366      12     357     360     363      12
     354     357     366      12     354     369     372      12     342     336
     345       7     339     336     342       6     339     336     345       7
     501     495     504       1     498     495     501       2     498     495
     504       1     495     504     507       3     495     504     510       3
     492     486     495       1     489     486     492       2     489     486
     495       1     486     495     498       1     486     495     501       1
     483     477     486       3     480     477     483       6     480     477
     486       3     477     486     489       1     477     486     492       1
     474     477     480       7     474     477     483       7     462     459
     465      12     456     453     459      12     453     459     462      12
     447     444     465      12     444     441     450      12     441     444
     447      12     438     441     450      12     438     453     456      12
     426     420     429       7     423     420     426       6     423     420
     429       7     606     600     609       3     603     600     606       6
     603     600     609       3     600     609     612       3     600     609
     615       3     597     600     603       7     597     600     606       7
     594     588     597       7     591     588     594       6     591     588
     597       7     585     579     588       3     582     579     585       6
     582     579     588       3     579     588     591       3     579     588
     594       3     576     579     582       7     576     579     585       7
     573     567     576       7     570     567     573       6     570     567
     576       7     564     558     567       3     561     558     564       6
     561     558     567       3     558     567     570       3     558     567
     573       3     555     558     561       7     555     558     564       7
     552     546     555       7     549     546     552       6     549     546
     555       7     543     537     546       3     540     537     543       6
     540     537     546       3     537     546     549       3     537     546
     552       3     534     537     540       7     534     537     543       7
     531     525     534       7     528     525     531       6     528     525
     534       7     522     516     525       3     519     516     522       6
     519     516     525       3     516     525     528       3     516     525
     531       3     513     516     519       7     513     516     522       7
     510     504     513       7     507     504     510       6     507     504
     513       7     690     684     693       1     687     684     690       2
     687     684     693       1     684     693     696       3     684     693
     699       3     681     675     684       1     678     675     681       2
     678     675     684       1     675     684     687       1     675     684
     690       1     672     666     675       3     669     666     672       6
     669     666     675       3     666     675     678       1     666     675
     681       1     663     666     669       7     663     666     672       7
     651     648     654      12     645     642     648      12     642     648
     651      12     636     633     654      12     633     630     639      12
     630     633     636      12     627     630     639      12     627     642
     645      12     615     609     618       7     612     609     615       6
     612     609     618       7     774     768     777       1     771     768
     774       2     771     768     777       1     768     777     780       3
     768     777     783       3     765     759     768       1     762     759
     765       2     762     759     768       1     759     768     771       1
     759     768     774       1     756     750     759       3     753     750
     756       6     753     750     759       3     750     759     762       1
     750     759     765       1     747     750     753       7     747     750
     756       7     735     732     738      12     729     726     732      12
     726     732     735      12     720     717     738      12     717     714
     723      12     714     717     720      12     711     714     723      12
     711     726     729      12     699     693     702       7     696     693
     699       6     696     693     702       7     858     852     861       1
     855     852     858       2     855     852     861       1     852     861
     864       3     852     861     867       3     849     843     852       1
     846     843     849       2     846     843     852       1     843     852
     855       1     843     852     858       1     840     834     843       3
     837     834     840       6     837     834     843       3     834     843
     846       1     834     843     849       1     831     834     837       7
     831     834     840       7     819     816     822      12     813     810
     816      12     810     816     819      12     804     801     822      12
     801     798     807      12     798     801     804      12     795     798
     807      12     795     810     813      12     783     777     786       7
     780     777     783       6     780     777     786       7     942     936
     945       1     939     936     942       2     939     936     945       1
     936     945     948       3     936     945     951       3     933     927
     936       1     930     927     933       2     930     927     936       1
     927     936     939       1     927     936     942       1     924     918
     927       3     921     918     924       6     921     918     927       3
     918     927     930       1     918     927     933       1     915     918
     921       7     915     918     924       7     903     900     906      12
     897     894     900      12     894     900     903      12     888     885
     906      12     885     882     891      12     882     885     888      12
     879     882     891      12     879     894     897      12     867     861
     870       7     864     861     867       6     864     861     870       7
    1026    1020    1029       1    1023    1020    1026       2    1023    1020
    1029       1    1020    1029    1032       3    1020    1029    1035       3
    1017    1011    1020       1    1014    1011    1017       2    1014    1011
    1020       1    1011    1020    1023       1    1011    1020    1026       1
    1008    1002    1011       3    1005    1002    1008       6    1005    1002
    1011       3    1002    1011    1014       1    1002    1011    1017       1
     999    1002    1005       7     999    1002    1008       7     987     984
     990      12     981     978     984      12     978     984     987      12
     972     969     990      12     969     966     975      12     966     969
     972      12     963     966     975      12     963     978     981      12
     951     945     954       7     948     945     951       6     948     945
     954       7    1110    1104    1113       1    1107    1104    1110       2
    1107    1104    1113       1    1104    1113    1116       3    1104    1113
    1119       3    1101    1095    1104       1    1098    1095    1101       2
    1098    1095    1104       1    1095    1104    1107       1    1095    1104
    1110       1    1092    1086    1095       3    1089    1086    1092       6
    1089    1086    1095       3    1086    1095    1098       1    1086    1095
    1101       1    1083    1086    1089       7    1083    1086    1092       7
    1071    1068    1074      12    1065    1062    1068      12    1062    1068
    1071      12    1056    1053    1074      12    1053    1050    1059      12
    1050    1053    1056      12    1047    1050    1059      12    1047    1062
    1065      12    1035    1029    1038       7    1032    1029    1035       6
    1032    1029    1038       7    1194    1188    1197       1    1191    1188
    1194       2    1191    1188    1197       1    1188    1197    1200       3
    1188    1197    1203       3    1185    1179    1188       1    1182    1179
    1185       2    1182    1179    1188       1    1179    1188    1191       1
    1179    1188    1194       1    1176    1170    1179       3    1173    1170
    1176       6    1173    1170    1179       3    1170    1179    1182       1
    1170    1179    1185       1    1167    1170    1173       7    1167    1170
    1176       7    1155    1152    1158      12    1149    1146    1152      12
    1146    1152    1155      12    1140    1137    1158      12    1137    1134
    1143      12    1134    1137    1140      12    1131    1134    1143      12
    1131    1146    1149      12    1119    1113    1122       7    1116    1113
    1119       6    1116    1113    1122       7    1278    1272    1281       1
    1275    1272    1278       2    1275    1272    1281       1    1272    1281
    1284       3    1272    1281    1287       3    1269    1263    1272       1
    1266    1263    1269       2    1266    1263    1272       1    1263    1272
    1275       1    1263    1272    1278       1    1260    1254    1263       3
    1257    1254    1260       6    1257    1254    1263       3    1254    1263
    1266       1    1254    1263    1269       1    1251    1254    1257       7
    1251    1254    1260       7    1239    1236    1242      12    1233    1230
    1236      12    1230    1236    1239      12    1224    1221    1242      12
    1221    1218    1227      12    1218    1221    1224      12    1215    1218
    1227      12    1215    1230    1233      12    1203    1197    1206       7
    1200    1197    1203       6    1200    1197    1206       7    1362    1356
    1365       1    1359    1356    1362       2    1359    1356    1365       1
    1356    1365    1368       3    1356    1365    1371       3    1353    1347
    1356       1    1350    1347    1353       2    1350    1347    1356       1
    1347    1356    1359       1    1347    1356    1362       1    1344    1338
    1347       3    1341    1338    1344       6    1341    1338    1347       3
    1338    1347    1350       1    1338    1347    1353       1    1335    1338
    1341       7    1335    1338    1344       7    1323    1320    1326      12
    1317    1314    1320      12    1314    1320    1323      12    1308    1305
    1326      12    1305    1302    1311      12    1302    1305    1308      12
    1299    1302    1311      12    1299    1314    1317      12    1287    1281
    1290       7    1284    1281    1287       6    1284    1281    1290       7
    1467    1461    1470       3    1464    1461    1467       6    1464    1461
    1470       3    1461    1470    1473       3    1461    1470    1476       3
    1458    1461    1464       7    1458    1461    1467       7    1455    1449
    1458       7    1452    1449    1455       6    1452    1449    1458       7
    1446    1440    1449       3    1443    1440    1446       6    1443    1440
    1449       3    1440    1449    1452       3    1440    1449    1455       3
    1437    1440    1443       7    1437    1440    1446       7    1434    1428
    1437       7    1431    1428    1434       6    1431    1428    1437       7
    1425    1419    1428       3    1422    1419    1425       6    1422    1419
    1428       3    1419    1428    1431       3    1419    1428    1434       3
    1416    1419    1422       7    1416    1419    1425       7    1413    1407
    1416       7    1410    1407    1413       6    1410    1407    1416       7
    1404    1398    1407       3    1401    1398    1404       6    1401    1398
    1407       3    1398    1407    1410       3    1398    1407    1413       3
    1395    1398    1401       7    1395    1398    1404       7    1392    1386
    1395       7    1389    1386    1392       6    1389    1386    1395       7
    1383    1377    1386       3    1380    1377    1383       6    1380    1377
    1386       3    1377    1386    1389       3    1377    1386    1392       3
    1374    1377    1380       7    1374    1377    1383       7    1371    1365
    1374       7    1368    1365    1371       6    1368    1365    1374       7
    1551    1545    1554       1    1548    1545    1551       2    1548    1545
    1554       1    1545    1554    1557       3    1545    1554    1560       3
    1542    1536    1545       1    1539    1536    1542       2    1539    1536
    1545       1    1536    1545    1548       1    1536    1545    1551       1
    1533    1527    1536       3    1530    1527    1533       6    1530    1527
    1536       3    1527    1536    1539       1    1527    1536    1542       1
    1524    1527    1530       7    1524    1527    1533       7    1512    1509
    1515      12    1506    1503    1509      12    1503    1509    1512      12
    1497    1494    1515      12    1494    1491    1500      12    1491    1494
    1497      12    1488    1491    1500      12    1488    1503    1506      12
    1476    1470    1479       7    1473    1470    1476       6    1473    1470
    1479       7    1635    1629    1638       1    1632    1629    1635       2
    1632    1629    1638       1    1629    1638    1641       3    1629    1638
    1644       3    1626    1620    1629       1    1623    1620    1626       2
    1623    1620    1629       1    1620    1629    1632       1    1620    1629
    1635       1    1617    1611    1620       3    1614    1611    1617       6
    1614    1611    1620       3    1611    1620    1623       1    1611    1620
    1626       1    1608    1611    1614       7    1608    1611    1617       7
    1596    1593    1599      12    1590    1587    1593      12    1587    1593
    1596      12    1581    1578    1599      12    1578    1575    1584      12
    1575    1578    1581      12    1572    1575    1584      12    1572    1587
    1590      12    1560    1554    1563       7    1557    1554    1560       6
    1557    1554    1563       7    1719    1713    1722       1    1716    1713
    1719       2    1716    1713    1722       1    1713    1722    1725       3
    1713    1722    1728       3    1710    1704    1713       1    1707    1704
    1710       2    1707    1704    1713       1    1704    1713    1716       1
    1704    1713    1719       1    1701    1695    1704       3    1698    1695
    1701       6    1698    1695    1704       3    1695    1704    1707       1
    1695    1704    1710       1    1692    1695    1698       7    1692    1695
    1701       7    1680    1677    1683      12    1674    1671    1677      12
    1671    1677    1680      12    1665    1662    1683      12    1662    1659
    1668      12    1659    1662    1665      12    1656    1659    1668      12
    1656    1671    1674      12    1644    1638    1647       7    1641    1638
    1644       6    1641    1638    1647       7    1803    1797    1806       1
    1800    1797    1803       2    1800    1797    1806       1    1797    1806
    1809       3    1797    1806    1812       3    1794    1788    1797       1
    1791    1788    1794       2    1791    1788    1797       1    1788    1797
    1800       1    1788    1797    1803       1    1785    1779    1788       3
    1782    1779    1785       6    1782    1779    1788       3    1779    1788
    1791       1    1779    1788    1794       1    1776    1779    1782       7
    1776    1779    1785       7    1764    1761    1767      12    1758    1755
    1761      12    1755    1761    1764      12    1749    1746    1767      12
    1746    1743    1752      12    1743    1746    1749      12    1740    1743
    1752      12    1740    1755    1758      12    1728    1722    1731       7
    1725    1722    1728       6    1725    1722    1731       7    1887    1881
    1890       1    1884    1881    1887       2    1884    1881    1890       1
    1881    1890    1893       3    1881    1890    1896       3    1878    1872
    1881       1    1875    1872    1878       2    1875    1872    1881       1
    1872    1881    1884       1    1872    1881    1887       1    1869    1863
    1872       3    1866    1863    1869       6    1866    1863    1872       3
    1863    1872    1875       1    1863    1872    1878       1    1860    1863
    1866       7    1860    1863    1869       7    1848    1845    1851      12
    1842    1839    1845      12    1839    1845    1848      12    1833    1830
    1851      12    1830    1827    1836      12    1827    1830    1833      12
    1824    1827    1836      12    1824    1839    1842      12    1812    1806
    1815       7    1809    1806    1812       6    1809    1806    1815       7
    1992    1986    1995       3    1989    1986    1992       6    1989    1986
    1995       3    1986    1995    1998       3    1986    1995    2001       3
    1983    1986    1989       7    1983    1986    1992       7    1980    1974
    1983       7    1977    1974    1980       6    1977    1974    1983       7
    1971    1965    1974       3    1968    1965    1971       6    1968    1965
    1974       3    1965    1974    1977       3    1965    1974    1980       3
    1962    1965    1968       7    1962    1965    1971       7    1959    1953
    1962       7    1956    1953    1959       6    1956    1953    1962       7
    1950    1944    1953       3    1947    1944    1950       6    1947    1944
    1953       3    1944    1953    1956       3    1944    1953    1959       3
    1941    1944    1947       7    1941    1944    1950       7    1938    1932
    1941       7    1935    1932    1938       6    1935    1932    1941       7
    1929    1923    1932       3    1926    1923    1929       6    1926    1923
    1932       3    1923    1932    1935       3    1923    1932    1938       3
    1920    1923    1926       7    1920    1923    1929       7    1917    1911
    1920       7    1914    1911    1917       6    1914    1911    1920       7
    1908    1902    1911       3    1905    1902    1908       6    1905    1902
    1911       3    1902    1911    1914       3    1902    1911    1917       3
    1899    1902    1905       7    1899    1902    1908       7    1896    1890
    1899       7    1893    1890    1896       6    1893    1890    1899       7
    2076    2070    2079       1    2073    2070    2076       2    2073    2070
    2079       1    2070    2079    2082       3    2070    2079    2085       3
    2067    2061    2070       1    2064    2061    2067       2    2064    2061
    2070       1    2061    2070    2073       1    2061    2070    2076       1
    2058    2052    2061       3    2055    2052    2058       6    2055    2052
    2061       3    2052    2061    2064       1    2052    2061    2067       1
    2049    2052    2055       7    2049    2052    2058       7    2037    2034
    2040      12    2031    2028    2034      12    2028    2034    2037      12
    2022    2019    2040      12    2019    2016    2025      12    2016    2019
    2022      12    2013    2016    2025      12    2013    2028    2031      12
    2001    1995    2004       7    1998    1995    2001       6    1998    1995
    2004       7    2160    2154    2163       1    2157    2154    2160       2
    2157    2154    2163       1    2154    2163    2166       3    2154    2163
    2169       3    2151    2145    2154       1    2148    2145    2151       2
    2148    2145    2154       1    2145    2154    2157       1    2145    2154
    2160       1    2142    2136    2145       3    2139    2136    2142       6
    2139    2136    2145       3    2136    2145    2148       1    2136    2145
    2151       1    2133    2136    2139       7    2133    2136    2142       7
    2121    2118    2124      12    2115    2112    2118      12    2112    2118
    2121      12    2106    2103    2124      12    2103    2100    2109      12
    2100    2103    2106      12    2097    2100    2109      12    2097    2112
    2115      12    2085    2079    2088       7    2082    2079    2085       6
    2082    2079    2088       7    2244    2238    2247       1    2241    2238
    2244       2    2241    2238    2247       1    2238    2247    2250       3
    2238    2247    2253       3    2235    2229    2238       1    2232    2229
    2235       2    2232    2229    2238       1    2229    2238    2241       1
    2229    2238    2244       1    2226    2220    2229       3    2223    2220
    2226       6    2223    2220    2229       3    2220    2229    2232       1
    2220    2229    2235       1    2217    2220    2223       7    2217    2220
    2226       7    2205    2202    2208      12    2199    2196    2202      12
    2196    2202    2205      12    2190    2187    2208      12    2187    2184
    2193      12    2184    2187    2190      12    2181    2184    2193      12
    2181    2196    2199      12    2169    2163    2172       7    2166    2163
    2169       6    2166    2163    2172       7    2328    2322    2331       1
    2325    2322    2328       2    2325    2322    2331       1    2322    2331
    2334       3    2322    2331    2337       3    2319    2313    2322       1
    2316    2313    2319       2    2316    2313    2322       1    2313    2322
    2325       1    2313    2322    2328       1    2310    2304    2313       3
    2307    2304    2310       6    2307    2304    2313       3    2304    2313
    2316       1    2304    2313    2319       1    2301    2304    2307       7
    2301    2304    2310       7    2289    2286    2292      12    2283    2280
    2286      12    2280    2286    2289      12    2274    2271    2292      12
    2271    2268    2277      12    2268    2271    2274      12    2265    2268
    2277      12    2265    2280    2283      12    2253    2247    2256       7
    2250    2247    2253       6    2250    2247    2256       7    2433    2427
    2436       3    2430    2427    2433       6    2430    2427    2436       3
    2427    2436    2439       3    2427    2436    2442       3    2424    2427
    2430       7    2424    2427    2433       7    2421    2415    2424       7
    2418    2415    2421       6    2418    2415    2424       7    2412    2406
    2415       3    2409    2406    2412       6    2409    2406    2415       3
    2406    2415    2418       3    2406    2415    2421       3    2403    2406
    2409       7    2403    2406    2412       7    2400    2394    2403       7
    2397    2394    2400       6    2397    2394    2403       7    2391    2385
    2394       3    2388    2385    2391       6    2388    2385    2394       3
    2385    2394    2397       3    2385    2394    2400       3    2382    2385
    2388       7    2382    2385    2391       7    2379    2373    2382       7
    2376    2373    2379       6    2376    2373    2382       7    2370    2364
    2373       3    2367    2364    2370       6    2367    2364    2373       3
    2364    2373    2376       3    2364    2373    2379       3    2361    2364
    2367       7    2361    2364    2370       7    2358    2352    2361       7
    2355    2352    2358       6    2355    2352    2361       7    2349    2343
    2352       3    2346    2343    2349       6    2346    2343    2352       3
    2343    2352    2355       3    2343    2352    2358       3    2340    2343
    2346       7    2340    2343    2349       7    2337    2331    2340       7
    2334    2331    2337       6    2334    2331    2340       7    2538    2532
    2541       3    2535    2532    2538       6    2535    2532    2541       3
    2532    2541    2544       3    2532    2541    2547       3    2529    2532
    2535       7    2529    2532    2538       7    2526    2520    2529       7
    2523    2520    2526       6    2523    2520    2529       7    2517    2511
    2520       3    2514    2511    2517       6    2514    2511    2520       3
    2511    2520    2523       3    2511    2520    2526       3    2508    2511
    2514       7    2508    2511    2517       7    2505    2499    2508       7
    2502    2499    2505       6    2502    2499    2508       7    2496    2490
    2499       3    2493    2490    2496       6    2493    2490    2499       3
    2490    2499    2502       3    2490    2499    2505       3    2487    2490
    2493       7    2487    2490    2496       7    2484    2478    2487       7
    2481    2478    2484       6    2481    2478    2487       7    2475    2469
    2478       3    2472    2469    2475       6    2472    2469    2478       3
    2469    2478    2481       3    2469    2478    2484       3    2466    2469
    2472       7    2466    2469    2475       7    2463    2457    2466       7
    2460    2457    2463       6    2460    2457    2466       7    2454    2448
    2457       3    2451    2448    2454       6    2451    2448    2457       3
    2448    2457    2460       3    2448    2457    2463       3    2445    2448
    2451       7    2445    2448    2454       7    2442    2436    2445       7
    2439    2436    2442       6    2439    2436    2445       7    2619    2616
    2622       2    2613    2607    2616       1    2610    2607    2613       2
    2610    2607    2616       1    2607    2616    2619       1    2607    2616
    2622       1    2604    2598    2607       3    2601    2598    2604       6
    2601    2598    2607       3    2598    2607    2610       1    2598    2607
    2613       1    2595    2598    2601       7    2595    2598    2604       7
    2583    2580    2586      12    2577    2574    2580      12    2574    2580
    2583      12    2568    2565    2586      12    2565    2562    2571      12
    2562    2565    2568      12    2559    2562    2571      12    2559    2574
    2577      12    2547    2541    2550       7    2544    2541    2547       6
    2544    2541    2550       7
%FLAG ANGLES_WITHOUT_HYDROGEN                                                   
%FORMAT(10I8)                                                                   
      75      84      93       4      66      75      84       5      57      66
      75       5      54      57      66       4      51      48      54       8
      48      54      57       9      45      48      51      10      45      48
      54      11      39      45      48      13      33      39      45      14
      24      45      39      14      24      45      48      13      21      18
      33      14      21      24      45      14      18      21      24      14
      18      33      39      14      15      12      18      10      12      18
      21      13      12      18      33      13       9      12      15       8
       9      12      18      11       0       9      12       9     159     168
     177       4     150     159     168       5     141     150     159       5
     138     141     150       4     135     132     138       8     132     138
     141       9     129     132     135      10     129     132     138      11
     123     129     132      13     117     123     129      14     108     129
     123      14     108     129     132      13     105     102     117      14
     105     108     129      14     102     105     108      14     102     117
     123      14      99      96     102      10      96     102     105      13
      96     102     117      13      93      96      99       8      93      96
     102      11      84      93      96       9     243     252     261       4
     234     243     252       5     225     234     243       5     222     225
     234       4     219     216     222       8     216     222     225       9
     213     216     219      10     213     216     222      11     207     213
     216      13     201     207     213      14     192     213     207      14
     192     213     216      13     189     186     201      14     189     192
     213      14     186     189     192      14     186     201     207      14
     183     180     186      10     180     186     189      13     180     186
     201      13     177     180     183       8     177     180     186      11
     168     177     180       9     327     336     345       4     318     327
     336       5     309     318     327       5     306     309     318       4
     303     300     306       8     300     306     309       9     297     300
     303      10     297     300     306      11     291     297     300      13
     285     291     297      14     276     297     291      14     276     297
     300      13     273     270     285      14     273     276     297      14
     270     273     276      14     270     285     291      14     267     264
     270      10     264     270     273      13     264     270     285      13
     261     264     267       8     261     264     270      11     252     261
     264       9     411     420     429       4     402     411     420       5
     393     402     411       5     390     393     402       4     387     384
     390       8     384     390     393       9     381     384     387      10
     381     384     390      11     375     381     384      13     369     375
     381      14     360     381     375      14     360     381     384      13
     357     354     369      14     357     360     381      14     354     357
     360      14     354     369     375      14     351     348     354      10
     348     354     357      13     348     354     369      13     345     348
     351       8     345     348     354      11     336     345     348       9
     495     504     513       4     486     495     504       5     477     486
     495       5     474     477     486       4     471     468     474       8
     468     474     477       9     465     468     471      10     465     468
     474      11     459     465     468      13     453     459     465      14
     444     465     459      14     444     465     468      13     441     438
     453      14     441     444     465      14     438     441     444      14
     438     453     459      14     435     432     438      10     432     438
     441      13     432     438     453      13     429     432     435       8
     429     432     438      11     420     429     432       9     600     609
     618       4     597     600     609       4     588     597     600      15
     579     588     597       4     576     579     588       4     567     576
     579      15     558     567     576       4     555     558     567       4
     546     555     558      15     537     546     555       4     534     537
     546       4     525     534     537      15     516     525     534       4
     513     516     525       4     504     513     516      15     684     693
     702       4     675     684     693       5     666     675     684       5
     663     666     675       4     660     657     663       8     657     663
     666       9     654     657     660      10     654     657     663      11
     648     654     657      13     642     648     654      14     633     654
     648      14     633     654     657      13     630     627     642      14
     630     633     654      14     627     630     633      14     627     642
     648      14     624     621     627      10     621     627     630      13
     621     627     642      13     618     621     624       8     618     621
     627      11     609     618     621       9     768     777     786       4
     759     768     777       5     750     759     768       5     747     750
     759       4     744     741     747       8     741     747     750       9
     738     741     744      10     738     741     747      11     732     738
     741      13     726     732     738      14     717     738     732      14
     717     738     741      13     714     711     726      14     714     717
     738      14     711     714     717      14     711     726     732      14
     708     705     711      10     705     711     714      13     705     711
     726      13     702     705     708       8     702     705     711      11
     693     702     705       9     852     861     870       4     843     852
     861       5     834     843     852       5     831     834     843       4
     828     825     831       8     825     831     834       9     822     825
     828      10     822     825     831      11     816     822     825      13
     810     816     822      14     801     822     816      14     801     822
     825      13     798     795     810      14     798     801     822      14
     795     798     801      14     795     810     816      14     792     789
     795      10     789     795     798      13     789     795     810      13
     786     789     792       8     786     789     795      11     777     786
     789       9     936     945     954       4     927     936     945       5
     918     927     936       5     915     918     927       4     912     909
     915       8     909     915     918       9     906     909     912      10
     906     909     915      11     900     906     909      13     894     900
     906      14     885     906     900      14     885     906     909      13
     882     879     894      14     882     885     906      14     879     882
     885      14     879     894     900      14     876     873     879      10
     873     879     882      13     873     879     894      13     870     873
     876       8     870     873     879      11     861     870     873       9
    1020    1029    1038       4    1011    1020    1029       5    1002    1011
    1020       5     999    1002    1011       4     996     993     999       8
     993     999    1002       9     990     993     996      10     990     993
     999      11     984     990     993      13     978     984     990      14
     969     990     984      14     969     990     993      13     966     963
     978      14     966     969     990      14     963     966     969      14
     963     978     984      14     960     957     963      10     957     963
     966      13     957     963     978      13     954     957     960       8
     954     957     963      11     945     954     957       9    1104    1113
    1122       4    1095    1104    1113       5    1086    1095    1104       5
    1083    1086    1095       4    1080    1077    1083       8    1077    1083
    1086       9    1074    1077    1080      10    1074    1077    1083      11
    1068    1074    1077      13    1062    1068    1074      14    1053    1074
    1068      14    1053    1074    1077      13    1050    1047    1062      14
    1050    1053    1074      14    1047    1050    1053      14    1047    1062
    1068      14    1044    1041    1047      10    1041    1047    1050      13
    1041    1047    1062      13    1038    1041    1044       8    1038    1041
    1047      11    1029    1038    1041       9    1188    1197    1206       4
    1179    1188    1197       5    1170    1179    1188       5    1167    1170
    1179       4    1164    1161    1167       8    1161    1167    1170       9
    1158    1161    1164      10    1158    1161    1167      11    1152    1158
    1161      13    1146    1152    1158      14    1137    1158    1152      14
    1137    1158    1161      13    1134    1131    1146      14    1134    1137
    1158      14    1131    1134    1137      14    1131    1146    1152      14
    1128    1125    1131      10    1125    1131    1134      13    1125    1131
    1146      13    1122    1125    1128       8    1122    1125    1131      11
    1113    1122    1125       9    1272    1281    1290       4    1263    1272
    1281       5    1254    1263    1272       5    1251    1254    1263       4
    1248    1245    1251       8    1245    1251    1254       9    1242    1245
    1248      10    1242    1245    1251      11    1236    1242    1245      13
    1230    1236    1242      14    1221    1242    1236      14    1221    1242
    1245      13    1218    1215    1230      14    1218    1221    1242      14
    1215    1218    1221      14    1215    1230    1236      14    1212    1209
    1215      10    1209    1215    1218      13    1209    1215    1230      13
    1206    1209    1212       8    1206    1209    1215      11    1197    1206
    1209       9    1356    1365    1374       4    1347    1356    1365       5
    1338    1347    1356       5    1335    1338    1347       4    1332    1329
    1335       8    1329    1335    1338       9    1326    1329    1332      10
    1326    1329    1335      11    1320    1326    1329      13    1314    1320
    1326      14    1305    1326    1320      14    1305    1326    1329      13
    1302    1299    1314      14    1302    1305    1326      14    1299    1302
    1305      14    1299    1314    1320      14    1296    1293    1299      10
    1293    1299    1302      13    1293    1299    1314      13    1290    1293
    1296       8    1290    1293    1299      11    1281    1290    1293       9
    1461    1470    1479       4    1458    1461    1470       4    1449    1458
    1461      15    1440    1449    1458       4    1437    1440    1449       4
    1428    1437    1440      15    1419    1428    1437       4    1416    1419
    1428       4    1407    1416    1419      15    1398    1407    1416       4
    1395    1398    1407       4    1386    1395    1398      15    1377    1386
    1395       4    1374    1377    1386       4    1365    1374    1377      15
    1545    1554    1563       4    1536    1545    1554       5    1527    1536
    1545       5    1524    1527    1536       4    1521    1518    1524       8
    1518    1524    1527       9    1515    1518    1521      10    1515    1518
    1524      11    1509    1515    1518      13    1503    1509    1515      14
    1494    1515    1509      14    1494    1515    1518      13    1491    1488
    1503      14    1491    1494    1515      14    1488    1491    1494      14
    1488    1503    1509      14    1485    1482    1488      10    1482    1488
    1491      13    1482    1488    1503      13    1479    1482    1485       8
    1479    1482    1488      11    1470    1479    1482       9    1629    1638
    1647       4    1620    1629    1638       5    1611    1620    1629       5
    1608    1611    1620       4    1605    1602    1608       8    1602    1608
    1611       9    1599    1602    1605      10    1599    1602    1608      11
    1593    1599    1602      13    1587    1593    1599      14    1578    1599
    1593      14    1578    1599    1602      13    1575    1572    1587      14
    1575    1578    1599      14    1572    1575    1578      14    1572    1587
    1593      14    1569    1566    1572      10    1566    1572    1575      13
    1566    1572    1587      13    1563    1566    1569       8    1563    1566
    1572      11    1554    1563    1566       9    1713    1722    1731       4
    1704    1713    1722       5    1695    1704    1713       5    1692    1695
    1704       4    1689    1686    1692       8    1686    1692    1695       9
    1683    1686    1689      10    1683    1686    1692      11    1677    1683
    1686      13    1671    1677    1683      14    1662    1683    1677      14
    1662    1683    1686      13    1659    1656    1671      14    1659    1662
    1683      14    1656    1659    1662      14    1656    1671    1677      14
    1653    1650    1656      10    1650    1656    1659      13    1650    1656
    1671      13    1647    1650    1653       8    1647    1650    1656      11
    1638    1647    1650       9    1797    1806    1815       4    1788    1797
    1806       5    1779    1788    1797       5    1776    1779    1788       4
    1773    1770    1776       8    1770    1776    1779       9    1767    1770
    1773      10    1767    1770    1776      11    1761    1767    1770      13
    1755    1761    1767      14    1746    1767    1761      14    1746    1767
    1770      13    1743    1740    1755      14    1743    1746    1767      14
    1740    1743    1746      14    1740    1755    1761      14    1737    1734
    1740      10    1734    1740    1743      13    1734    1740    1755      13
    1731    1734    1737       8    1731    1734    1740      11    1722    1731
    1734       9    1881    1890    1899       4    1872    1881    1890       5
    1863    1872    1881       5    1860    1863    1872       4    1857    1854
    1860       8    1854    1860    1863       9    1851    1854    1857      10
    1851    1854    1860      11    1845    1851    1854      13    1839    1845
    1851      14    1830    1851    1845      14    1830    1851    1854      13
    1827    1824    1839      14    1827    1830    1851      14    1824    1827
    1830      14    1824    1839    1845      14    1821    1818    1824      10
    1818    1824    1827      13    1818    1824    1839      13    1815    1818
    1821       8    1815    1818    1824      11    1806    1815    1818       9
    1986    1995    2004       4    1983    1986    1995       4    1974    1983
    1986      15    1965    1974    1983       4    1962    1965    1974       4
    1953    1962    1965      15    1944    1953    1962       4    1941    1944
    1953       4    1932    1941    1944      15    1923    1932    1941       4
    1920    1923    1932       4    1911    1920    1923      15    1902    1911
    1920       4    1899    1902    1911       4    1890    1899    1902      15
    2070    2079    2088       4    2061    2070    2079       5    2052    2061
    2070       5    2049    2052    2061       4    2046    2043    2049       8
    2043    2049    2052       9    2040    2043    2046      10    2040    2043
    2049      11    2034    2040    2043      13    2028    2034    2040      14
    2019    2040    2034      14    2019    2040    2043      13    2016    2013
    2028      14    2016    2019    2040      14    2013    2016    2019      14
    2013    2028    2034      14    2010    2007    2013      10    2007    2013
    2016      13    2007    2013    2028      13    2004    2007    2010       8
    2004    2007    2013      11    1995    2004    2007       9    2154    2163
    2172       4    2145    2154    2163       5    2136    2145    2154       5
    2133    2136    2145       4    2130    2127    2133       8    2127    2133
    2136       9    2124    2127    2130      10    2124    2127    2133      11
    2118    2124    2127      13    2112    2118    2124      14    2103    2124
    2118      14    2103    2124    2127      13    2100    2097    2112      14
    2100    2103    2124      14    2097    2100    2103      14    2097    2112
    2118      14    2094    2091    2097      10    2091    2097    2100      13
    2091    2097    2112      13    2088    2091    2094       8    2088    2091
    2097      11    2079    2088    2091       9    2238    2247    2256       4
    2229    2238    2247       5    2220    2229    2238       5    2217    2220
    2229       4    2214    2211    2217       8    2211    2217    2220       9
    2208    2211    2214      10    2208    2211    2217      11    2202    2208
    2211      13    2196    2202    2208      14    2187    2208    2202      14
    2187    2208    2211      13    2184    2181    2196      14    2184    2187
    2208      14    2181    2184    2187      14    2181    2196    2202      14
    2178    2175    2181      10    2175    2181    2184      13    2175    2181
    2196      13    2172    2175    2178       8    2172    2175    2181      11
    2163    2172    2175       9    2322    2331    2340       4    2313    2322
    2331       5    2304    2313    2322       5    2301    2304    2313       4
    2298    2295    2301       8    2295    2301    2304       9    2292    2295
    2298      10    2292    2295    2301      11    2286    2292    2295      13
    2280    2286    2292      14    2271    2292    2286      14    2271    2292
    2295      13    2268    2265    2280      14    2268    2271    2292      14
    2265    2268    2271      14    2265    2280    2286      14    2262    2259
    2265      10    2259    2265    2268      13    2259    2265    2280      13
    2256    2259    2262       8    2256    2259    2265      11    2247    2256
    2259       9    2427    2436    2445       4    2424    2427    2436       4
    2415    2424    2427      15    2406    2415    2424       4    2403    2406
    2415       4    2394    2403    2406      15    2385    2394    2403       4
    2382    2385    2394       4    2373    2382    2385      15    2364    2373
    2382       4    2361    2364    2373       4    2352    2361    2364      15
    2343    2352    2361       4    2340    2343    2352       4    2331    2340
    2343      15    2532    2541    2550       4    2529    2532    2541       4
    2520    2529    2532      15    2511    2520    2529       4    2508    2511
    2520       4    2499    2508    2511      15    2490    2499    2508       4
    2487    2490    2499       4    2478    2487    2490      15    2469    2478
    2487       4    2466    2469    2478       4    2457    2466    2469      15
    2448    2457    2466       4    2445    2448    2457       4    2436    2445
    2448      15    2598    2607    2616       5    2595    2598    2607       4
    2592    2589    2595       8    2589    2595    2598       9    2586    2589
    2592      10    2586    2589    2595      11    2580    2586    2589      13
    2574    2580    2586      14    2565    2586    2580      14    2565    2586
    2589      13    2562    2559    2574      14    2562    2565    2586      14
    2559    2562    2565      14    2559    2574    2580      14    2556    2553
    2559      10    2553    2559    2562      13    2553    2559    2574      13
    2550    2553    2556       8    2550    2553    2559      11    2541    2550
    2553       9
%FLAG DIHEDRALS_INC_HYDROGEN                                                    
%FORMAT(10I8)                                                                   
      81      75      84      87       1      81      75      84      90       1
      81      75      84      93       2      81      75     -84      93       3
      78      75      84      87       1      78      75      84      90       1
      78      75      84      93       2      78      75     -84      93       3
      72      66      75      78       6      72      66      75      81       6
      72      66      75      84       7      69      66      75      78       6
      69      66      75      81       6      69      66      75      84       7
      66      75      84      87       1      66      75      84      90       1
      63      57      66      69       1      63      57      66      72       1
      63      57      66      75       1      60      57      66      69       1
      60      57      66      72       1      60      57      66      75       1
      57      66      75      78       7      57      66      75      81       7
      54      57      66      69       2      54      57     -66      69       3
      54      57      66      72       2      54      57     -66      72       3
      48      54      57      60      11      48      54      57      63      11
      42      39      45      48      15      36      33      39      42      15
      36      33      39      45      15      30      21      18      33      15
      30      21      24      45      15      27      24      21      30      15
      27      24      45      39      15      27      24      45      48      15
      24      45      39      42      15      21      18      33      36      15
      18      21      24      27      15      18      33      39      42      15
      12      18      21      30      15      12      18      33      36      15
       6       0       9      12      11       3       0       9      12      11
     165     159     168     171       1     165     159     168     174       1
     165     159     168     177       2     165     159    -168     177       3
     162     159     168     171       1     162     159     168     174       1
     162     159     168     177       2     162     159    -168     177       3
     156     150     159     162       6     156     150     159     165       6
     156     150     159     168       7     153     150     159     162       6
     153     150     159     165       6     153     150     159     168       7
     150     159     168     171       1     150     159     168     174       1
     147     141     150     153       1     147     141     150     156       1
     147     141     150     159       1     144     141     150     153       1
     144     141     150     156       1     144     141     150     159       1
     141     150     159     162       7     141     150     159     165       7
     138     141     150     153       2     138     141    -150     153       3
     138     141     150     156       2     138     141    -150     156       3
     132     138     141     144      11     132     138     141     147      11
     126     123     129     132      15     120     117     123     126      15
     120     117     123     129      15     114     105     102     117      15
     114     105     108     129      15     111     108     105     114      15
     111     108     129     123      15     111     108     129     132      15
     108     129     123     126      15     105     102     117     120      15
     102     105     108     111      15     102     117     123     126      15
      96     102     105     114      15      96     102     117     120      15
      90      84      93      96      11      87      84      93      96      11
     249     243     252     255       1     249     243     252     258       1
     249     243     252     261       2     249     243    -252     261       3
     246     243     252     255       1     246     243     252     258       1
     246     243     252     261       2     246     243    -252     261       3
     240     234     243     246       6     240     234     243     249       6
     240     234     243     252       7     237     234     243     246       6
     237     234     243     249       6     237     234     243     252       7
     234     243     252     255       1     234     243     252     258       1
     231     225     234     237       1     231     225     234     240       1
     231     225     234     243       1     228     225     234     237       1
     228     225     234     240       1     228     225     234     243       1
     225     234     243     246       7     225     234     243     249       7
     222     225     234     237       2     222     225    -234     237       3
     222     225     234     240       2     222     225    -234     240       3
     216     222     225     228      11     216     222     225     231      11
     210     207     213     216      15     204     201     207     210      15
     204     201     207     213      15     198     189     186     201      15
     198     189     192     213      15     195     192     189     198      15
     195     192     213     207      15     195     192     213     216      15
     192     213     207     210      15     189     186     201     204      15
     186     189     192     195      15     186     201     207     210      15
     180     186     189     198      15     180     186     201     204      15
     174     168     177     180      11     171     168     177     180      11
     333     327     336     339       1     333     327     336     342       1
     333     327     336     345       2     333     327    -336     345       3
     330     327     336     339       1     330     327     336     342       1
     330     327     336     345       2     330     327    -336     345       3
     324     318     327     330       6     324     318     327     333       6
     324     318     327     336       7     321     318     327     330       6
     321     318     327     333       6     321     318     327     336       7
     318     327     336     339       1     318     327     336     342       1
     315     309     318     321       1     315     309     318     324       1
     315     309     318     327       1     312     309     318     321       1
     312     309     318     324       1     312     309     318     327       1
     309     318     327     330       7     309     318     327     333       7
     306     309     318     321       2     306     309    -318     321       3
     306     309     318     324       2     306     309    -318     324       3
     300     306     309     312      11     300     306     309     315      11
     294     291     297     300      15     288     285     291     294      15
     288     285     291     297      15     282     273     270     285      15
     282     273     276     297      15     279     276     273     282      15
     279     276     297     291      15     279     276     297     300      15
     276     297     291     294      15     273     270     285     288      15
     270     273     276     279      15     270     285     291     294      15
     264     270     273     282      15     264     270     285     288      15
     258     252     261     264      11     255     252     261     264      11
     417     411     420     423       1     417     411     420     426       1
     417     411     420     429       2     417     411    -420     429       3
     414     411     420     423       1     414     411     420     426       1
     414     411     420     429       2     414     411    -420     429       3
     408     402     411     414       6     408     402     411     417       6
     408     402     411     420       7     405     402     411     414       6
     405     402     411     417       6     405     402     411     420       7
     402     411     420     423       1     402     411     420     426       1
     399     393     402     405       1     399     393     402     408       1
     399     393     402     411       1     396     393     402     405       1
     396     393     402     408       1     396     393     402     411       1
     393     402     411     414       7     393     402     411     417       7
     390     393     402     405       2     390     393    -402     405       3
     390     393     402     408       2     390     393    -402     408       3
     384     390     393     396      11     384     390     393     399      11
     378     375     381     384      15     372     369     375     378      15
     372     369     375     381      15     366     357     354     369      15
     366     357     360     381      15     363     360     357     366      15
     363     360     381     375      15     363     360     381     384      15
     360     381     375     378      15     357     354     369     372      15
     354     357     360     363      15     354     369     375     378      15
     348     354     357     366      15     348     354     369     372      15
     342     336     345     348      11     339     336     345     348      11
     501     495     504     507       1     501     495     504     510       1
     501     495     504     513       2     501     495    -504     513       3
     498     495     504     507       1     498     495     504     510       1
     498     495     504     513       2     498     495    -504     513       3
     492     486     495     498       6     492     486     495     501       6
     492     486     495     504       7     489     486     495     498       6
     489     486     495     501       6     489     486     495     504       7
     486     495     504     507       1     486     495     504     510       1
     483     477     486     489       1     483     477     486     492       1
     483     477     486     495       1     480     477     486     489       1
     480     477     486     492       1     480     477     486     495       1
     477     486     495     498       7     477     486     495     501       7
     474     477     486     489       2     474     477    -486     489       3
     474     477     486     492       2     474     477    -486     492       3
     468     474     477     480      11     468     474     477     483      11
     462     459     465     468      15     456     453     459     462      15
     456     453     459     465      15     450     441     438     453      15
     450     441     444     465      15     447     444     441     450      15
     447     444     465     459      15     447     444     465     468      15
     444     465     459     462      15     441     438     453     456      15
     438     441     444     447      15     438     453     459     462      15
     432     438     441     450      15     432     438     453     456      15
     426     420     429     432      11     423     420     429     432      11
     606     600     609     612       1     606     600     609     615       1
     606     600     609     618       2     606     600    -609     618       3
     603     600     609     612       1     603     600     609     615       1
     603     600     609     618       2     603     600    -609     618       3
     597     600     609     612       2     597     600    -609     612       3
     597     600     609     615       2     597     600    -609     615       3
     594     588     597     600      24     591     588     597     600      24
     588     597     600     603      24     588     597     600     606      24
     585     579     588     591       1     585     579     588     594       1
     585     579     588     597       2     585     579    -588     597       3
     582     579     588     591       1     582     579     588     594       1
     582     579     588     597       2     582     579    -588     597       3
     576     579     588     591       2     576     579    -588     591       3
     576     579     588     594       2     576     579    -588     594       3
     573     567     576     579      24     570     567     576     579      24
     567     576     579     582      24     567     576     579     585      24
     564     558     567     570       1     564     558     567     573       1
     564     558     567     576       2     564     558    -567     576       3
     561     558     567     570       1     561     558     567     573       1
     561     558     567     576       2     561     558    -567     576       3
     555     558     567     570       2     555     558    -567     570       3
     555     558     567     573       2     555     558    -567     573       3
     552     546     555     558      24     549     546     555     558      24
     546     555     558     561      24     546     555     558     564      24
     543     537     546     549       1     543     537     546     552       1
     543     537     546     555       2     543     537    -546     555       3
     540     537     546     549       1     540     537     546     552       1
     540     537     546     555       2     540     537    -546     555       3
     534     537     546     549       2     534     537    -546     549       3
     534     537     546     552       2     534     537    -546     552       3
     531     525     534     537      24     528     525     534     537      24
     525     534     537     540      24     525     534     537     543      24
     522     516     525     528       1     522     516     525     531       1
     522     516     525     534       2     522     516    -525     534       3
     519     516     525     528       1     519     516     525     531       1
     519     516     525     534       2     519     516    -525     534       3
     513     516     525     528       2     513     516    -525     528       3
     513     516     525     531       2     513     516    -525     531       3
     510     504     513     516      24     507     504     513     516      24
     504     513     516     519      24     504     513     516     522      24
     690     684     693     696       1     690     684     693     699       1
     690     684     693     702       2     690     684    -693     702       3
     687     684     693     696       1     687     684     693     699       1
     687     684     693     702       2     687     684    -693     702       3
     681     675     684     687       6     681     675     684     690       6
     681     675     684     693       7     678     675     684     687       6
     678     675     684     690       6     678     675     684     693       7
     675     684     693     696       1     675     684     693     699       1
     672     666     675     678       1     672     666     675     681       1
     672     666     675     684       1     669     666     675     678       1
     669     666     675     681       1     669     666     675     684       1
     666     675     684     687       7     666     675     684     690       7
     663     666     675     678       2     663     666    -675     678       3
     663     666     675     681       2     663     666    -675     681       3
     657     663     666     669      11     657     663     666     672      11
     651     648     654     657      15     645     642     648     651      15
     645     642     648     654      15     639     630     627     642      15
     639     630     633     654      15     636     633     630     639      15
     636     633     654     648      15     636     633     654     657      15
     633     654     648     651      15     630     627     642     645      15
     627     630     633     636      15     627     642     648     651      15
     621     627     630     639      15     621     627     642     645      15
     615     609     618     621      11     612     609     618     621      11
     774     768     777     780       1     774     768     777     783       1
     774     768     777     786       2     774     768    -777     786       3
     771     768     777     780       1     771     768     777     783       1
     771     768     777     786       2     771     768    -777     786       3
     765     759     768     771       6     765     759     768     774       6
     765     759     768     777       7     762     759     768     771       6
     762     759     768     774       6     762     759     768     777       7
     759     768     777     780       1     759     768     777     783       1
     756     750     759     762       1     756     750     759     765       1
     756     750     759     768       1     753     750     759     762       1
     753     750     759     765       1     753     750     759     768       1
     750     759     768     771       7     750     759     768     774       7
     747     750     759     762       2     747     750    -759     762       3
     747     750     759     765       2     747     750    -759     765       3
     741     747     750     753      11     741     747     750     756      11
     735     732     738     741      15     729     726     732     735      15
     729     726     732     738      15     723     714     711     726      15
     723     714     717     738      15     720     717     714     723      15
     720     717     738     732      15     720     717     738     741      15
     717     738     732     735      15     714     711     726     729      15
     711     714     717     720      15     711     726     732     735      15
     705     711     714     723      15     705     711     726     729      15
     699     693     702     705      11     696     693     702     705      11
     858     852     861     864       1     858     852     861     867       1
     858     852     861     870       2     858     852    -861     870       3
     855     852     861     864       1     855     852     861     867       1
     855     852     861     870       2     855     852    -861     870       3
     849     843     852     855       6     849     843     852     858       6
     849     843     852     861       7     846     843     852     855       6
     846     843     852     858       6     846     843     852     861       7
     843     852     861     864       1     843     852     861     867       1
     840     834     843     846       1     840     834     843     849       1
     840     834     843     852       1     837     834     843     846       1
     837     834     843     849       1     837     834     843     852       1
     834     843     852     855       7     834     843     852     858       7
     831     834     843     846       2     831     834    -843     846       3
     831     834     843     849       2     831     834    -843     849       3
     825     831     834     837      11     825     831     834     840      11
     819     816     822     825      15     813     810     816     819      15
     813     810     816     822      15     807     798     795     810      15
     807     798     801     822      15     804     801     798     807      15
     804     801     822     816      15     804     801     822     825      15
     801     822     816     819      15     798     795     810     813      15
     795     798     801     804      15     795     810     816     819      15
     789     795     798     807      15     789     795     810     813      15
     783     777     786     789      11     780     777     786     789      11
     942     936     945     948       1     942     936     945     951       1
     942     936     945     954       2     942     936    -945     954       3
     939     936     945     948       1     939     936     945     951       1
     939     936     945     954       2     939     936    -945     954       3
     933     927     936     939       6     933     927     936     942       6
     933     927     936     945       7     930     927     936     939       6
     930     927     936     942       6     930     927     936     945       7
     927     936     945     948       1     927     936     945     951       1
     924     918     927     930       1     924     918     927     933       1
     924     918     927     936       1     921     918     927     930       1
     921     918     927     933       1     921     918     927     936       1
     918     927     936     939       7     918     927     936     942       7
     915     918     927     930       2     915     918    -927     930       3
     915     918     927     933       2     915     918    -927     933       3
     909     915     918     921      11     909     915     918     924      11
     903     900     906     909      15     897     894     900     903      15
     897     894     900     906      15     891     882     879     894      15
     891     882     885     906      15     888     885     882     891      15
     888     885     906     900      15     888     885     906     909      15
     885     906     900     903      15     882     879     894     897      15
     879     882     885     888      15     879     894     900     903      15
     873     879     882     891      15     873     879     894     897      15
     867     861     870     873      11     864     861     870     873      11
    1026    1020    1029    1032       1    1026    1020    1029    1035       1
    1026    1020    1029    1038       2    1026    1020   -1029    1038       3
    1023    1020    1029    1032       1    1023    1020    1029    1035       1
    1023    1020    1029    1038       2    1023    1020   -1029    1038       3
    1017    1011    1020    1023       6    1017    1011    1020    1026       6
    1017    1011    1020    1029       7    1014    1011    1020    1023       6
    1014    1011    1020    1026       6    1014    1011    1020    1029       7
    1011    1020    1029    1032       1    1011    1020    1029    1035       1
    1008    1002    1011    1014       1    1008    1002    1011    1017       1
    1008    1002    1011    1020       1    1005    1002    1011    1014       1
    1005    1002    1011    1017       1    1005    1002    1011    1020       1
    1002    1011    1020    1023       7    1002    1011    1020    1026       7
     999    1002    1011    1014       2     999    1002   -1011    1014       3
     999    1002    1011    1017       2     999    1002   -1011    1017       3
     993     999    1002    1005      11     993     999    1002    1008      11
     987     984     990     993      15     981     978     984     987      15
     981     978     984     990      15     975     966     963     978      15
     975     966     969     990      15     972     969     966     975      15
     972     969     990     984      15     972     969     990     993      15
     969     990     984     987      15     966     963     978     981      15
     963     966     969     972      15     963     978     984     987      15
     957     963     966     975      15     957     963     978     981      15
     951     945     954     957      11     948     945     954     957      11
    1110    1104    1113    1116       1    1110    1104    1113    1119       1
    1110    1104    1113    1122       2    1110    1104   -1113    1122       3
    1107    1104    1113    1116       1    1107    1104    1113    1119       1
    1107    1104    1113    1122       2    1107    1104   -1113    1122       3
    1101    1095    1104    1107       6    1101    1095    1104    1110       6
    1101    1095    1104    1113       7    1098    1095    1104    1107       6
    1098    1095    1104    1110       6    1098    1095    1104    1113       7
    1095    1104    1113    1116       1    1095    1104    1113    1119       1
    1092    1086    1095    1098       1    1092    1086    1095    1101       1
    1092    1086    1095    1104       1    1089    1086    1095    1098       1
    1089    1086    1095    1101       1    1089    1086    1095    1104       1
    1086    1095    1104    1107       7    1086    1095    1104    1110       7
    1083    1086    1095    1098       2    1083    1086   -1095    1098       3
    1083    1086    1095    1101       2    1083    1086   -1095    1101       3
    1077    1083    1086    1089      11    1077    1083    1086    1092      11
    1071    1068    1074    1077      15    1065    1062    1068    1071      15
    1065    1062    1068    1074      15    1059    1050    1047    1062      15
    1059    1050    1053    1074      15    1056    1053    1050    1059      15
    1056    1053    1074    1068      15    1056    1053    1074    1077      15
    1053    1074    1068    1071      15    1050    1047    1062    1065      15
    1047    1050    1053    1056      15    1047    1062    1068    1071      15
    1041    1047    1050    1059      15    1041    1047    1062    1065      15
    1035    1029    1038    1041      11    1032    1029    1038    1041      11
    1194    1188    1197    1200       1    1194    1188    1197    1203       1
    1194    1188    1197    1206       2    1194    1188   -1197    1206       3
    1191    1188    1197    1200       1    1191    1188    1197    1203       1
    1191    1188    1197    1206       2    1191    1188   -1197    1206       3
    1185    1179    1188    1191       6    1185    1179    1188    1194       6
    1185    1179    1188    1197       7    1182    1179    1188    1191       6
    1182    1179    1188    1194       6    1182    1179    1188    1197       7
    1179    1188    1197    1200       1    1179    1188    1197    1203       1
    1176    1170    1179    1182       1    1176    1170    1179    1185       1
    1176    1170    1179    1188       1    1173    1170    1179    1182       1
    1173    1170    1179    1185       1    1173    1170    1179    1188       1
    1170    1179    1188    1191       7    1170    1179    1188    1194       7
    1167    1170    1179    1182       2    1167    1170   -1179    1182       3
    1167    1170    1179    1185       2    1167    1170   -1179    1185       3
    1161    1167    1170    1173      11    1161    1167    1170    1176      11
    1155    1152    1158    1161      15    1149    1146    1152    1155      15
    1149    1146    1152    1158      15    1143    1134    1131    1146      15
    1143    1134    1137    1158      15    1140    1137    1134    1143      15
    1140    1137    1158    1152      15    1140    1137    1158    1161      15
    1137    1158    1152    1155      15    1134    1131    1146    1149      15
    1131    1134    1137    1140      15    1131    1146    1152    1155      15
    1125    1131    1134    1143      15    1125    1131    1146    1149      15
    1119    1113    1122    1125      11    1116    1113    1122    1125      11
    1278    1272    1281    1284       1    1278    1272    1281    1287       1
    1278    1272    1281    1290       2    1278    1272   -1281    1290       3
    1275    1272    1281    1284       1    1275    1272    1281    1287       1
    1275    1272    1281    1290       2    1275    1272   -1281    1290       3
    1269    1263    1272    1275       6    1269    1263    1272    1278       6
    1269    1263    1272    1281       7    1266    1263    1272    1275       6
    1266    1263    1272    1278       6    1266    1263    1272    1281       7
    1263    1272    1281    1284       1    1263    1272    1281    1287       1
    1260    1254    1263    1266       1    1260    1254    1263    1269       1
    1260    1254    1263    1272       1    1257    1254    1263    1266       1
    1257    1254    1263    1269       1    1257    1254    1263    1272       1
    1254    1263    1272    1275       7    1254    1263    1272    1278       7
    1251    1254    1263    1266       2    1251    1254   -1263    1266       3
    1251    1254    1263    1269       2    1251    1254   -1263    1269       3
    1245    1251    1254    1257      11    1245    1251    1254    1260      11
    1239    1236    1242    1245      15    1233    1230    1236    1239      15
    1233    1230    1236    1242      15    1227    1218    1215    1230      15
    1227    1218    1221    1242      15    1224    1221    1218    1227      15
    1224    1221    1242    1236      15    1224    1221    1242    1245      15
    1221    1242    1236    1239      15    1218    1215    1230    1233      15
    1215    1218    1221    1224      15    1215    1230    1236    1239      15
    1209    1215    1218    1227      15    1209    1215    1230    1233      15
    1203    1197    1206    1209      11    1200    1197    1206    1209      11
    1362    1356    1365    1368       1    1362    1356    1365    1371       1
    1362    1356    1365    1374       2    1362    1356   -1365    1374       3
    1359    1356    1365    1368       1    1359    1356    1365    1371       1
    1359    1356    1365    1374       2    1359    1356   -1365    1374       3
    1353    1347    1356    1359       6    1353    1347    1356    1362       6
    1353    1347    1356    1365       7    1350    1347    1356    1359       6
    1350    1347    1356    1362       6    1350    1347    1356    1365       7
    1347    1356    1365    1368       1    1347    1356    1365    1371       1
    1344    1338    1347    1350       1    1344    1338    1347    1353       1
    1344    1338    1347    1356       1    1341    1338    1347    1350       1
    1341    1338    1347    1353       1    1341    1338    1347    1356       1
    1338    1347    1356    1359       7    1338    1347    1356    1362       7
    1335    1338    1347    1350       2    1335    1338   -1347    1350       3
    1335    1338    1347    1353       2    1335    1338   -1347    1353       3
    1329    1335    1338    1341      11    1329    1335    1338    1344      11
    1323    1320    1326    1329      15    1317    1314    1320    1323      15
    1317    1314    1320    1326      15    1311    1302    1299    1314      15
    1311    1302    1305    1326      15    1308    1305    1302    1311      15
    1308    1305    1326    1320      15    1308    1305    1326    1329      15
    1305    1326    1320    1323      15    1302    1299    1314    1317      15
    1299    1302    1305    1308      15    1299    1314    1320    1323      15
    1293    1299    1302    1311      15    1293    1299    1314    1317      15
    1287    1281    1290    1293      11    1284    1281    1290    1293      11
    1467    1461    1470    1473       1    1467    1461    1470    1476       1
    1467    1461    1470    1479       2    1467    1461   -1470    1479       3
    1464    1461    1470    1473       1    1464    1461    1470    1476       1
    1464    1461    1470    1479       2    1464    1461   -1470    1479       3
    1458    1461    1470    1473       2    1458    1461   -1470    1473       3
    1458    1461    1470    1476       2    1458    1461   -1470    1476       3
    1455    1449    1458    1461      24    1452    1449    1458    1461      24
    1449    1458    1461    1464      24    1449    1458    1461    1467      24
    1446    1440    1449    1452       1    1446    1440    1449    1455       1
    1446    1440    1449    1458       2    1446    1440   -1449    1458       3
    1443    1440    1449    1452       1    1443    1440    1449    1455       1
    1443    1440    1449    1458       2    1443    1440   -1449    1458       3
    1437    1440    1449    1452       2    1437    1440   -1449    1452       3
    1437    1440    1449    1455       2    1437    1440   -1449    1455       3
    1434    1428    1437    1440      24    1431    1428    1437    1440      24
    1428    1437    1440    1443      24    1428    1437    1440    1446      24
    1425    1419    1428    1431       1    1425    1419    1428    1434       1
    1425    1419    1428    1437       2    1425    1419   -1428    1437       3
    1422    1419    1428    1431       1    1422    1419    1428    1434       1
    1422    1419    1428    1437       2    1422    1419   -1428    1437       3
    1416    1419    1428    1431       2    1416    1419   -1428    1431       3
    1416    1419    1428    1434       2    1416    1419   -1428    1434       3
    1413    1407    1416    1419      24    1410    1407    1416    1419      24
    1407    1416    1419    1422      24    1407    1416    1419    1425      24
    1404    1398    1407    1410       1    1404    1398    1407    1413       1
    1404    1398    1407    1416       2    1404    1398   -1407    1416       3
    1401    1398    1407    1410       1    1401    1398    1407    1413       1
    1401    1398    1407    1416       2    1401    1398   -1407    1416       3
    1395    1398    1407    1410       2    1395    1398   -1407    1410       3
    1395    1398    1407    1413       2    1395    1398   -1407    1413       3
    1392    1386    1395    1398      24    1389    1386    1395    1398      24
    1386    1395    1398    1401      24    1386    1395    1398    1404      24
    1383    1377    1386    1389       1    1383    1377    1386    1392       1
    1383    1377    1386    1395       2    1383    1377   -1386    1395       3
    1380    1377    1386    1389       1    1380    1377    1386    1392       1
    1380    1377    1386    1395       2    1380    1377   -1386    1395       3
    1374    1377    1386    1389       2    1374    1377   -1386    1389       3
    1374    1377    1386    1392       2    1374    1377   -1386    1392       3
    1371    1365    1374    1377      24    1368    1365    1374    1377      24
    1365    1374    1377    1380      24    1365    1374    1377    1383      24
    1551    1545    1554    1557       1    1551    1545    1554    1560       1
    1551    1545    1554    1563       2    1551    1545   -1554    1563       3
    1548    1545    1554    1557       1    1548    1545    1554    1560       1
    1548    1545    1554    1563       2    1548    1545   -1554    1563       3
    1542    1536    1545    1548       6    1542    1536    1545    1551       6
    1542    1536    1545    1554       7    1539    1536    1545    1548       6
    1539    1536    1545    1551       6    1539    1536    1545    1554       7
    1536    1545    1554    1557       1    1536    1545    1554    1560       1
    1533    1527    1536    1539       1    1533    1527    1536    1542       1
    1533    1527    1536    1545       1    1530    1527    1536    1539       1
    1530    1527    1536    1542       1    1530    1527    1536    1545       1
    1527    1536    1545    1548       7    1527    1536    1545    1551       7
    1524    1527    1536    1539       2    1524    1527   -1536    1539       3
    1524    1527    1536    1542       2    1524    1527   -1536    1542       3
    1518    1524    1527    1530      11    1518    1524    1527    1533      11
    1512    1509    1515    1518      15    1506    1503    1509    1512      15
    1506    1503    1509    1515      15    1500    1491    1488    1503      15
    1500    1491    1494    1515      15    1497    1494    1491    1500      15
    1497    1494    1515    1509      15    1497    1494    1515    1518      15
    1494    1515    1509    1512      15    1491    1488    1503    1506      15
    1488    1491    1494    1497      15    1488    1503    1509    1512      15
    1482    1488    1491    1500      15    1482    1488    1503    1506      15
    1476    1470    1479    1482      11    1473    1470    1479    1482      11
    1635    1629    1638    1641       1    1635    1629    1638    1644       1
    1635    1629    1638    1647       2    1635    1629   -1638    1647       3
    1632    1629    1638    1641       1    1632    1629    1638    1644       1
    1632    1629    1638    1647       2    1632    1629   -1638    1647       3
    1626    1620    1629    1632       6    1626    1620    1629    1635       6
    1626    1620    1629    1638       7    1623    1620    1629    1632       6
    1623    1620    1629    1635       6    1623    1620    1629    1638       7
    1620    1629    1638    1641       1    1620    1629    1638    1644       1
    1617    1611    1620    1623       1    1617    1611    1620    1626       1
    1617    1611    1620    1629       1    1614    1611    1620    1623       1
    1614    1611    1620    1626       1    1614    1611    1620    1629       1
    1611    1620    1629    1632       7    1611    1620    1629    1635       7
    1608    1611    1620    1623       2    1608    1611   -1620    1623       3
    1608    1611    1620    1626       2    1608    1611   -1620    1626       3
    1602    1608    1611    1614      11    1602    1608    1611    1617      11
    1596    1593    1599    1602      15    1590    1587    1593    1596      15
    1590    1587    1593    1599      15    1584    1575    1572    1587      15
    1584    1575    1578    1599      15    1581    1578    1575    1584      15
    1581    1578    1599    1593      15    1581    1578    1599    1602      15
    1578    1599    1593    1596      15    1575    1572    1587    1590      15
    1572    1575    1578    1581      15    1572    1587    1593    1596      15
    1566    1572    1575    1584      15    1566    1572    1587    1590      15
    1560    1554    1563    1566      11    1557    1554    1563    1566      11
    1719    1713    1722    1725       1    1719    1713    1722    1728       1
    1719    1713    1722    1731       2    1719    1713   -1722    1731       3
    1716    1713    1722    1725       1    1716    1713    1722    1728       1
    1716    1713    1722    1731       2    1716    1713   -1722    1731       3
    1710    1704    1713    1716       6    1710    1704    1713    1719       6
    1710    1704    1713    1722       7    1707    1704    1713    1716       6
    1707    1704    1713    1719       6    1707    1704    1713    1722       7
    1704    1713    1722    1725       1    1704    1713    1722    1728       1
    1701    1695    1704    1707       1    1701    1695    1704    1710       1
    1701    1695    1704    1713       1    1698    1695    1704    1707       1
    1698    1695    1704    1710       1    1698    1695    1704    1713       1
    1695    1704    1713    1716       7    1695    1704    1713    1719       7
    1692    1695    1704    1707       2    1692    1695   -1704    1707       3
    1692    1695    1704    1710       2    1692    1695   -1704    1710       3
    1686    1692    1695    1698      11    1686    1692    1695    1701      11
    1680    1677    1683    1686      15    1674    1671    1677    1680      15
    1674    1671    1677    1683      15    1668    1659    1656    1671      15
    1668    1659    1662    1683      15    1665    1662    1659    1668      15
    1665    1662    1683    1677      15    1665    1662    1683    1686      15
    1662    1683    1677    1680      15    1659    1656    1671    1674      15
    1656    1659    1662    1665      15    1656    1671    1677    1680      15
    1650    1656    1659    1668      15    1650    1656    1671    1674      15
    1644    1638    1647    1650      11    1641    1638    1647    1650      11
    1803    1797    1806    1809       1    1803    1797    1806    1812       1
    1803    1797    1806    1815       2    1803    1797   -1806    1815       3
    1800    1797    1806    1809       1    1800    1797    1806    1812       1
    1800    1797    1806    1815       2    1800    1797   -1806    1815       3
    1794    1788    1797    1800       6    1794    1788    1797    1803       6
    1794    1788    1797    1806       7    1791    1788    1797    1800       6
    1791    1788    1797    1803       6    1791    1788    1797    1806       7
    1788    1797    1806    1809       1    1788    1797    1806    1812       1
    1785    1779    1788    1791       1    1785    1779    1788    1794       1
    1785    1779    1788    1797       1    1782    1779    1788    1791       1
    1782    1779    1788    1794       1    1782    1779    1788    1797       1
    1779    1788    1797    1800       7    1779    1788    1797    1803       7
    1776    1779    1788    1791       2    1776    1779   -1788    1791       3
    1776    1779    1788    1794       2    1776    1779   -1788    1794       3
    1770    1776    1779    1782      11    1770    1776    1779    1785      11
    1764    1761    1767    1770      15    1758    1755    1761    1764      15
    1758    1755    1761    1767      15    1752    1743    1740    1755      15
    1752    1743    1746    1767      15    1749    1746    1743    1752      15
    1749    1746    1767    1761      15    1749    1746    1767    1770      15
    1746    1767    1761    1764      15    1743    1740    1755    1758      15
    1740    1743    1746    1749      15    1740    1755    1761    1764      15
    1734    1740    1743    1752      15    1734    1740    1755    1758      15
    1728    1722    1731    1734      11    1725    1722    1731    1734      11
    1887    1881    1890    1893       1    1887    1881    1890    1896       1
    1887    1881    1890    1899       2    1887    1881   -1890    1899       3
    1884    1881    1890    1893       1    1884    1881    1890    1896       1
    1884    1881    1890    1899       2    1884    1881   -1890    1899       3
    1878    1872    1881    1884       6    1878    1872    1881    1887       6
    1878    1872    1881    1890       7    1875    1872    1881    1884       6
    1875    1872    1881    1887       6    1875    1872    1881    1890       7
    1872    1881    1890    1893       1    1872    1881    1890    1896       1
    1869    1863    1872    1875       1    1869    1863    1872    1878       1
    1869    1863    1872    1881       1    1866    1863    1872    1875       1
    1866    1863    1872    1878       1    1866    1863    1872    1881       1
    1863    1872    1881    1884       7    1863    1872    1881    1887       7
    1860    1863    1872    1875       2    1860    1863   -1872    1875       3
    1860    1863    1872    1878       2    1860    1863   -1872    1878       3
    1854    1860    1863    1866      11    1854    1860    1863    1869      11
    1848    1845    1851    1854      15    1842    1839    1845    1848      15
    1842    1839    1845    1851      15    1836    1827    1824    1839      15
    1836    1827    1830    1851      15    1833    1830    1827    1836      15
    1833    1830    1851    1845      15    1833    1830    1851    1854      15
    1830    1851    1845    1848      15    1827    1824    1839    1842      15
    1824    1827    1830    1833      15    1824    1839    1845    1848      15
    1818    1824    1827    1836      15    1818    1824    1839    1842      15
    1812    1806    1815    1818      11    1809    1806    1815    1818      11
    1992    1986    1995    1998       1    1992    1986    1995    2001       1
    1992    1986    1995    2004       2    1992    1986   -1995    2004       3
    1989    1986    1995    1998       1    1989    1986    1995    2001       1
    1989    1986    1995    2004       2    1989    1986   -1995    2004       3
    1983    1986    1995    1998       2    1983    1986   -1995    1998       3
    1983    1986    1995    2001       2    1983    1986   -1995    2001       3
    1980    1974    1983    1986      24    1977    1974    1983    1986      24
    1974    1983    1986    1989      24    1974    1983    1986    1992      24
    1971    1965    1974    1977       1    1971    1965    1974    1980       1
    1971    1965    1974    1983       2    1971    1965   -1974    1983       3
    1968    1965    1974    1977       1    1968    1965    1974    1980       1
    1968    1965    1974    1983       2    1968    1965   -1974    1983       3
    1962    1965    1974    1977       2    1962    1965   -1974    1977       3
    1962    1965    1974    1980       2    1962    1965   -1974    1980       3
    1959    1953    1962    1965      24    1956    1953    1962    1965      24
    1953    1962    1965    1968      24    1953    1962    1965    1971      24
    1950    1944    1953    1956       1    1950    1944    1953    1959       1
    1950    1944    1953    1962       2    1950    1944   -1953    1962       3
    1947    1944    1953    1956       1    1947    1944    1953    1959       1
    1947    1944    1953    1962       2    1947    1944   -1953    1962       3
    1941    1944    1953    1956       2    1941    1944   -1953    1956       3
    1941    1944    1953    1959       2    1941    1944   -1953    1959       3
    1938    1932    1941    1944      24    1935    1932    1941    1944      24
    1932    1941    1944    1947      24    1932    1941    1944    1950      24
    1929    1923    1932    1935       1    1929    1923    1932    1938       1
    1929    1923    1932    1941       2    1929    1923   -1932    1941       3
    1926    1923    1932    1935       1    1926    1923    1932    1938       1
    1926    1923    1932    1941       2    1926    1923   -1932    1941       3
    1920    1923    1932    1935       2    1920    1923   -1932    1935       3
    1920    1923    1932    1938       2    1920    1923   -1932    1938       3
    1917    1911    1920    1923      24    1914    1911    1920    1923      24
    1911    1920    1923    1926      24    1911    1920    1923    1929      24
    1908    1902    1911    1914       1    1908    1902    1911    1917       1
    1908    1902    1911    1920       2    1908    1902   -1911    1920       3
    1905    1902    1911    1914       1    1905    1902    1911    1917       1
    1905    1902    1911    1920       2    1905    1902   -1911    1920       3
    1899    1902    1911    1914       2    1899    1902   -1911    1914       3
    1899    1902    1911    1917       2    1899    1902   -1911    1917       3
    1896    1890    1899    1902      24    1893    1890    1899    1902      24
    1890    1899    1902    1905      24    1890    1899    1902    1908      24
    2076    2070    2079    2082       1    2076    2070    2079    2085       1
    2076    2070    2079    2088       2    2076    2070   -2079    2088       3
    2073    2070    2079    2082       1    2073    2070    2079    2085       1
    2073    2070    2079    2088       2    2073    2070   -2079    2088       3
    2067    2061    2070    2073       6    2067    2061    2070    2076       6
    2067    2061    2070    2079       7    2064    2061    2070    2073       6
    2064    2061    2070    2076       6    2064    2061    2070    2079       7
    2061    2070    2079    2082       1    2061    2070    2079    2085       1
    2058    2052    2061    2064       1    2058    2052    2061    2067       1
    2058    2052    2061    2070       1    2055    2052    2061    2064       1
    2055    2052    2061    2067       1    2055    2052    2061    2070       1
    2052    2061    2070    2073       7    2052    2061    2070    2076       7
    2049    2052    2061    2064       2    2049    2052   -2061    2064       3
    2049    2052    2061    2067       2    2049    2052   -2061    2067       3
    2043    2049    2052    2055      11    2043    2049    2052    2058      11
    2037    2034    2040    2043      15    2031    2028    2034    2037      15
    2031    2028    2034    2040      15    2025    2016    2013    2028      15
    2025    2016    2019    2040      15    2022    2019    2016    2025      15
    2022    2019    2040    2034      15    2022    2019    2040    2043      15
    2019    2040    2034    2037      15    2016    2013    2028    2031      15
    2013    2016    2019    2022      15    2013    2028    2034    2037      15
    2007    2013    2016    2025      15    2007    2013    2028    2031      15
    2001    1995    2004    2007      11    1998    1995    2004    2007      11
    2160    2154    2163    2166       1    2160    2154    2163    2169       1
    2160    2154    2163    2172       2    2160    2154   -2163    2172       3
    2157    2154    2163    2166       1    2157    2154    2163    2169       1
    2157    2154    2163    2172       2    2157    2154   -2163    2172       3
    2151    2145    2154    2157       6    2151    2145    2154    2160       6
    2151    2145    2154    2163       7    2148    2145    2154    2157       6
    2148    2145    2154    2160       6    2148    2145    2154    2163       7
    2145    2154    2163    2166       1    2145    2154    2163    2169       1
    2142    2136    2145    2148       1    2142    2136    2145    2151       1
    2142    2136    2145    2154       1    2139    2136    2145    2148       1
    2139    2136    2145    2151       1    2139    2136    2145    2154       1
    2136    2145    2154    2157       7    2136    2145    2154    2160       7
    2133    2136    2145    2148       2    2133    2136   -2145    2148       3
    2133    2136    2145    2151       2    2133    2136   -2145    2151       3
    2127    2133    2136    2139      11    2127    2133    2136    2142      11
    2121    2118    2124    2127      15    2115    2112    2118    2121      15
    2115    2112    2118    2124      15    2109    2100    2097    2112      15
    2109    2100    2103    2124      15    2106    2103    2100    2109      15
    2106    2103    2124    2118      15    2106    2103    2124    2127      15
    2103    2124    2118    2121      15    2100    2097    2112    2115      15
    2097    2100    2103    2106      15    2097    2112    2118    2121      15
    2091    2097    2100    2109      15    2091    2097    2112    2115      15
    2085    2079    2088    2091      11    2082    2079    2088    2091      11
    2244    2238    2247    2250       1    2244    2238    2247    2253       1
    2244    2238    2247    2256       2    2244    2238   -2247    2256       3
    2241    2238    2247    2250       1    2241    2238    2247    2253       1
    2241    2238    2247    2256       2    2241    2238   -2247    2256       3
    2235    2229    2238    2241       6    2235    2229    2238    2244       6
    2235    2229    2238    2247       7    2232    2229    2238    2241       6
    2232    2229    2238    2244       6    2232    2229    2238    2247       7
    2229    2238    2247    2250       1    2229    2238    2247    2253       1
    2226    2220    2229    2232       1    2226    2220    2229    2235       1
    2226    2220    2229    2238       1    2223    2220    2229    2232       1
    2223    2220    2229    2235       1    2223    2220    2229    2238       1
    2220    2229    2238    2241       7    2220    2229    2238    2244       7
    2217    2220    2229    2232       2    2217    2220   -2229    2232       3
    2217    2220    2229    2235       2    2217    2220   -2229    2235       3
    2211    2217    2220    2223      11    2211    2217    2220    2226      11
    2205    2202    2208    2211      15    2199    2196    2202    2205      15
    2199    2196    2202    2208      15    2193    2184    2181    2196      15
    2193    2184    2187    2208      15    2190    2187    2184    2193      15
    2190    2187    2208    2202      15    2190    2187    2208    2211      15
    2187    2208    2202    2205      15    2184    2181    2196    2199      15
    2181    2184    2187    2190      15    2181    2196    2202    2205      15
    2175    2181    2184    2193      15    2175    2181    2196    2199      15
    2169    2163    2172    2175      11    2166    2163    2172    2175      11
    2328    2322    2331    2334       1    2328    2322    2331    2337       1
    2328    2322    2331    2340       2    2328    2322   -2331    2340       3
    2325    2322    2331    2334       1    2325    2322    2331    2337       1
    2325    2322    2331    2340       2    2325    2322   -2331    2340       3
    2319    2313    2322    2325       6    2319    2313    2322    2328       6
    2319    2313    2322    2331       7    2316    2313    2322    2325       6
    2316    2313    2322    2328       6    2316    2313    2322    2331       7
    2313    2322    2331    2334       1    2313    2322    2331    2337       1
    2310    2304    2313    2316       1    2310    2304    2313    2319       1
    2310    2304    2313    2322       1    2307    2304    2313    2316       1
    2307    2304    2313    2319       1    2307    2304    2313    2322       1
    2304    2313    2322    2325       7    2304    2313    2322    2328       7
    2301    2304    2313    2316       2    2301    2304   -2313    2316       3
    2301    2304    2313    2319       2    2301    2304   -2313    2319       3
    2295    2301    2304    2307      11    2295    2301    2304    2310      11
    2289    2286    2292    2295      15    2283    2280    2286    2289      15
    2283    2280    2286    2292      15    2277    2268    2265    2280      15
    2277    2268    2271    2292      15    2274    2271    2268    2277      15
    2274    2271    2292    2286      15    2274    2271    2292    2295      15
    2271    2292    2286    2289      15    2268    2265    2280    2283      15
    2265    2268    2271    2274      15    2265    2280    2286    2289      15
    2259    2265    2268    2277      15    2259    2265    2280    2283      15
    2253    2247    2256    2259      11    2250    2247    2256    2259      11
    2433    2427    2436    2439       1    2433    2427    2436    2442       1
    2433    2427    2436    2445       2    2433    2427   -2436    2445       3
    2430    2427    2436    2439       1    2430    2427    2436    2442       1
    2430    2427    2436    2445       2    2430    2427   -2436    2445       3
    2424    2427    2436    2439       2    2424    2427   -2436    2439       3
    2424    2427    2436    2442       2    2424    2427   -2436    2442       3
    2421    2415    2424    2427      24    2418    2415    2424    2427      24
    2415    2424    2427    2430      24    2415    2424    2427    2433      24
    2412    2406    2415    2418       1    2412    2406    2415    2421       1
    2412    2406    2415    2424       2    2412    2406   -2415    2424       3
    2409    2406    2415    2418       1    2409    2406    2415    2421       1
    2409    2406    2415    2424       2    2409    2406   -2415    2424       3
    2403    2406    2415    2418       2    2403    2406   -2415    2418       3
    2403    2406    2415    2421       2    2403    2406   -2415    2421       3
    2400    2394    2403    2406      24    2397    2394    2403    2406      24
    2394    2403    2406    2409      24    2394    2403    2406    2412      24
    2391    2385    2394    2397       1    2391    2385    2394    2400       1
    2391    2385    2394    2403       2    2391    2385   -2394    2403       3
    2388    2385    2394    2397       1    2388    2385    2394    2400       1
    2388    2385    2394    2403       2    2388    2385   -2394    2403       3
    2382    2385    2394    2397       2    2382    2385   -2394    2397       3
    2382    2385    2394    2400       2    2382    2385   -2394    2400       3
    2379    2373    2382    2385      24    2376    2373    2382    2385      24
    2373    2382    2385    2388      24    2373    2382    2385    2391      24
    2370    2364    2373    2376       1    2370    2364    2373    2379       1
    2370    2364    2373    2382       2    2370    2364   -2373    2382       3
    2367    2364    2373    2376       1    2367    2364    2373    2379       1
    2367    2364    2373    2382       2    2367    2364   -2373    2382       3
    2361    2364    2373    2376       2    2361    2364   -2373    2376       3
    2361    2364    2373    2379       2    2361    2364   -2373    2379       3
    2358    2352    2361    2364      24    2355    2352    2361    2364      24
    2352    2361    2364    2367      24    2352    2361    2364    2370      24
    2349    2343    2352    2355       1    2349    2343    2352    2358       1
    2349    2343    2352    2361       2    2349    2343   -2352    2361       3
    2346    2343    2352    2355       1    2346    2343    2352    2358       1
    2346    2343    2352    2361       2    2346    2343   -2352    2361       3
    2340    2343    2352    2355       2    2340    2343   -2352    2355       3
    2340    2343    2352    2358       2    2340    2343   -2352    2358       3
    2337    2331    2340    2343      24    2334    2331    2340    2343      24
    2331    2340    2343    2346      24    2331    2340    2343    2349      24
    2538    2532    2541    2544       1    2538    2532    2541    2547       1
    2538    2532    2541    2550       2    2538    2532   -2541    2550       3
    2535    2532    2541    2544       1    2535    2532    2541    2547       1
    2535    2532    2541    2550       2    2535    2532   -2541    2550       3
    2529    2532    2541    2544       2    2529    2532   -2541    2544       3
    2529    2532    2541    2547       2    2529    2532   -2541    2547       3
    2526    2520    2529    2532      24    2523    2520    2529    2532      24
    2520    2529    2532    2535      24    2520    2529    2532    2538      24
    2517    2511    2520    2523       1    2517    2511    2520    2526       1
    2517    2511    2520    2529       2    2517    2511   -2520    2529       3
    2514    2511    2520    2523       1    2514    2511    2520    2526       1
    2514    2511    2520    2529       2    2514    2511   -2520    2529       3
    2508    2511    2520    2523       2    2508    2511   -2520    2523       3
    2508    2511    2520    2526       2    2508    2511   -2520    2526       3
    2505    2499    2508    2511      24    2502    2499    2508    2511      24
    2499    2508    2511    2514      24    2499    2508    2511    2517      24
    2496    2490    2499    2502       1    2496    2490    2499    2505       1
    2496    2490    2499    2508       2    2496    2490   -2499    2508       3
    2493    2490    2499    2502       1    2493    2490    2499    2505       1
    2493    2490    2499    2508       2    2493    2490   -2499    2508       3
    2487    2490    2499    2502       2    2487    2490   -2499    2502       3
    2487    2490    2499    2505       2    2487    2490   -2499    2505       3
    2484    2478    2487    2490      24    2481    2478    2487    2490      24
    2478    2487    2490    2493      24    2478    2487    2490    2496      24
    2475    2469    2478    2481       1    2475    2469    2478    2484       1
    2475    2469    2478    2487       2    2475    2469   -2478    2487       3
    2472    2469    2478    2481       1    2472    2469    2478    2484       1
    2472    2469    2478    2487       2    2472    2469   -2478    2487       3
    2466    2469    2478    2481       2    2466    2469   -2478    2481       3
    2466    2469    2478    2484       2    2466    2469   -2478    2484       3
    2463    2457    2466    2469      24    2460    2457    2466    2469      24
    2457    2466    2469    2472      24    2457    2466    2469    2475      24
    2454    2448    2457    2460       1    2454    2448    2457    2463       1
    2454    2448    2457    2466       2    2454    2448   -2457    2466       3
    2451    2448    2457    2460       1    2451    2448    2457    2463       1
    2451    2448    2457    2466       2    2451    2448   -2457    2466       3
    2445    2448    2457    2460       2    2445    2448   -2457    2460       3
    2445    2448    2457    2463       2    2445    2448   -2457    2463       3
    2442    2436    2445    2448      24    2439    2436    2445    2448      24
    2436    2445    2448    2451      24    2436    2445    2448    2454      24
    2613    2607    2616    2619       6    2613    2607    2616    2622       6
    2610    2607    2616    2619       6    2610    2607    2616    2622       6
    2604    2598    2607    2610       1    2604    2598    2607    2613       1
    2604    2598    2607    2616       1    2601    2598    2607    2610       1
    2601    2598    2607    2613       1    2601    2598    2607    2616       1
    2598    2607    2616    2619       7    2598    2607    2616    2622       7
    2595    2598    2607    2610       2    2595    2598   -2607    2610       3
    2595    2598    2607    2613       2    2595    2598   -2607    2613       3
    2589    2595    2598    2601      11    2589    2595    2598    2604      11
    2583    2580    2586    2589      15    2577    2574    2580    2583      15
    2577    2574    2580    2586      15    2571    2562    2559    2574      15
    2571    2562    2565    2586      15    2568    2565    2562    2571      15
    2568    2565    2586    2580      15    2568    2565    2586    2589      15
    2565    2586    2580    2583      15    2562    2559    2574    2577      15
    2559    2562    2565    2568      15    2559    2574    2580    2583      15
    2553    2559    2562    2571      15    2553    2559    2574    2577      15
    2547    2541    2550    2553      11    2544    2541    2550    2553      11
      33      45     -39     -42      26      18      39     -33     -36      26
      21      45     -24     -27      26      18      24     -21     -30      26
     117     129    -123    -126      26     102     123    -117    -120      26
     105     129    -108    -111      26     102     108    -105    -114      26
     201     213    -207    -210      26     186     207    -201    -204      26
     189     213    -192    -195      26     186     192    -189    -198      26
     285     297    -291    -294      26     270     291    -285    -288      26
     273     297    -276    -279      26     270     276    -273    -282      26
     369     381    -375    -378      26     354     375    -369    -372      26
     357     381    -360    -363      26     354     360    -357    -366      26
     453     465    -459    -462      26     438     459    -453    -456      26
     441     465    -444    -447      26     438     444    -441    -450      26
     642     654    -648    -651      26     627     648    -642    -645      26
     630     654    -633    -636      26     627     633    -630    -639      26
     726     738    -732    -735      26     711     732    -726    -729      26
     714     738    -717    -720      26     711     717    -714    -723      26
     810     822    -816    -819      26     795     816    -810    -813      26
     798     822    -801    -804      26     795     801    -798    -807      26
     894     906    -900    -903      26     879     900    -894    -897      26
     882     906    -885    -888      26     879     885    -882    -891      26
     978     990    -984    -987      26     963     984    -978    -981      26
     966     990    -969    -972      26     963     969    -966    -975      26
    1062    1074   -1068   -1071      26    1047    1068   -1062   -1065      26
    1050    1074   -1053   -1056      26    1047    1053   -1050   -1059      26
    1146    1158   -1152   -1155      26    1131    1152   -1146   -1149      26
    1134    1158   -1137   -1140      26    1131    1137   -1134   -1143      26
    1230    1242   -1236   -1239      26    1215    1236   -1230   -1233      26
    1218    1242   -1221   -1224      26    1215    1221   -1218   -1227      26
    1314    1326   -1320   -1323      26    1299    1320   -1314   -1317      26
    1302    1326   -1305   -1308      26    1299    1305   -1302   -1311      26
    1503    1515   -1509   -1512      26    1488    1509   -1503   -1506      26
    1491    1515   -1494   -1497      26    1488    1494   -1491   -1500      26
    1587    1599   -1593   -1596      26    1572    1593   -1587   -1590      26
    1575    1599   -1578   -1581      26    1572    1578   -1575   -1584      26
    1671    1683   -1677   -1680      26    1656    1677   -1671   -1674      26
    1659    1683   -1662   -1665      26    1656    1662   -1659   -1668      26
    1755    1767   -1761   -1764      26    1740    1761   -1755   -1758      26
    1743    1767   -1746   -1749      26    1740    1746   -1743   -1752      26
    1839    1851   -1845   -1848      26    1824    1845   -1839   -1842      26
    1827    1851   -1830   -1833      26    1824    1830   -1827   -1836      26
    2028    2040   -2034   -2037      26    2013    2034   -2028   -2031      26
    2016    2040   -2019   -2022      26    2013    2019   -2016   -2025      26
    2112    2124   -2118   -2121      26    2097    2118   -2112   -2115      26
    2100    2124   -2103   -2106      26    2097    2103   -2100   -2109      26
    2196    2208   -2202   -2205      26    2181    2202   -2196   -2199      26
    2184    2208   -2187   -2190      26    2181    2187   -2184   -2193      26
    2280    2292   -2286   -2289      26    2265    2286   -2280   -2283      26
    2268    2292   -2271   -2274      26    2265    2271   -2268   -2277      26
    2574    2586   -2580   -2583      26    2559    2580   -2574   -2577      26
    2562    2586   -2565   -2568      26    2559    2565   -2562   -2571      26
%FLAG DIHEDRALS_WITHOUT_HYDROGEN                                                
%FORMAT(10I8)                                                                   
      75      84      93      96       4      75      84     -93      96       5
      66      75      84      93       1      57      66      75      84       8
      54      57      66      75       1      51      48      54      57       9
      51      48     -54      57      10      48      54      57      66       4
      48      54     -57      66       5      45      48      54      57      12
      45      48     -54      57      13      45      48     -54      57      14
      39      45      48      51      16      39      45      48      54      17
      33      39      45      48      15      24      21      18      33      15
      24      45     -39      33      15      24      45      48      51      16
      24      45      48      54      17      21      18      33      39      15
      21      24     -45      39      15      21      24      45      48      15
      18      21      24      45      15      18      33     -39      45      15
      15      12      18      21      16      15      12      18      33      16
      12      18      21      24      15      12      18      33      39      15
       9      12      18      21      17       9      12      18      33      17
       0       9      12      15       9       0       9     -12      15      10
       0       9      12      18      12       0       9     -12      18      13
       0       9     -12      18      14     159     168     177     180       4
     159     168    -177     180       5     150     159     168     177       1
     141     150     159     168       8     138     141     150     159       1
     135     132     138     141       9     135     132    -138     141      10
     132     138     141     150       4     132     138    -141     150       5
     129     132     138     141      12     129     132    -138     141      13
     129     132    -138     141      14     123     129     132     135      16
     123     129     132     138      17     117     123     129     132      15
     108     105     102     117      15     108     129    -123     117      15
     108     129     132     135      16     108     129     132     138      17
     105     102     117     123      15     105     108    -129     123      15
     105     108     129     132      15     102     105     108     129      15
     102     117    -123     129      15      99      96     102     105      16
      99      96     102     117      16      96     102     105     108      15
      96     102     117     123      15      93      96     102     105      17
      93      96     102     117      17      84      93      96      99       9
      84      93     -96      99      10      84      93      96     102      12
      84      93     -96     102      13      84      93     -96     102      14
     243     252     261     264       4     243     252    -261     264       5
     234     243     252     261       1     225     234     243     252       8
     222     225     234     243       1     219     216     222     225       9
     219     216    -222     225      10     216     222     225     234       4
     216     222    -225     234       5     213     216     222     225      12
     213     216    -222     225      13     213     216    -222     225      14
     207     213     216     219      16     207     213     216     222      17
     201     207     213     216      15     192     189     186     201      15
     192     213    -207     201      15     192     213     216     219      16
     192     213     216     222      17     189     186     201     207      15
     189     192    -213     207      15     189     192     213     216      15
     186     189     192     213      15     186     201    -207     213      15
     183     180     186     189      16     183     180     186     201      16
     180     186     189     192      15     180     186     201     207      15
     177     180     186     189      17     177     180     186     201      17
     168     177     180     183       9     168     177    -180     183      10
     168     177     180     186      12     168     177    -180     186      13
     168     177    -180     186      14     327     336     345     348       4
     327     336    -345     348       5     318     327     336     345       1
     309     318     327     336       8     306     309     318     327       1
     303     300     306     309       9     303     300    -306     309      10
     300     306     309     318       4     300     306    -309     318       5
     297     300     306     309      12     297     300    -306     309      13
     297     300    -306     309      14     291     297     300     303      16
     291     297     300     306      17     285     291     297     300      15
     276     273     270     285      15     276     297    -291     285      15
     276     297     300     303      16     276     297     300     306      17
     273     270     285     291      15     273     276    -297     291      15
     273     276     297     300      15     270     273     276     297      15
     270     285    -291     297      15     267     264     270     273      16
     267     264     270     285      16     264     270     273     276      15
     264     270     285     291      15     261     264     270     273      17
     261     264     270     285      17     252     261     264     267       9
     252     261    -264     267      10     252     261     264     270      12
     252     261    -264     270      13     252     261    -264     270      14
     411     420     429     432       4     411     420    -429     432       5
     402     411     420     429       1     393     402     411     420       8
     390     393     402     411       1     387     384     390     393       9
     387     384    -390     393      10     384     390     393     402       4
     384     390    -393     402       5     381     384     390     393      12
     381     384    -390     393      13     381     384    -390     393      14
     375     381     384     387      16     375     381     384     390      17
     369     375     381     384      15     360     357     354     369      15
     360     381    -375     369      15     360     381     384     387      16
     360     381     384     390      17     357     354     369     375      15
     357     360    -381     375      15     357     360     381     384      15
     354     357     360     381      15     354     369    -375     381      15
     351     348     354     357      16     351     348     354     369      16
     348     354     357     360      15     348     354     369     375      15
     345     348     354     357      17     345     348     354     369      17
     336     345     348     351       9     336     345    -348     351      10
     336     345     348     354      12     336     345    -348     354      13
     336     345    -348     354      14     495     504     513     516      18
     495     504    -513     516      19     495     504    -513     516      20
     486     495     504     513       1     477     486     495     504       8
     474     477     486     495       1     471     468     474     477       9
     471     468    -474     477      10     468     474     477     486       4
     468     474    -477     486       5     465     468     474     477      12
     465     468    -474     477      13     465     468    -474     477      14
     459     465     468     471      16     459     465     468     474      17
     453     459     465     468      15     444     441     438     453      15
     444     465    -459     453      15     444     465     468     471      16
     444     465     468     474      17     441     438     453     459      15
     441     444    -465     459      15     441     444     465     468      15
     438     441     444     465      15     438     453    -459     465      15
     435     432     438     441      16     435     432     438     453      16
     432     438     441     444      15     432     438     453     459      15
     429     432     438     441      17     429     432     438     453      17
     420     429     432     435       9     420     429    -432     435      10
     420     429     432     438      12     420     429    -432     438      13
     420     429    -432     438      14     600     609     618     621       4
     600     609    -618     621       5     597     600     609     618      21
     597     600    -609     618      22     597     600    -609     618      23
     588     597     600     609      18     588     597    -600     609      19
     588     597    -600     609      20     579     588     597     600      18
     579     588    -597     600      19     579     588    -597     600      20
     576     579     588     597      21     576     579    -588     597      22
     576     579    -588     597      23     567     576     579     588      18
     567     576    -579     588      19     567     576    -579     588      20
     558     567     576     579      18     558     567    -576     579      19
     558     567    -576     579      20     555     558     567     576      21
     555     558    -567     576      22     555     558    -567     576      23
     546     555     558     567      18     546     555    -558     567      19
     546     555    -558     567      20     537     546     555     558      18
     537     546    -555     558      19     537     546    -555     558      20
     534     537     546     555      21     534     537    -546     555      22
     534     537    -546     555      23     525     534     537     546      18
     525     534    -537     546      19     525     534    -537     546      20
     516     525     534     537      18     516     525    -534     537      19
     516     525    -534     537      20     513     516     525     534      21
     513     516    -525     534      22     513     516    -525     534      23
     504     513     516     525      18     504     513    -516     525      19
     504     513    -516     525      20     684     693     702     705       4
     684     693    -702     705       5     675     684     693     702       1
     666     675     684     693       8     663     666     675     684       1
     660     657     663     666       9     660     657    -663     666      10
     657     663     666     675       4     657     663    -666     675       5
     654     657     663     666      12     654     657    -663     666      13
     654     657    -663     666      14     648     654     657     660      16
     648     654     657     663      17     642     648     654     657      15
     633     630     627     642      15     633     654    -648     642      15
     633     654     657     660      16     633     654     657     663      17
     630     627     642     648      15     630     633    -654     648      15
     630     633     654     657      15     627     630     633     654      15
     627     642    -648     654      15     624     621     627     630      16
     624     621     627     642      16     621     627     630     633      15
     621     627     642     648      15     618     621     627     630      17
     618     621     627     642      17     609     618     621     624       9
     609     618    -621     624      10     609     618     621     627      12
     609     618    -621     627      13     609     618    -621     627      14
     768     777     786     789       4     768     777    -786     789       5
     759     768     777     786       1     750     759     768     777       8
     747     750     759     768       1     744     741     747     750       9
     744     741    -747     750      10     741     747     750     759       4
     741     747    -750     759       5     738     741     747     750      12
     738     741    -747     750      13     738     741    -747     750      14
     732     738     741     744      16     732     738     741     747      17
     726     732     738     741      15     717     714     711     726      15
     717     738    -732     726      15     717     738     741     744      16
     717     738     741     747      17     714     711     726     732      15
     714     717    -738     732      15     714     717     738     741      15
     711     714     717     738      15     711     726    -732     738      15
     708     705     711     714      16     708     705     711     726      16
     705     711     714     717      15     705     711     726     732      15
     702     705     711     714      17     702     705     711     726      17
     693     702     705     708       9     693     702    -705     708      10
     693     702     705     711      12     693     702    -705     711      13
     693     702    -705     711      14     852     861     870     873       4
     852     861    -870     873       5     843     852     861     870       1
     834     843     852     861       8     831     834     843     852       1
     828     825     831     834       9     828     825    -831     834      10
     825     831     834     843       4     825     831    -834     843       5
     822     825     831     834      12     822     825    -831     834      13
     822     825    -831     834      14     816     822     825     828      16
     816     822     825     831      17     810     816     822     825      15
     801     798     795     810      15     801     822    -816     810      15
     801     822     825     828      16     801     822     825     831      17
     798     795     810     816      15     798     801    -822     816      15
     798     801     822     825      15     795     798     801     822      15
     795     810    -816     822      15     792     789     795     798      16
     792     789     795     810      16     789     795     798     801      15
     789     795     810     816      15     786     789     795     798      17
     786     789     795     810      17     777     786     789     792       9
     777     786    -789     792      10     777     786     789     795      12
     777     786    -789     795      13     777     786    -789     795      14
     936     945     954     957       4     936     945    -954     957       5
     927     936     945     954       1     918     927     936     945       8
     915     918     927     936       1     912     909     915     918       9
     912     909    -915     918      10     909     915     918     927       4
     909     915    -918     927       5     906     909     915     918      12
     906     909    -915     918      13     906     909    -915     918      14
     900     906     909     912      16     900     906     909     915      17
     894     900     906     909      15     885     882     879     894      15
     885     906    -900     894      15     885     906     909     912      16
     885     906     909     915      17     882     879     894     900      15
     882     885    -906     900      15     882     885     906     909      15
     879     882     885     906      15     879     894    -900     906      15
     876     873     879     882      16     876     873     879     894      16
     873     879     882     885      15     873     879     894     900      15
     870     873     879     882      17     870     873     879     894      17
     861     870     873     876       9     861     870    -873     876      10
     861     870     873     879      12     861     870    -873     879      13
     861     870    -873     879      14    1020    1029    1038    1041       4
    1020    1029   -1038    1041       5    1011    1020    1029    1038       1
    1002    1011    1020    1029       8     999    1002    1011    1020       1
     996     993     999    1002       9     996     993    -999    1002      10
     993     999    1002    1011       4     993     999   -1002    1011       5
     990     993     999    1002      12     990     993    -999    1002      13
     990     993    -999    1002      14     984     990     993     996      16
     984     990     993     999      17     978     984     990     993      15
     969     966     963     978      15     969     990    -984     978      15
     969     990     993     996      16     969     990     993     999      17
     966     963     978     984      15     966     969    -990     984      15
     966     969     990     993      15     963     966     969     990      15
     963     978    -984     990      15     960     957     963     966      16
     960     957     963     978      16     957     963     966     969      15
     957     963     978     984      15     954     957     963     966      17
     954     957     963     978      17     945     954     957     960       9
     945     954    -957     960      10     945     954     957     963      12
     945     954    -957     963      13     945     954    -957     963      14
    1104    1113    1122    1125       4    1104    1113   -1122    1125       5
    1095    1104    1113    1122       1    1086    1095    1104    1113       8
    1083    1086    1095    1104       1    1080    1077    1083    1086       9
    1080    1077   -1083    1086      10    1077    1083    1086    1095       4
    1077    1083   -1086    1095       5    1074    1077    1083    1086      12
    1074    1077   -1083    1086      13    1074    1077   -1083    1086      14
    1068    1074    1077    1080      16    1068    1074    1077    1083      17
    1062    1068    1074    1077      15    1053    1050    1047    1062      15
    1053    1074   -1068    1062      15    1053    1074    1077    1080      16
    1053    1074    1077    1083      17    1050    1047    1062    1068      15
    1050    1053   -1074    1068      15    1050    1053    1074    1077      15
    1047    1050    1053    1074      15    1047    1062   -1068    1074      15
    1044    1041    1047    1050      16    1044    1041    1047    1062      16
    1041    1047    1050    1053      15    1041    1047    1062    1068      15
    1038    1041    1047    1050      17    1038    1041    1047    1062      17
    1029    1038    1041    1044       9    1029    1038   -1041    1044      10
    1029    1038    1041    1047      12    1029    1038   -1041    1047      13
    1029    1038   -1041    1047      14    1188    1197    1206    1209       4
    1188    1197   -1206    1209       5    1179    1188    1197    1206       1
    1170    1179    1188    1197       8    1167    1170    1179    1188       1
    1164    1161    1167    1170       9    1164    1161   -1167    1170      10
    1161    1167    1170    1179       4    1161    1167   -1170    1179       5
    1158    1161    1167    1170      12    1158    1161   -1167    1170      13
    1158    1161   -1167    1170      14    1152    1158    1161    1164      16
    1152    1158    1161    1167      17    1146    1152    1158    1161      15
    1137    1134    1131    1146      15    1137    1158   -1152    1146      15
    1137    1158    1161    1164      16    1137    1158    1161    1167      17
    1134    1131    1146    1152      15    1134    1137   -1158    1152      15
    1134    1137    1158    1161      15    1131    1134    1137    1158      15
    1131    1146   -1152    1158      15    1128    1125    1131    1134      16
    1128    1125    1131    1146      16    1125    1131    1134    1137      15
    1125    1131    1146    1152      15    1122    1125    1131    1134      17
    1122    1125    1131    1146      17    1113    1122    1125    1128       9
    1113    1122   -1125    1128      10    1113    1122    1125    1131      12
    1113    1122   -1125    1131      13    1113    1122   -1125    1131      14
    1272    1281    1290    1293       4    1272    1281   -1290    1293       5
    1263    1272    1281    1290       1    1254    1263    1272    1281       8
    1251    1254    1263    1272       1    1248    1245    1251    1254       9
    1248    1245   -1251    1254      10    1245    1251    1254    1263       4
    1245    1251   -1254    1263       5    1242    1245    1251    1254      12
    1242    1245   -1251    1254      13    1242    1245   -1251    1254      14
    1236    1242    1245    1248      16    1236    1242    1245    1251      17
    1230    1236    1242    1245      15    1221    1218    1215    1230      15
    1221    1242   -1236    1230      15    1221    1242    1245    1248      16
    1221    1242    1245    1251      17    1218    1215    1230    1236      15
    1218    1221   -1242    1236      15    1218    1221    1242    1245      15
    1215    1218    1221    1242      15    1215    1230   -1236    1242      15
    1212    1209    1215    1218      16    1212    1209    1215    1230      16
    1209    1215    1218    1221      15    1209    1215    1230    1236      15
    1206    1209    1215    1218      17    1206    1209    1215    1230      17
    1197    1206    1209    1212       9    1197    1206   -1209    1212      10
    1197    1206    1209    1215      12    1197    1206   -1209    1215      13
    1197    1206   -1209    1215      14    1356    1365    1374    1377      18
    1356    1365   -1374    1377      19    1356    1365   -1374    1377      20
    1347    1356    1365    1374       1    1338    1347    1356    1365       8
    1335    1338    1347    1356       1    1332    1329    1335    1338       9
    1332    1329   -1335    1338      10    1329    1335    1338    1347       4
    1329    1335   -1338    1347       5    1326    1329    1335    1338      12
    1326    1329   -1335    1338      13    1326    1329   -1335    1338      14
    1320    1326    1329    1332      16    1320    1326    1329    1335      17
    1314    1320    1326    1329      15    1305    1302    1299    1314      15
    1305    1326   -1320    1314      15    1305    1326    1329    1332      16
    1305    1326    1329    1335      17    1302    1299    1314    1320      15
    1302    1305   -1326    1320      15    1302    1305    1326    1329      15
    1299    1302    1305    1326      15    1299    1314   -1320    1326      15
    1296    1293    1299    1302      16    1296    1293    1299    1314      16
    1293    1299    1302    1305      15    1293    1299    1314    1320      15
    1290    1293    1299    1302      17    1290    1293    1299    1314      17
    1281    1290    1293    1296       9    1281    1290   -1293    1296      10
    1281    1290    1293    1299      12    1281    1290   -1293    1299      13
    1281    1290   -1293    1299      14    1461    1470    1479    1482       4
    1461    1470   -1479    1482       5    1458    1461    1470    1479      21
    1458    1461   -1470    1479      22    1458    1461   -1470    1479      23
    1449    1458    1461    1470      18    1449    1458   -1461    1470      19
    1449    1458   -1461    1470      20    1440    1449    1458    1461      18
    1440    1449   -1458    1461      19    1440    1449   -1458    1461      20
    1437    1440    1449    1458      21    1437    1440   -1449    1458      22
    1437    1440   -1449    1458      23    1428    1437    1440    1449      18
    1428    1437   -1440    1449      19    1428    1437   -1440    1449      20
    1419    1428    1437    1440      18    1419    1428   -1437    1440      19
    1419    1428   -1437    1440      20    1416    1419    1428    1437      21
    1416    1419   -1428    1437      22    1416    1419   -1428    1437      23
    1407    1416    1419    1428      18    1407    1416   -1419    1428      19
    1407    1416   -1419    1428      20    1398    1407    1416    1419      18
    1398    1407   -1416    1419      19    1398    1407   -1416    1419      20
    1395    1398    1407    1416      21    1395    1398   -1407    1416      22
    1395    1398   -1407    1416      23    1386    1395    1398    1407      18
    1386    1395   -1398    1407      19    1386    1395   -1398    1407      20
    1377    1386    1395    1398      18    1377    1386   -1395    1398      19
    1377    1386   -1395    1398      20    1374    1377    1386    1395      21
    1374    1377   -1386    1395      22    1374    1377   -1386    1395      23
    1365    1374    1377    1386      18    1365    1374   -1377    1386      19
    1365    1374   -1377    1386      20    1545    1554    1563    1566       4
    1545    1554   -1563    1566       5    1536    1545    1554    1563       1
    1527    1536    1545    1554       8    1524    1527    1536    1545       1
    1521    1518    1524    1527       9    1521    1518   -1524    1527      10
    1518    1524    1527    1536       4    1518    1524   -1527    1536       5
    1515    1518    1524    1527      12    1515    1518   -1524    1527      13
    1515    1518   -1524    1527      14    1509    1515    1518    1521      16
    1509    1515    1518    1524      17    1503    1509    1515    1518      15
    1494    1491    1488    1503      15    1494    1515   -1509    1503      15
    1494    1515    1518    1521      16    1494    1515    1518    1524      17
    1491    1488    1503    1509      15    1491    1494   -1515    1509      15
    1491    1494    1515    1518      15    1488    1491    1494    1515      15
    1488    1503   -1509    1515      15    1485    1482    1488    1491      16
    1485    1482    1488    1503      16    1482    1488    1491    1494      15
    1482    1488    1503    1509      15    1479    1482    1488    1491      17
    1479    1482    1488    1503      17    1470    1479    1482    1485       9
    1470    1479   -1482    1485      10    1470    1479    1482    1488      12
    1470    1479   -1482    1488      13    1470    1479   -1482    1488      14
    1629    1638    1647    1650       4    1629    1638   -1647    1650       5
    1620    1629    1638    1647       1    1611    1620    1629    1638       8
    1608    1611    1620    1629       1    1605    1602    1608    1611       9
    1605    1602   -1608    1611      10    1602    1608    1611    1620       4
    1602    1608   -1611    1620       5    1599    1602    1608    1611      12
    1599    1602   -1608    1611      13    1599    1602   -1608    1611      14
    1593    1599    1602    1605      16    1593    1599    1602    1608      17
    1587    1593    1599    1602      15    1578    1575    1572    1587      15
    1578    1599   -1593    1587      15    1578    1599    1602    1605      16
    1578    1599    1602    1608      17    1575    1572    1587    1593      15
    1575    1578   -1599    1593      15    1575    1578    1599    1602      15
    1572    1575    1578    1599      15    1572    1587   -1593    1599      15
    1569    1566    1572    1575      16    1569    1566    1572    1587      16
    1566    1572    1575    1578      15    1566    1572    1587    1593      15
    1563    1566    1572    1575      17    1563    1566    1572    1587      17
    1554    1563    1566    1569       9    1554    1563   -1566    1569      10
    1554    1563    1566    1572      12    1554    1563   -1566    1572      13
    1554    1563   -1566    1572      14    1713    1722    1731    1734       4
    1713    1722   -1731    1734       5    1704    1713    1722    1731       1
    1695    1704    1713    1722       8    1692    1695    1704    1713       1
    1689    1686    1692    1695       9    1689    1686   -1692    1695      10
    1686    1692    1695    1704       4    1686    1692   -1695    1704       5
    1683    1686    1692    1695      12    1683    1686   -1692    1695      13
    1683    1686   -1692    1695      14    1677    1683    1686    1689      16
    1677    1683    1686    1692      17    1671    1677    1683    1686      15
    1662    1659    1656    1671      15    1662    1683   -1677    1671      15
    1662    1683    1686    1689      16    1662    1683    1686    1692      17
    1659    1656    1671    1677      15    1659    1662   -1683    1677      15
    1659    1662    1683    1686      15    1656    1659    1662    1683      15
    1656    1671   -1677    1683      15    1653    1650    1656    1659      16
    1653    1650    1656    1671      16    1650    1656    1659    1662      15
    1650    1656    1671    1677      15    1647    1650    1656    1659      17
    1647    1650    1656    1671      17    1638    1647    1650    1653       9
    1638    1647   -1650    1653      10    1638    1647    1650    1656      12
    1638    1647   -1650    1656      13    1638    1647   -1650    1656      14
    1797    1806    1815    1818       4    1797    1806   -1815    1818       5
    1788    1797    1806    1815       1    1779    1788    1797    1806       8
    1776    1779    1788    1797       1    1773    1770    1776    1779       9
    1773    1770   -1776    1779      10    1770    1776    1779    1788       4
    1770    1776   -1779    1788       5    1767    1770    1776    1779      12
    1767    1770   -1776    1779      13    1767    1770   -1776    1779      14
    1761    1767    1770    1773      16    1761    1767    1770    1776      17
    1755    1761    1767    1770      15    1746    1743    1740    1755      15
    1746    1767   -1761    1755      15    1746    1767    1770    1773      16
    1746    1767    1770    1776      17    1743    1740    1755    1761      15
    1743    1746   -1767    1761      15    1743    1746    1767    1770      15
    1740    1743    1746    1767      15    1740    1755   -1761    1767      15
    1737    1734    1740    1743      16    1737    1734    1740    1755      16
    1734    1740    1743    1746      15    1734    1740    1755    1761      15
    1731    1734    1740    1743      17    1731    1734    1740    1755      17
    1722    1731    1734    1737       9    1722    1731   -1734    1737      10
    1722    1731    1734    1740      12    1722    1731   -1734    1740      13
    1722    1731   -1734    1740      14    1881    1890    1899    1902      18
    1881    1890   -1899    1902      19    1881    1890   -1899    1902      20
    1872    1881    1890    1899       1    1863    1872    1881    1890       8
    1860    1863    1872    1881       1    1857    1854    1860    1863       9
    1857    1854   -1860    1863      10    1854    1860    1863    1872       4
    1854    1860   -1863    1872       5    1851    1854    1860    1863      12
    1851    1854   -1860    1863      13    1851    1854   -1860    1863      14
    1845    1851    1854    1857      16    1845    1851    1854    1860      17
    1839    1845    1851    1854      15    1830    1827    1824    1839      15
    1830    1851   -1845    1839      15    1830    1851    1854    1857      16
    1830    1851    1854    1860      17    1827    1824    1839    1845      15
    1827    1830   -1851    1845      15    1827    1830    1851    1854      15
    1824    1827    1830    1851      15    1824    1839   -1845    1851      15
    1821    1818    1824    1827      16    1821    1818    1824    1839      16
    1818    1824    1827    1830      15    1818    1824    1839    1845      15
    1815    1818    1824    1827      17    1815    1818    1824    1839      17
    1806    1815    1818    1821       9    1806    1815   -1818    1821      10
    1806    1815    1818    1824      12    1806    1815   -1818    1824      13
    1806    1815   -1818    1824      14    1986    1995    2004    2007       4
    1986    1995   -2004    2007       5    1983    1986    1995    2004      21
    1983    1986   -1995    2004      22    1983    1986   -1995    2004      23
    1974    1983    1986    1995      18    1974    1983   -1986    1995      19
    1974    1983   -1986    1995      20    1965    1974    1983    1986      18
    1965    1974   -1983    1986      19    1965    1974   -1983    1986      20
    1962    1965    1974    1983      21    1962    1965   -1974    1983      22
    1962    1965   -1974    1983      23    1953    1962    1965    1974      18
    1953    1962   -1965    1974      19    1953    1962   -1965    1974      20
    1944    1953    1962    1965      18    1944    1953   -1962    1965      19
    1944    1953   -1962    1965      20    1941    1944    1953    1962      21
    1941    1944   -1953    1962      22    1941    1944   -1953    1962      23
    1932    1941    1944    1953      18    1932    1941   -1944    1953      19
    1932    1941   -1944    1953      20    1923    1932    1941    1944      18
    1923    1932   -1941    1944      19    1923    1932   -1941    1944      20
    1920    1923    1932    1941      21    1920    1923   -1932    1941      22
    1920    1923   -1932    1941      23    1911    1920    1923    1932      18
    1911    1920   -1923    1932      19    1911    1920   -1923    1932      20
    1902    1911    1920    1923      18    1902    1911   -1920    1923      19
    1902    1911   -1920    1923      20    1899    1902    1911    1920      21
    1899    1902   -1911    1920      22    1899    1902   -1911    1920      23
    1890    1899    1902    1911      18    1890    1899   -1902    1911      19
    1890    1899   -1902    1911      20    2070    2079    2088    2091       4
    2070    2079   -2088    2091       5    2061    2070    2079    2088       1
    2052    2061    2070    2079       8    2049    2052    2061    2070       1
    2046    2043    2049    2052       9    2046    2043   -2049    2052      10
    2043    2049    2052    2061       4    2043    2049   -2052    2061       5
    2040    2043    2049    2052      12    2040    2043   -2049    2052      13
    2040    2043   -2049    2052      14    2034    2040    2043    2046      16
    2034    2040    2043    2049      17    2028    2034    2040    2043      15
    2019    2016    2013    2028      15    2019    2040   -2034    2028      15
    2019    2040    2043    2046      16    2019    2040    2043    2049      17
    2016    2013    2028    2034      15    2016    2019   -2040    2034      15
    2016    2019    2040    2043      15    2013    2016    2019    2040      15
    2013    2028   -2034    2040      15    2010    2007    2013    2016      16
    2010    2007    2013    2028      16    2007    2013    2016    2019      15
    2007    2013    2028    2034      15    2004    2007    2013    2016      17
    2004    2007    2013    2028      17    1995    2004    2007    2010       9
    1995    2004   -2007    2010      10    1995    2004    2007    2013      12
    1995    2004   -2007    2013      13    1995    2004   -2007    2013      14
    2154    2163    2172    2175       4    2154    2163   -2172    2175       5
    2145    2154    2163    2172       1    2136    2145    2154    2163       8
    2133    2136    2145    2154       1    2130    2127    2133    2136       9
    2130    2127   -2133    2136      10    2127    2133    2136    2145       4
    2127    2133   -2136    2145       5    2124    2127    2133    2136      12
    2124    2127   -2133    2136      13    2124    2127   -2133    2136      14
    2118    2124    2127    2130      16    2118    2124    2127    2133      17
    2112    2118    2124    2127      15    2103    2100    2097    2112      15
    2103    2124   -2118    2112      15    2103    2124    2127    2130      16
    2103    2124    2127    2133      17    2100    2097    2112    2118      15
    2100    2103   -2124    2118      15    2100    2103    2124    2127      15
    2097    2100    2103    2124      15    2097    2112   -2118    2124      15
    2094    2091    2097    2100      16    2094    2091    2097    2112      16
    2091    2097    2100    2103      15    2091    2097    2112    2118      15
    2088    2091    2097    2100      17    2088    2091    2097    2112      17
    2079    2088    2091    2094       9    2079    2088   -2091    2094      10
    2079    2088    2091    2097      12    2079    2088   -2091    2097      13
    2079    2088   -2091    2097      14    2238    2247    2256    2259       4
    2238    2247   -2256    2259       5    2229    2238    2247    2256       1
    2220    2229    2238    2247       8    2217    2220    2229    2238       1
    2214    2211    2217    2220       9    2214    2211   -2217    2220      10
    2211    2217    2220    2229       4    2211    2217   -2220    2229       5
    2208    2211    2217    2220      12    2208    2211   -2217    2220      13
    2208    2211   -2217    2220      14    2202    2208    2211    2214      16
    2202    2208    2211    2217      17    2196    2202    2208    2211      15
    2187    2184    2181    2196      15    2187    2208   -2202    2196      15
    2187    2208    2211    2214      16    2187    2208    2211    2217      17
    2184    2181    2196    2202      15    2184    2187   -2208    2202      15
    2184    2187    2208    2211      15    2181    2184    2187    2208      15
    2181    2196   -2202    2208      15    2178    2175    2181    2184      16
    2178    2175    2181    2196      16    2175    2181    2184    2187      15
    2175    2181    2196    2202      15    2172    2175    2181    2184      17
    2172    2175    2181    2196      17    2163    2172    2175    2178       9
    2163    2172   -2175    2178      10    2163    2172    2175    2181      12
    2163    2172   -2175    2181      13    2163    2172   -2175    2181      14
    2322    2331    2340    2343      18    2322    2331   -2340    2343      19
    2322    2331   -2340    2343      20    2313    2322    2331    2340       1
    2304    2313    2322    2331       8    2301    2304    2313    2322       1
    2298    2295    2301    2304       9    2298    2295   -2301    2304      10
    2295    2301    2304    2313       4    2295    2301   -2304    2313       5
    2292    2295    2301    2304      12    2292    2295   -2301    2304      13
    2292    2295   -2301    2304      14    2286    2292    2295    2298      16
    2286    2292    2295    2301      17    2280    2286    2292    2295      15
    2271    2268    2265    2280      15    2271    2292   -2286    2280      15
    2271    2292    2295    2298      16    2271    2292    2295    2301      17
    2268    2265    2280    2286      15    2268    2271   -2292    2286      15
    2268    2271    2292    2295      15    2265    2268    2271    2292      15
    2265    2280   -2286    2292      15    2262    2259    2265    2268      16
    2262    2259    2265    2280      16    2259    2265    2268    2271      15
    2259    2265    2280    2286      15    2256    2259    2265    2268      17
    2256    2259    2265    2280      17    2247    2256    2259    2262       9
    2247    2256   -2259    2262      10    2247    2256    2259    2265      12
    2247    2256   -2259    2265      13    2247    2256   -2259    2265      14
    2427    2436    2445    2448      18    2427    2436   -2445    2448      19
    2427    2436   -2445    2448      20    2424    2427    2436    2445      21
    2424    2427   -2436    2445      22    2424    2427   -2436    2445      23
    2415    2424    2427    2436      18    2415    2424   -2427    2436      19
    2415    2424   -2427    2436      20    2406    2415    2424    2427      18
    2406    2415   -2424    2427      19    2406    2415   -2424    2427      20
    2403    2406    2415    2424      21    2403    2406   -2415    2424      22
    2403    2406   -2415    2424      23    2394    2403    2406    2415      18
    2394    2403   -2406    2415      19    2394    2403   -2406    2415      20
    2385    2394    2403    2406      18    2385    2394   -2403    2406      19
    2385    2394   -2403    2406      20    2382    2385    2394    2403      21
    2382    2385   -2394    2403      22    2382    2385   -2394    2403      23
    2373    2382    2385    2394      18    2373    2382   -2385    2394      19
    2373    2382   -2385    2394      20    2364    2373    2382    2385      18
    2364    2373   -2382    2385      19    2364    2373   -2382    2385      20
    2361    2364    2373    2382      21    2361    2364   -2373    2382      22
    2361    2364   -2373    2382      23    2352    2361    2364    2373      18
    2352    2361   -2364    2373      19    2352    2361   -2364    2373      20
    2343    2352    2361    2364      18    2343    2352   -2361    2364      19
    2343    2352   -2361    2364      20    2340    2343    2352    2361      21
    2340    2343   -2352    2361      22    2340    2343   -2352    2361      23
    2331    2340    2343    2352      18    2331    2340   -2343    2352      19
    2331    2340   -2343    2352      20    2532    2541    2550    2553       4
    2532    2541   -2550    2553       5    2529    2532    2541    2550      21
    2529    2532   -2541    2550      22    2529    2532   -2541    2550      23
    2520    2529    2532    2541      18    2520    2529   -2532    2541      19
    2520    2529   -2532    2541      20    2511    2520    2529    2532      18
    2511    2520   -2529    2532      19    2511    2520   -2529    2532      20
    2508    2511    2520    2529      21    2508    2511   -2520    2529      22
    2508    2511   -2520    2529      23    2499    2508    2511    2520      18
    2499    2508   -2511    2520      19    2499    2508   -2511    2520      20
    2490    2499    2508    2511      18    2490    2499   -2508    2511      19
    2490    2499   -2508    2511      20    2487    2490    2499    2508      21
    2487    2490   -2499    2508      22    2487    2490   -2499    2508      23
    2478    2487    2490    2499      18    2478    2487   -2490    2499      19
    2478    2487   -2490    2499      20    2469    2478    2487    2490      18
    2469    2478   -2487    2490      19    2469    2478   -2487    2490      20
    2466    2469    2478    2487      21    2466    2469   -2478    2487      22
    2466    2469   -2478    2487      23    2457    2466    2469    2478      18
    2457    2466   -2469    2478      19    2457    2466   -2469    2478      20
    2448    2457    2466    2469      18    2448    2457   -2466    2469      19
    2448    2457   -2466    2469      20    2445    2448    2457    2466      21
    2445    2448   -2457    2466      22    2445    2448   -2457    2466      23
    2436    2445    2448    2457      18    2436    2445   -2448    2457      19
    2436    2445   -2448    2457      20    2595    2598    2607    2616       1
    2592    2589    2595    2598       9    2592    2589   -2595    2598      10
    2589    2595    2598    2607       4    2589    2595   -2598    2607       5
    2586    2589    2595    2598      12    2586    2589   -2595    2598      13
    2586    2589   -2595    2598      14    2580    2586    2589    2592      16
    2580    2586    2589    2595      17    2574    2580    2586    2589      15
    2565    2562    2559    2574      15    2565    2586   -2580    2574      15
    2565    2586    2589    2592      16    2565    2586    2589    2595      17
    2562    2559    2574    2580      15    2562    2565   -2586    2580      15
    2562    2565    2586    2589      15    2559    2562    2565    2586      15
    2559    2574   -2580    2586      15    2556    2553    2559    2562      16
    2556    2553    2559    2574      16    2553    2559    2562    2565      15
    2553    2559    2574    2580      15    2550    2553    2559    2562      17
    2550    2553    2559    2574      17    2541    2550    2553    2556       9
    2541    2550   -2553    2556      10    2541    2550    2553    2559      12
    2541    2550   -2553    2559      13    2541    2550   -2553    2559      14
      45      54     -48     -51      25       9      18     -12     -15      25
     129     138    -132    -135      25      93     102     -96     -99      25
     213     222    -216    -219      25     177     186    -180    -183      25
     297     306    -300    -303      25     261     270    -264    -267      25
     381     390    -384    -387      25     345     354    -348    -351      25
     465     474    -468    -471      25     429     438    -432    -435      25
     654     663    -657    -660      25     618     627    -621    -624      25
     738     747    -741    -744      25     702     711    -705    -708      25
     822     831    -825    -828      25     786     795    -789    -792      25
     906     915    -909    -912      25     870     879    -873    -876      25
     990     999    -993    -996      25     954     963    -957    -960      25
    1074    1083   -1077   -1080      25    1038    1047   -1041   -1044      25
    1158    1167   -1161   -1164      25    1122    1131   -1125   -1128      25
    1242    1251   -1245   -1248      25    1206    1215   -1209   -1212      25
    1326    1335   -1329   -1332      25    1290    1299   -1293   -1296      25
    1515    1524   -1518   -1521      25    1479    1488   -1482   -1485      25
    1599    1608   -1602   -1605      25    1563    1572   -1566   -1569      25
    1683    1692   -1686   -1689      25    1647    1656   -1650   -1653      25
    1767    1776   -1770   -1773      25    1731    1740   -1734   -1737      25
    1851    1860   -1854   -1857      25    1815    1824   -1818   -1821      25
    2040    2049   -2043   -2046      25    2004    2013   -2007   -2010      25
    2124    2133   -2127   -2130      25    2088    2097   -2091   -2094      25
    2208    2217   -2211   -2214      25    2172    2181   -2175   -2178      25
    2292    2301   -2295   -2298      25    2256    2265   -2259   -2262      25
    2586    2595   -2589   -2592      25    2550    2559   -2553   -2556      25
%FLAG EXCLUDED_ATOMS_LIST                                                       
%FORMAT(10I8)                                                                   
       2       3       4       5       6       7       3       4       5       4
       5       5       6       7       8      12       6       7       8       9
      11      12      13      14       7       8      12       8       9      10
      11      12      13      14      15      16       9      10      11      12
      13      14      16      17      10      11      12      14      15      16
      17      18      19      11      14      16      17      12      16      13
      14      15      16      17      14      15      16      15      16      17
      18      19      16      17      17      18      19      20      18      19
      20      21      22      23      19      20      20      21      22      23
      24      25      26      21      22      23      24      25      26      27
      28      29      22      23      24      25      26      23      24      25
      26      24      25      26      27      28      29      30      31      32
      25      26      27      28      29      26      27      28      29      27
      28      29      30      31      32      33      28      29      30      31
      32      29      30      31      32      30      31      32      33      34
      35      31      32      33      32      33      33      34      35      36
      40      34      35      36      37      39      40      41      42      35
      36      40      36      37      38      39      40      41      42      43
      44      37      38      39      40      41      42      44      45      38
      39      40      42      43      44      45      46      47      39      42
      44      45      40      44      41      42      43      44      45      42
      43      44      43      44      45      46      47      44      45      45
      46      47      48      46      47      48      49      50      51      47
      48      48      49      50      51      52      53      54      49      50
      51      52      53      54      55      56      57      50      51      52
      53      54      51      52      53      54      52      53      54      55
      56      57      58      59      60      53      54      55      56      57
      54      55      56      57      55      56      57      58      59      60
      61      56      57      58      59      60      57      58      59      60
      58      59      60      61      62      63      59      60      61      60
      61      61      62      63      64      68      62      63      64      65
      67      68      69      70      63      64      68      64      65      66
      67      68      69      70      71      72      65      66      67      68
      69      70      72      73      66      67      68      70      71      72
      73      74      75      67      70      72      73      68      72      69
      70      71      72      73      70      71      72      71      72      73
      74      75      72      73      73      74      75      76      74      75
      76      77      78      79      75      76      76      77      78      79
      80      81      82      77      78      79      80      81      82      83
      84      85      78      79      80      81      82      79      80      81
      82      80      81      82      83      84      85      86      87      88
      81      82      83      84      85      82      83      84      85      83
      84      85      86      87      88      89      84      85      86      87
      88      85      86      87      88      86      87      88      89      90
      91      87      88      89      88      89      89      90      91      92
      96      90      91      92      93      95      96      97      98      91
      92      96      92      93      94      95      96      97      98      99
     100      93      94      95      96      97      98     100     101      94
      95      96      98      99     100     101     102     103      95      98
     100     101      96     100      97      98      99     100     101      98
      99     100      99     100     101     102     103     100     101     101
     102     103     104     102     103     104     105     106     107     103
     104     104     105     106     107     108     109     110     105     106
     107     108     109     110     111     112     113     106     107     108
     109     110     107     108     109     110     108     109     110     111
     112     113     114     115     116     109     110     111     112     113
     110     111     112     113     111     112     113     114     115     116
     117     112     113     114     115     116     113     114     115     116
     114     115     116     117     118     119     115     116     117     116
     117     117     118     119     120     124     118     119     120     121
     123     124     125     126     119     120     124     120     121     122
     123     124     125     126     127     128     121     122     123     124
     125     126     128     129     122     123     124     126     127     128
     129     130     131     123     126     128     129     124     128     125
     126     127     128     129     126     127     128     127     128     129
     130     131     128     129     129     130     131     132     130     131
     132     133     134     135     131     132     132     133     134     135
     136     137     138     133     134     135     136     137     138     139
     140     141     134     135     136     137     138     135     136     137
     138     136     137     138     139     140     141     142     143     144
     137     138     139     140     141     138     139     140     141     139
     140     141     142     143     144     145     140     141     142     143
     144     141     142     143     144     142     143     144     145     146
     147     143     144     145     144     145     145     146     147     148
     152     146     147     148     149     151     152     153     154     147
     148     152     148     149     150     151     152     153     154     155
     156     149     150     151     152     153     154     156     157     150
     151     152     154     155     156     157     158     159     151     154
     156     157     152     156     153     154     155     156     157     154
     155     156     155     156     157     158     159     156     157     157
     158     159     160     158     159     160     161     162     163     159
     160     160     161     162     163     164     165     166     161     162
     163     164     165     166     167     168     169     162     163     164
     165     166     163     164     165     166     164     165     166     167
     168     169     170     171     172     165     166     167     168     169
     166     167     168     169     167     168     169     170     171     172
     173     168     169     170     171     172     169     170     171     172
     170     171     172     173     174     175     176     171     172     173
     172     173     173     174     175     176     177     178     179     174
     175     176     177     178     179     180     175     176     177     178
     179     176     177     178     179     177     178     179     180     181
     182     183     178     179     180     179     180     180     181     182
     183     184     185     186     181     182     183     184     185     186
     187     182     183     184     185     186     183     184     185     186
     184     185     186     187     188     189     190     185     186     187
     186     187     187     188     189     190     191     192     193     188
     189     190     191     192     193     194     189     190     191     192
     193     190     191     192     193     191     192     193     194     195
     196     197     192     193     194     193     194     194     195     196
     197     198     199     200     195     196     197     198     199     200
     201     196     197     198     199     200     197     198     199     200
     198     199     200     201     202     203     204     199     200     201
     200     201     201     202     203     204     205     206     207     202
     203     204     205     206     207     208     203     204     205     206
     207     204     205     206     207     205     206     207     208     209
     210     206     207     208     207     208     208     209     210     211
     215     209     210     211     212     214     215     216     217     210
     211     215     211     212     213     214     215     216     217     218
     219     212     213     214     215     216     217     219     220     213
     214     215     217     218     219     220     221     222     214     217
     219     220     215     219     216     217     218     219     220     217
     218     219     218     219     220     221     222     219     220     220
     221     222     223     221     222     223     224     225     226     222
     223     223     224     225     226     227     228     229     224     225
     226     227     228     229     230     231     232     225     226     227
     228     229     226     227     228     229     227     228     229     230
     231     232     233     234     235     228     229     230     231     232
     229     230     231     232     230     231     232     233     234     235
     236     231     232     233     234     235     232     233     234     235
     233     234     235     236     237     238     234     235     236     235
     236     236     237     238     239     243     237     238     239     240
     242     243     244     245     238     239     243     239     240     241
     242     243     244     245     246     247     240     241     242     243
     244     245     247     248     241     242     243     245     246     247
     248     249     250     242     245     247     248     243     247     244
     245     246     247     248     245     246     247     246     247     248
     249     250     247     248     248     249     250     251     249     250
     251     252     253     254     250     251     251     252     253     254
     255     256     257     252     253     254     255     256     257     258
     259     260     253     254     255     256     257     254     255     256
     257     255     256     257     258     259     260     261     262     263
     256     257     258     259     260     257     258     259     260     258
     259     260     261     262     263     264     259     260     261     262
     263     260     261     262     263     261     262     263     264     265
     266     262     263     264     263     264     264     265     266     267
     271     265     266     267     268     270     271     272     273     266
     267     271     267     268     269     270     271     272     273     274
     275     268     269     270     271     272     273     275     276     269
     270     271     273     274     275     276     277     278     270     273
     275     276     271     275     272     273     274     275     276     273
     274     275     274     275     276     277     278     275     276     276
     277     278     279     277     278     279     280     281     282     278
     279     279     280     281     282     283     284     285     280     281
     282     283     284     285     286     287     288     281     282     283
     284     285     282     283     284     285     283     284     285     286
     287     288     289     290     291     284     285     286     287     288
     285     286     287     288     286     287     288     289     290     291
     292     287     288     289     290     291     288     289     290     291
     289     290     291     292     293     294     290     291     292     291
     292     292     293     294     295     299     293     294     295     296
     298     299     300     301     294     295     299     295     296     297
     298     299     300     301     302     303     296     297     298     299
     300     301     303     304     297     298     299     301     302     303
     304     305     306     298     301     303     304     299     303     300
     301     302     303     304     301     302     303     302     303     304
     305     306     303     304     304     305     306     307     305     306
     307     308     309     310     306     307     307     308     309     310
     311     312     313     308     309     310     311     312     313     314
     315     316     309     310     311     312     313     310     311     312
     313     311     312     313     314     315     316     317     318     319
     312     313     314     315     316     313     314     315     316     314
     315     316     317     318     319     320     315     316     317     318
     319     316     317     318     319     317     318     319     320     321
     322     318     319     320     319     320     320     321     322     323
     327     321     322     323     324     326     327     328     329     322
     323     327     323     324     325     326     327     328     329     330
     331     324     325     326     327     328     329     331     332     325
     326     327     329     330     331     332     333     334     326     329
     331     332     327     331     328     329     330     331     332     329
     330     331     330     331     332     333     334     331     332     332
     333     334     335     333     334     335     336     337     338     334
     335     335     336     337     338     339     340     341     336     337
     338     339     340     341     342     343     344     337     338     339
     340     341     338     339     340     341     339     340     341     342
     343     344     345     346     347     340     341     342     343     344
     341     342     343     344     342     343     344     345     346     347
     348     343     344     345     346     347     344     345     346     347
     345     346     347     348     349     350     346     347     348     347
     348     348     349     350     351     355     349     350     351     352
     354     355     356     357     350     351     355     351     352     353
     354     355     356     357     358     359     352     353     354     355
     356     357     359     360     353     354     355     357     358     359
     360     361     362     354     357     359     360     355     359     356
     357     358     359     360     357     358     359     358     359     360
     361     362     359     360     360     361     362     363     361     362
     363     364     365     366     362     363     363     364     365     366
     367     368     369     364     365     366     367     368     369     370
     371     372     365     366     367     368     369     366     367     368
     369     367     368     369     370     371     372     373     374     375
     368     369     370     371     372     369     370     371     372     370
     371     372     373     374     375     376     371     372     373     374
     375     372     373     374     375     373     374     375     376     377
     378     374     375     376     375     376     376     377     378     379
     383     377     378     379     380     382     383     384     385     378
     379     383     379     380     381     382     383     384     385     386
     387     380     381     382     383     384     385     387     388     381
     382     383     385     386     387     388     389     390     382     385
     387     388     383     387     384     385     386     387     388     385
     386     387     386     387     388     389     390     387     388     388
     389     390     391     389     390     391     392     393     394     390
     391     391     392     393     394     395     396     397     392     393
     394     395     396     397     398     399     400     393     394     395
     396     397     394     395     396     397     395     396     397     398
     399     400     401     402     403     396     397     398     399     400
     397     398     399     400     398     399     400     401     402     403
     404     399     400     401     402     403     400     401     402     403
     401     402     403     404     405     406     402     403     404     403
     404     404     405     406     407     411     405     406     407     408
     410     411     412     413     406     407     411     407     408     409
     410     411     412     413     414     415     408     409     410     411
     412     413     415     416     409     410     411     413     414     415
     416     417     418     410     413     415     416     411     415     412
     413     414     415     416     413     414     415     414     415     416
     417     418     415     416     416     417     418     419     417     418
     419     420     421     422     418     419     419     420     421     422
     423     424     425     420     421     422     423     424     425     426
     427     428     421     422     423     424     425     422     423     424
     425     423     424     425     426     427     428     429     430     431
     424     425     426     427     428     425     426     427     428     426
     427     428     429     430     431     432     427     428     429     430
     431     428     429     430     431     429     430     431     432     433
     434     430     431     432     431     432     432     433     434     435
     439     433     434     435     436     438     439     440     441     434
     435     439     435     436     437     438     439     440     441     442
     443     436     437     438     439     440     441     443     444     437
     438     439     441     442     443     444     445     446     438     441
     443     444     439     443     440     441     442     443     444     441
     442     443     442     443     444     445     446     443     444     444
     445     446     447     445     446     447     448     449     450     446
     447     447     448     449     450     451     452     453     448     449
     450     451     452     453     454     455     456     449     450     451
     452     453     450     451     452     453     451     452     453     454
     455     456     457     458     459     452     453     454     455     456
     453     454     455     456     454     455     456     457     458     459
     460     455     456     457     458     459     456     457     458     459
     457     458     459     460     461     462     463     458     459     460
     459     460     460     461     462     463     464     465     466     461
     462     463     464     465     466     467     462     463     464     465
     466     463     464     465     466     464     465     466     467     468
     469     470     465     466     467     466     467     467     468     469
     470     471     472     473     468     469     470     471     472     473
     474     469     470     471     472     473     470     471     472     473
     471     472     473     474     475     476     477     472     473     474
     473     474     474     475     476     477     478     479     480     475
     476     477     478     479     480     481     476     477     478     479
     480     477     478     479     480     478     479     480     481     482
     483     484     479     480     481     480     481     481     482     483
     484     485     486     487     482     483     484     485     486     487
     488     483     484     485     486     487     484     485     486     487
     485     486     487     488     489     490     491     486     487     488
     487     488     488     489     490     491     492     493     494     489
     490     491     492     493     494     495     490     491     492     493
     494     491     492     493     494     492     493     494     495     496
     497     493     494     495     494     495     495     496     497     498
     502     496     497     498     499     501     502     503     504     497
     498     502     498     499     500     501     502     503     504     505
     506     499     500     501     502     503     504     506     507     500
     501     502     504     505     506     507     508     509     501     504
     506     507     502     506     503     504     505     506     507     504
     505     506     505     506     507     508     509     506     507     507
     508     509     510     508     509     510     511     512     513     509
     510     510     511     512     513     514     515     516     511     512
     513     514     515     516     517     518     519     512     513     514
     515     516     513     514     515     516     514     515     516     517
     518     519     520     521     522     515     516     517     518     519
     516     517     518     519     517     518     519     520     521     522
     523     518     519     520     521     522     519     520     521     522
     520     521     522     523     524     525     521     522     523     522
     523     523     524     525     526     530     524     525     526     527
     529     530     531     532     525     526     530     526     527     528
     529     530     531     532     533     534     527     528     529     530
     531     532     534     535     528     529     530     532     533     534
     535     536     537     529     532     534     535     530     534     531
     532     533     534     535     532     533     534     533     534     535
     536     537     534     535     535     536     537     538     536     537
     538     539     540     541     537     538     538     539     540     541
     542     543     544     539     540     541     542     543     544     545
     546     547     540     541     542     543     544     541     542     543
     544     542     543     544     545     546     547     548     549     550
     543     544     545     546     547     544     545     546     547     545
     546     547     548     549     550     551     546     547     548     549
     550     547     548     549     550     548     549     550     551     552
     553     549     550     551     550     551     551     552     553     554
     558     552     553     554     555     557     558     559     560     553
     554     558     554     555     556     557     558     559     560     561
     562     555     556     557     558     559     560     562     563     556
     557     558     560     561     562     563     564     565     557     560
     562     563     558     562     559     560     561     562     563     560
     561     562     561     562     563     564     565     562     563     563
     564     565     566     564     565     566     567     568     569     565
     566     566     567     568     569     570     571     572     567     568
     569     570     571     572     573     574     575     568     569     570
     571     572     569     570     571     572     570     571     572     573
     574     575     576     577     578     571     572     573     574     575
     572     573     574     575     573     574     575     576     577     578
     579     574     575     576     577     578     575     576     577     578
     576     577     578     579     580     581     577     578     579     578
     579     579     580     581     582     586     580     581     582     583
     585     586     587     588     581     582     586     582     583     584
     585     586     587     588     589     590     583     584     585     586
     587     588     590     591     584     585     586     588     589     590
     591     592     593     585     588     590     591     586     590     587
     588     589     590     591     588     589     590     589     590     591
     592     593     590     591     591     592     593     594     592     593
     594     595     596     597     593     594     594     595     596     597
     598     599     600     595     596     597     598     599     600     601
     602     603     596     597     598     599     600     597     598     599
     600     598     599     600     601     602     603     604     605     606
     599     600     601     602     603     600     601     602     603     601
     602     603     604     605     606     607     602     603     604     605
     606     603     604     605     606     604     605     606     607     608
     609     605     606     607     606     607     607     608     609     610
     614     608     609     610     611     613     614     615     616     609
     610     614     610     611     612     613     614     615     616     617
     618     611     612     613     614     615     616     618     619     612
     613     614     616     617     618     619     620     621     613     616
     618     619     614     618     615     616     617     618     619     616
     617     618     617     618     619     620     621     618     619     619
     620     621     622     620     621     622     623     624     625     621
     622     622     623     624     625     626     627     628     623     624
     625     626     627     628     629     630     631     624     625     626
     627     628     625     626     627     628     626     627     628     629
     630     631     632     633     634     627     628     629     630     631
     628     629     630     631     629     630     631     632     633     634
     635     630     631     632     633     634     631     632     633     634
     632     633     634     635     636     637     638     633     634     635
     634     635     635     636     637     638     639     640     641     636
     637     638     639     640     641     642     637     638     639     640
     641     638     639     640     641     639     640     641     642     643
     644     645     640     641     642     641     642     642     643     644
     645     646     647     648     643     644     645     646     647     648
     649     644     645     646     647     648     645     646     647     648
     646     647     648     649     650     651     652     647     648     649
     648     649     649     650     651     652     653     654     655     650
     651     652     653     654     655     656     651     652     653     654
     655     652     653     654     655     653     654     655     656     657
     658     659     654     655     656     655     656     656     657     658
     659     660     661     662     657     658     659     660     661     662
     663     658     659     660     661     662     659     660     661     662
     660     661     662     663     664     665     666     661     662     663
     662     663     663     664     665     666     667     668     669     664
     665     666     667     668     669     670     665     666     667     668
     669     666     667     668     669     667     668     669     670     671
     672     668     669     670     669     670     670     671     672     673
     677     671     672     673     674     676     677     678     679     672
     673     677     673     674     675     676     677     678     679     680
     681     674     675     676     677     678     679     681     682     675
     676     677     679     680     681     682     683     684     676     679
     681     682     677     681     678     679     680     681     682     679
     680     681     680     681     682     683     684     681     682     682
     683     684     685     683     684     685     686     687     688     684
     685     685     686     687     688     689     690     691     686     687
     688     689     690     691     692     693     694     687     688     689
     690     691     688     689     690     691     689     690     691     692
     693     694     695     696     697     690     691     692     693     694
     691     692     693     694     692     693     694     695     696     697
     698     693     694     695     696     697     694     695     696     697
     695     696     697     698     699     700     696     697     698     697
     698     698     699     700     701     705     699     700     701     702
     704     705     706     707     700     701     705     701     702     703
     704     705     706     707     708     709     702     703     704     705
     706     707     709     710     703     704     705     707     708     709
     710     711     712     704     707     709     710     705     709     706
     707     708     709     710     707     708     709     708     709     710
     711     712     709     710     710     711     712     713     711     712
     713     714     715     716     712     713     713     714     715     716
     717     718     719     714     715     716     717     718     719     720
     721     722     715     716     717     718     719     716     717     718
     719     717     718     719     720     721     722     723     724     725
     718     719     720     721     722     719     720     721     722     720
     721     722     723     724     725     726     721     722     723     724
     725     722     723     724     725     723     724     725     726     727
     728     724     725     726     725     726     726     727     728     729
     733     727     728     729     730     732     733     734     735     728
     729     733     729     730     731     732     733     734     735     736
     737     730     731     732     733     734     735     737     738     731
     732     733     735     736     737     738     739     740     732     735
     737     738     733     737     734     735     736     737     738     735
     736     737     736     737     738     739     740     737     738     738
     739     740     741     739     740     741     742     743     744     740
     741     741     742     743     744     745     746     747     742     743
     744     745     746     747     748     749     750     743     744     745
     746     747     744     745     746     747     745     746     747     748
     749     750     751     752     753     746     747     748     749     750
     747     748     749     750     748     749     750     751     752     753
     754     749     750     751     752     753     750     751     752     753
     751     752     753     754     755     756     752     753     754     753
     754     754     755     756     757     761     755     756     757     758
     760     761     762     763     756     757     761     757     758     759
     760     761     762     763     764     765     758     759     760     761
     762     763     765     766     759     760     761     763     764     765
     766     767     768     760     763     765     766     761     765     762
     763     764     765     766     763     764     765     764     765     766
     767     768     765     766     766     767     768     769     767     768
     769     770     771     772     768     769     769     770     771     772
     773     774     775     770     771     772     773     774     775     776
     777     778     771     772     773     774     775     772     773     774
     775     773     774     775     776     777     778     779     780     781
     774     775     776     777     778     775     776     777     778     776
     777     778     779     780     781     782     777     778     779     780
     781     778     779     780     781     779     780     781     782     783
     784     785     780     781     782     781     782     782     783     784
     785     786     787     788     783     784     785     786     787     788
     789     784     785     786     787     788     785     786     787     788
     786     787     788     789     790     791     792     787     788     789
     788     789     789     790     791     792     793     794     795     790
     791     792     793     794     795     796     791     792     793     794
     795     792     793     794     795     793     794     795     796     797
     798     799     794     795     796     795     796     796     797     798
     799     800     801     802     797     798     799     800     801     802
     803     798     799     800     801     802     799     800     801     802
     800     801     802     803     804     805     806     801     802     803
     802     803     803     804     805     806     807     808     809     804
     805     806     807     808     809     810     805     806     807     808
     809     806     807     808     809     807     808     809     810     811
     812     813     808     809     810     809     810     810     811     812
     813     814     815     816     811     812     813     814     815     816
     817     812     813     814     815     816     813     814     815     816
     814     815     816     817     818     819     820     815     816     817
     816     817     817     818     819     820     821     822     823     818
     819     820     821     822     823     824     819     820     821     822
     823     820     821     822     823     821     822     823     824     825
     826     827     822     823     824     823     824     824     825     826
     827     828     829     830     825     826     827     828     829     830
     831     826     827     828     829     830     827     828     829     830
     828     829     830     831     832     833     834     829     830     831
     830     831     831     832     833     834     835     836     837     832
     833     834     835     836     837     838     833     834     835     836
     837     834     835     836     837     835     836     837     838     839
     840     841     836     837     838     837     838     838     839     840
     841     842     843     844     839     840     841     842     843     844
     845     840     841     842     843     844     841     842     843     844
     842     843     844     845     846     847     848     843     844     845
     844     845     845     846     847     848     849     850     851     846
     847     848     849     850     851     852     847     848     849     850
     851     848     849     850     851     849     850     851     852     853
     854     850     851     852     851     852     852     853     854     855
     859     853     854     855     856     858     859     860     861     854
     855     859     855     856     857     858     859     860     861     862
     863     856     857     858     859     860     861     863     864     857
     858     859     861     862     863     864     865     866     858     861
     863     864     859     863     860     861     862     863     864     861
     862     863     862     863     864     865     866     863     864     864
     865     866     867     865     866     867     868     869     870     866
     867     867     868     869     870     871     872     873     868     869
     870     871     872     873     874     875     869     870     871     872
     873     870     871     872     873     871     872     873     874     875
     872     873     874     875     873     874     875     874     875     875
       0
%FLAG HBOND_ACOEF                                                               
%FORMAT(5E16.8)                                                                 

%FLAG HBOND_BCOEF                                                               
%FORMAT(5E16.8)                                                                 

%FLAG HBCUT                                                                     
%FORMAT(5E16.8)                                                                 

%FLAG AMBER_ATOM_TYPE                                                           
%FORMAT(20a4)                                                                   
c3  h1  h1  os  c   o   ca  ca  ca  ha  ha  ca  ha  ca  ha  ca  c   o   os  c3  
h1  h1  c3  hc  hc  c3  hc  hc  c3  h1  h1  os  c   o   ca  ca  ca  ha  ha  ca  
ha  ca  ha  ca  c   o   os  c3  h1  h1  c3  hc  hc  c3  hc  hc  c3  h1  h1  os  
c   o   ca  ca  ca  ha  ha  ca  ha  ca  ha  ca  c   o   os  c3  h1  h1  c3  hc  
hc  c3  hc  hc  c3  h1  h1  os  c   o   ca  ca  ca  ha  ha  ca  ha  ca  ha  ca  
c   o   os  c3  h1  h1  c3  hc  hc  c3  hc  hc  c3  h1  h1  os  c   o   ca  ca  
ca  ha  ha  ca  ha  ca  ha  ca  c   o   os  c3  h1  h1  c3  hc  hc  c3  hc  hc  
c3  h1  h1  os  c   o   ca  ca  ca  ha  ha  ca  ha  ca  ha  ca  c   o   os  c3  
h1  h1  c3  hc  hc  c3  hc  hc  c3  h1  h1  os  c3  h1  h1  c3  h1  h1  os  c3  
h1  h1  c3  h1  h1  os  c3  h1  h1  c3  h1  h1  os  c3  h1  h1  c3  h1  h1  os  
c3  h1  h1  c3  h1  h1  os  c   o   ca  ca  ca  ha  ha  ca  ha  ca  ha  ca  c   
o   os  c3  h1  h1  c3  hc  hc  c3  hc  hc  c3  h1  h1  os  c   o   ca  ca  ca  
ha  ha  ca  ha  ca  ha  ca  c   o   os  c3  h1  h1  c3  hc  hc  c3  hc  hc  c3  
h1  h1  os  c   o   ca  ca  ca  ha  ha  ca  ha  ca  ha  ca  c   o   os  c3  h1  
h1  c3  hc  hc  c3  hc  hc  c3  h1  h1  os  c   o   ca  ca  ca  ha  ha  ca  ha  
ca  ha  ca  c   o   os  c3  h1  h1  c3  hc  hc  c3  hc  hc  c3  h1  h1  os  c   
o   ca  ca  ca  ha  ha  ca  ha  ca  ha  ca  c   o   os  c3  h1  h1  c3  hc  hc  
c3  hc  hc  c3  h1  h1  os  c   o   ca  ca  ca  ha  ha  ca  ha  ca  ha  ca  c   
o   os  c3  h1  h1  c3  hc  hc  c3  hc  hc  c3  h1  h1  os  c   o   ca  ca  ca  
ha  ha  ca  ha  ca  ha  ca  c   o   os  c3  h1  h1  c3  hc  hc  c3  hc  hc  c3  
h1  h1  os  c   o   ca  ca  ca  ha  ha  ca  ha  ca  ha  ca  c   o   os  c3  h1  
h1  c3  hc  hc  c3  hc  hc  c3  h1  h1  os  c   o   ca  ca  ca  ha  ha  ca  ha  
ca  ha  ca  c   o   os  c3  h1  h1  c3  hc  hc  c3  hc  hc  c3  h1  h1  os  c3  
h1  h1  c3  h1  h1  os  c3  h1  h1  c3  h1  h1  os  c3  h1  h1  c3  h1  h1  os  
c3  h1  h1  c3  h1  h1  os  c3  h1  h1  c3  h1  h1  os  c   o   ca  ca  ca  ha  
ha  ca  ha  ca  ha  ca  c   o   os  c3  h1  h1  c3  hc  hc  c3  hc  hc  c3  h1  
h1  os  c   o   ca  ca  ca  ha  ha  ca  ha  ca  ha  ca  c   o   os  c3  h1  h1  
c3  hc  hc  c3  hc  hc  c3  h1  h1  os  c   o   ca  ca  ca  ha  ha  ca  ha  ca  
ha  ca  c   o   os  c3  h1  h1  c3  hc  hc  c3  hc  hc  c3  h1  h1  os  c   o   
ca  ca  ca  ha  ha  ca  ha  ca  ha  ca  c   o   os  c3  h1  h1  c3  hc  hc  c3  
hc  hc  c3  h1  h1  os  c   o   ca  ca  ca  ha  ha  ca  ha  ca  ha  ca  c   o   
os  c3  h1  h1  c3  hc  hc  c3  hc  hc  c3  h1  h1  os  c3  h1  h1  c3  h1  h1  
os  c3  h1  h1  c3  h1  h1  os  c3  h1  h1  c3  h1  h1  os  c3  h1  h1  c3  h1  
h1  os  c3  h1  h1  c3  h1  h1  os  c   o   ca  ca  ca  ha  ha  ca  ha  ca  ha  
ca  c   o   os  c3  h1  h1  c3  hc  hc  c3  hc  hc  c3  h1  h1  os  c   o   ca  
ca  ca  ha  ha  ca  ha  ca  ha  ca  c   o   os  c3  h1  h1  c3  hc  hc  c3  hc  
hc  c3  h1  h1  os  c   o   ca  ca  ca  ha  ha  ca  ha  ca  ha  ca  c   o   os  
c3  h1  h1  c3  hc  hc  c3  hc  hc  c3  h1  h1  os  c   o   ca  ca  ca  ha  ha  
ca  ha  ca  ha  ca  c   o   os  c3  h1  h1  c3  hc  hc  c3  hc  hc  c3  h1  h1  
os  c3  h1  h1  c3  h1  h1  os  c3  h1  h1  c3  h1  h1  os  c3  h1  h1  c3  h1  
h1  os  c3  h1  h1  c3  h1  h1  os  c3  h1  h1  c3  h1  h1  os  c3  h1  h1  c3  
h1  h1  os  c3  h1  h1  c3  h1  h1  os  c3  h1  h1  c3  h1  h1  os  c3  h1  h1  
c3  h1  h1  os  c3  h1  h1  c3  h1  h1  os  c   o   ca  ca  ca  ha  ha  ca  ha  
ca  ha  ca  c   o   os  c3  h1  h1  c3  hc  hc  c3  hc  hc  
%FLAG TREE_CHAIN_CLASSIFICATION                                                 
%FORMAT(20a4)                                                                   
M   E   E   M   M   E   M   B   S   E   E   M   E   M   E   M   M   E   M   M   
E   E   M   E   E   M   E   E   M   E   E   M   M   E   M   B   S   E   E   M   
E   M   E   M   M   E   M   M   E   E   M   E   E   M   E   E   M   E   E   M   
M   E   M   B   S   E   E   M   E   M   E   M   M   E   M   M   E   E   M   E   
E   M   E   E   M   E   E   M   M   E   M   B   S   E   E   M   E   M   E   M   
M   E   M   M   E   E   M   E   E   M   E   E   M   E   E   M   M   E   M   B   
S   E   E   M   E   M   E   M   M   E   M   M   E   E   M   E   E   M   E   E   
M   E   E   M   M   E   M   B   S   E   E   M   E   M   E   M   M   E   M   M   
E   E   M   E   E   M   E   E   M   E   E   M   M   E   E   M   E   E   M   M   
E   E   M   E   E   M   M   E   E   M   E   E   M   M   E   E   M   E   E   M   
M   E   E   M   E   E   M   M   E   M   B   S   E   E   M   E   M   E   M   M   
E   M   M   E   E   M   E   E   M   E   E   M   E   E   M   M   E   M   B   S   
E   E   M   E   M   E   M   M   E   M   M   E   E   M   E   E   M   E   E   M   
E   E   M   M   E   M   B   S   E   E   M   E   M   E   M   M   E   M   M   E   
E   M   E   E   M   E   E   M   E   E   M   M   E   M   B   S   E   E   M   E   
M   E   M   M   E   M   M   E   E   M   E   E   M   E   E   M   E   E   M   M   
E   M   B   S   E   E   M   E   M   E   M   M   E   M   M   E   E   M   E   E   
M   E   E   M   E   E   M   M   E   M   B   S   E   E   M   E   M   E   M   M   
E   M   M   E   E   M   E   E   M   E   E   M   E   E   M   M   E   M   B   S   
E   E   M   E   M   E   M   M   E   M   M   E   E   M   E   E   M   E   E   M   
E   E   M   M   E   M   B   S   E   E   M   E   M   E   M   M   E   M   M   E   
E   M   E   E   M   E   E   M   E   E   M   M   E   M   B   S   E   E   M   E   
M   E   M   M   E   M   M   E   E   M   E   E   M   E   E   M   E   E   M   M   
E   E   M   E   E   M   M   E   E   M   E   E   M   M   E   E   M   E   E   M   
M   E   E   M   E   E   M   M   E   E   M   E   E   M   M   E   M   B   S   E   
E   M   E   M   E   M   M   E   M   M   E   E   M   E   E   M   E   E   M   E   
E   M   M   E   M   B   S   E   E   M   E   M   E   M   M   E   M   M   E   E   
M   E   E   M   E   E   M   E   E   M   M   E   M   B   S   E   E   M   E   M   
E   M   M   E   M   M   E   E   M   E   E   M   E   E   M   E   E   M   M   E   
M   B   S   E   E   M   E   M   E   M   M   E   M   M   E   E   M   E   E   M   
E   E   M   E   E   M   M   E   M   B   S   E   E   M   E   M   E   M   M   E   
M   M   E   E   M   E   E   M   E   E   M   E   E   M   M   E   E   M   E   E   
M   M   E   E   M   E   E   M   M   E   E   M   E   E   M   M   E   E   M   E   
E   M   M   E   E   M   E   E   M   M   E   M   B   S   E   E   M   E   M   E   
M   M   E   M   M   E   E   M   E   E   M   E   E   M   E   E   M   M   E   M   
B   S   E   E   M   E   M   E   M   M   E   M   M   E   E   M   E   E   M   E   
E   M   E   E   M   M   E   M   B   S   E   E   M   E   M   E   M   M   E   M   
M   E   E   M   E   E   M   E   E   M   E   E   M   M   E   M   B   S   E   E   
M   E   M   E   M   M   E   M   M   E   E   M   E   E   M   E   E   M   E   E   
M   M   E   E   M   E   E   M   M   E   E   M   E   E   M   M   E   E   M   E   
E   M   M   E   E   M   E   E   M   M   E   E   M   E   E   M   M   E   E   M   
E   E   M   M   E   E   M   E   E   M   M   E   E   M   E   E   M   M   E   E   
M   E   E   M   M   E   E   M   E   E   M   M   E   M   B   S   E   E   M   E   
M   E   M   M   E   M   M   E   E   M   E   E   M   E   E   
%FLAG JOIN_ARRAY                                                                
%FORMAT(10I8)                                                                   
       0       0       0       0       0       0       0       0       0       0
       0       0       0       0       0       0       0       0       0       0
       0       0       0       0       0       0       0       0       0       0
       0       0       0       0       0       0       0       0       0       0
       0       0       0       0       0       0       0       0       0       0
       0       0       0       0       0       0       0       0       0       0
       0       0       0       0       0       0       0       0       0       0
       0       0       0       0       0       0       0       0       0       0
       0       0       0       0       0       0       0       0       0       0
       0       0       0       0       0       0       0       0       0       0
       0       0       0       0       0       0       0       0       0       0
       0       0       0       0       0       0       0       0       0       0
       0       0       0       0       0       0       0       0       0       0
       0       0       0       0       0       0       0       0       0       0
       0       0       0       0       0       0       0       0       0       0
       0       0       0       0       0       0       0       0       0       0
       0       0       0       0       0       0       0       0       0       0
       0       0       0       0       0       0       0       0       0       0
       0       0       0       0       0       0       0       0       0       0
       0       0       0       0       0       0       0       0       0       0
       0       0       0       0       0       0       0       0       0       0
       0       0       0       0       0       0       0       0       0       0
       0       0       0       0       0       0       0       0       0       0
       0       0       0       0       0       0       0       0       0       0
       0       0       0       0       0       0       0       0       0       0
       0       0       0       0       0       0       0       0       0       0
       0       0       0       0       0       0       0       0       0       0
       0       0       0       0       0       0       0       0       0       0
       0       0       0       0       0       0       0       0       0       0
       0       0       0       0       0       0       0       0       0       0
       0       0       0       0       0       0       0       0       0       0
       0       0       0       0       0       0       0       0       0       0
       0       0       0       0       0       0       0       0       0       0
       0       0       0       0       0       0       0       0       0       0
       0       0       0       0       0       0       0       0       0       0
       0       0       0       0       0       0       0       0       0       0
       0       0       0       0       0       0       0       0       0       0
       0       0       0       0       0       0       0       0       0       0
       0       0       0       0       0       0       0       0       0       0
       0       0       0       0       0       0       0       0       0       0
       0       0       0       0       0       0       0       0       0       0
       0       0       0       0       0       0       0       0       0       0
       0       0       0       0       0       0       0       0       0       0
       0       0       0       0       0       0       0       0       0       0
       0       0       0       0       0       0       0       0       0       0
       0       0       0       0       0       0       0       0       0       0
       0       0       0       0       0       0       0       0       0       0
       0       0       0       0       0       0       0       0       0       0
       0       0       0       0       0       0       0       0       0       0
       0       0       0       0       0       0       0       0       0       0
       0       0       0       0       0       0       0       0       0       0
       0       0       0       0       0       0       0       0       0       0
       0       0       0       0       0       0       0       0       0       0
       0       0       0       0       0       0       0       0       0       0
       0       0       0       0       0       0       0       0       0       0
       0       0       0       0       0       0       0       0       0       0
       0       0       0       0       0       0       0       0       0       0
       0       0       0       0       0       0       0       0       0       0
       0       0       0       0       0       0       0       0       0       0
       0       0       0       0       0       0       0       0       0       0
       0       0       0       0       0       0       0       0       0       0
       0       0       0       0       0       0       0       0       0       0
       0       0       0       0       0       0       0       0       0       0
       0       0       0       0       0       0       0       0       0       0
       0       0       0       0       0       0       0       0       0       0
       0       0       0       0       0       0       0       0       0       0
       0       0       0       0       0       0       0       0       0       0
       0       0       0       0       0       0       0       0       0       0
       0       0       0       0       0       0       0       0       0       0
       0       0       0       0       0       0       0       0       0       0
       0       0       0       0       0       0       0       0       0       0
       0       0       0       0       0       0       0       0       0       0
       0       0       0       0       0       0       0       0       0       0
       0       0       0       0       0       0       0       0       0       0
       0       0       0       0       0       0       0       0       0       0
       0       0       0       0       0       0       0       0       0       0
       0       0       0       0       0       0       0       0       0       0
       0       0       0       0       0       0       0       0       0       0
       0       0       0       0       0       0       0       0       0       0
       0       0       0       0       0       0       0       0       0       0
       0       0       0       0       0       0       0       0       0       0
       0       0       0       0       0       0       0       0       0       0
       0       0       0       0       0       0       0       0       0       0
       0       0       0       0       0       0       0       0       0       0
       0       0       0       0       0       0       0       0       0       0
       0       0       0       0       0       0       0       0       0       0
       0       0       0       0       0       0       0       0       0       0
       0       0       0       0       0
%FLAG IROTAT                                                                    
%FORMAT(10I8)                                                                   
       0       0       0       0       0       0       0       0       0       0
       0       0       0       0       0       0       0       0       0       0
       0       0       0       0       0       0       0       0       0       0
       0       0       0       0       0       0       0       0       0       0
       0       0       0       0       0       0       0       0       0       0
       0       0       0       0       0       0       0       0       0       0
       0       0       0       0       0       0       0       0       0       0
       0       0       0       0       0       0       0       0       0       0
       0       0       0       0       0       0       0       0       0       0
       0       0       0       0       0       0       0       0       0       0
       0       0       0       0       0       0       0       0       0       0
       0       0       0       0       0       0       0       0       0       0
       0       0       0       0       0       0       0       0       0       0
       0       0       0       0       0       0       0       0       0       0
       0       0       0       0       0       0       0       0       0       0
       0       0       0       0       0       0       0       0       0       0
       0       0       0       0       0       0       0       0       0       0
       0       0       0       0       0       0       0       0       0       0
       0       0       0       0       0       0       0       0       0       0
       0       0       0       0       0       0       0       0       0       0
       0       0       0       0       0       0       0       0       0       0
       0       0       0       0       0       0       0       0       0       0
       0       0       0       0       0       0       0       0       0       0
       0       0       0       0       0       0       0       0       0       0
       0       0       0       0       0       0       0       0       0       0
       0       0       0       0       0       0       0       0       0       0
       0       0       0       0       0       0       0       0       0       0
       0       0       0       0       0       0       0       0       0       0
       0       0       0       0       0       0       0       0       0       0
       0       0       0       0       0       0       0       0       0       0
       0       0       0       0       0       0       0       0       0       0
       0       0       0       0       0       0       0       0       0       0
       0       0       0       0       0       0       0       0       0       0
       0       0       0       0       0       0       0       0       0       0
       0       0       0       0       0       0       0       0       0       0
       0       0       0       0       0       0       0       0       0       0
       0       0       0       0       0       0       0       0       0       0
       0       0       0       0       0       0       0       0       0       0
       0       0       0       0       0       0       0       0       0       0
       0       0       0       0       0       0       0       0       0       0
       0       0       0       0       0       0       0       0       0       0
       0       0       0       0       0       0       0       0       0       0
       0       0       0       0       0       0       0       0       0       0
       0       0       0       0       0       0       0       0       0       0
       0       0       0       0       0       0       0       0       0       0
       0       0       0       0       0       0       0       0       0       0
       0       0       0       0       0       0       0       0       0       0
       0       0       0       0       0       0       0       0       0       0
       0       0       0       0       0       0       0       0       0       0
       0       0       0       0       0       0       0       0       0       0
       0       0       0       0       0       0       0       0       0       0
       0       0       0       0       0       0       0       0       0       0
       0       0       0       0       0       0       0       0       0       0
       0       0       0       0       0       0       0       0       0       0
       0       0       0       0       0       0       0       0       0       0
       0       0       0       0       0       0       0       0       0       0
       0       0       0       0       0       0       0       0       0       0
       0       0       0       0       0       0       0       0       0       0
       0       0       0       0       0       0       0       0       0       0
       0       0       0       0       0       0       0       0       0       0
       0       0       0       0       0       0       0       0       0       0
       0       0       0       0       0       0       0       0       0       0
       0       0       0       0       0       0       0       0       0       0
       0       0       0       0       0       0       0       0       0       0
       0       0       0       0       0       0       0       0       0       0
       0       0       0       0       0       0       0       0       0       0
       0       0       0       0       0       0       0       0       0       0
       0       0       0       0       0       0       0       0       0       0
       0       0       0       0       0       0       0       0       0       0
       0       0       0       0       0       0       0       0       0       0
       0       0       0       0       0       0       0       0       0       0
       0       0       0       0       0       0       0       0       0       0
       0       0       0       0       0       0       0       0       0       0
       0       0       0       0       0       0       0       0       0       0
       0       0       0       0       0       0       0       0       0       0
       0       0       0       0       0       0       0       0       0       0
       0       0       0       0       0       0       0       0       0       0
       0       0       0       0       0       0       0       0       0       0
       0       0       0       0       0       0       0       0       0       0
       0       0       0       0       0       0       0       0       0       0
       0       0       0       0       0       0       0       0       0       0
       0       0       0       0       0       0       0       0       0       0
       0       0       0       0       0       0       0       0       0       0
       0       0       0       0       0       0       0       0       0       0
       0       0       0       0       0       0       0       0       0       0
       0       0       0       0       0       0       0       0       0       0
       0       0       0       0       0       0       0       0       0       0
       0       0       0       0       0
%FLAG RADIUS_SET                                                                
%FORMAT(1a80)                                                                   
modified Bondi radii (mbondi)                                                   
%FLAG RADII                                                                     
%FORMAT(5E16.8)                                                                 
  1.70000000E+00  1.30000000E+00  1.30000000E+00  1.50000000E+00  1.70000000E+00
  1.50000000E+00  1.70000000E+00  1.70000000E+00  1.70000000E+00  1.30000000E+00
  1.30000000E+00  1.70000000E+00  1.30000000E+00  1.70000000E+00  1.30000000E+00
  1.70000000E+00  1.70000000E+00  1.50000000E+00  1.50000000E+00  1.70000000E+00
  1.30000000E+00  1.30000000E+00  1.70000000E+00  1.30000000E+00  1.30000000E+00
  1.70000000E+00  1.30000000E+00  1.30000000E+00  1.70000000E+00  1.30000000E+00
  1.30000000E+00  1.50000000E+00  1.70000000E+00  1.50000000E+00  1.70000000E+00
  1.70000000E+00  1.70000000E+00  1.30000000E+00  1.30000000E+00  1.70000000E+00
  1.30000000E+00  1.70000000E+00  1.30000000E+00  1.70000000E+00  1.70000000E+00
  1.50000000E+00  1.50000000E+00  1.70000000E+00  1.30000000E+00  1.30000000E+00
  1.70000000E+00  1.30000000E+00  1.30000000E+00  1.70000000E+00  1.30000000E+00
  1.30000000E+00  1.70000000E+00  1.30000000E+00  1.30000000E+00  1.50000000E+00
  1.70000000E+00  1.50000000E+00  1.70000000E+00  1.70000000E+00  1.70000000E+00
  1.30000000E+00  1.30000000E+00  1.70000000E+00  1.30000000E+00  1.70000000E+00
  1.30000000E+00  1.70000000E+00  1.70000000E+00  1.50000000E+00  1.50000000E+00
  1.70000000E+00  1.30000000E+00  1.30000000E+00  1.70000000E+00  1.30000000E+00
  1.30000000E+00  1.70000000E+00  1.30000000E+00  1.30000000E+00  1.70000000E+00
  1.30000000E+00  1.30000000E+00  1.50000000E+00  1.70000000E+00  1.50000000E+00
  1.70000000E+00  1.70000000E+00  1.70000000E+00  1.30000000E+00  1.30000000E+00
  1.70000000E+00  1.30000000E+00  1.70000000E+00  1.30000000E+00  1.70000000E+00
  1.70000000E+00  1.50000000E+00  1.50000000E+00  1.70000000E+00  1.30000000E+00
  1.30000000E+00  1.70000000E+00  1.30000000E+00  1.30000000E+00  1.70000000E+00
  1.30000000E+00  1.30000000E+00  1.70000000E+00  1.30000000E+00  1.30000000E+00
  1.50000000E+00  1.70000000E+00  1.50000000E+00  1.70000000E+00  1.70000000E+00
  1.70000000E+00  1.30000000E+00  1.30000000E+00  1.70000000E+00  1.30000000E+00
  1.70000000E+00  1.30000000E+00  1.70000000E+00  1.70000000E+00  1.50000000E+00
  1.50000000E+00  1.70000000E+00  1.30000000E+00  1.30000000E+00  1.70000000E+00
  1.30000000E+00  1.30000000E+00  1.70000000E+00  1.30000000E+00  1.30000000E+00
  1.70000000E+00  1.30000000E+00  1.30000000E+00  1.50000000E+00  1.70000000E+00
  1.50000000E+00  1.70000000E+00  1.70000000E+00  1.70000000E+00  1.30000000E+00
  1.30000000E+00  1.70000000E+00  1.30000000E+00  1.70000000E+00  1.30000000E+00
  1.70000000E+00  1.70000000E+00  1.50000000E+00  1.50000000E+00  1.70000000E+00
  1.30000000E+00  1.30000000E+00  1.70000000E+00  1.30000000E+00  1.30000000E+00
  1.70000000E+00  1.30000000E+00  1.30000000E+00  1.70000000E+00  1.30000000E+00
  1.30000000E+00  1.50000000E+00  1.70000000E+00  1.30000000E+00  1.30000000E+00
  1.70000000E+00  1.30000000E+00  1.30000000E+00  1.50000000E+00  1.70000000E+00
  1.30000000E+00  1.30000000E+00  1.70000000E+00  1.30000000E+00  1.30000000E+00
  1.50000000E+00  1.70000000E+00  1.30000000E+00  1.30000000E+00  1.70000000E+00
  1.30000000E+00  1.30000000E+00  1.50000000E+00  1.70000000E+00  1.30000000E+00
  1.30000000E+00  1.70000000E+00  1.30000000E+00  1.30000000E+00  1.50000000E+00
  1.70000000E+00  1.30000000E+00  1.30000000E+00  1.70000000E+00  1.30000000E+00
  1.30000000E+00  1.50000000E+00  1.70000000E+00  1.50000000E+00  1.70000000E+00
  1.70000000E+00  1.70000000E+00  1.30000000E+00  1.30000000E+00  1.70000000E+00
  1.30000000E+00  1.70000000E+00  1.30000000E+00  1.70000000E+00  1.70000000E+00
  1.50000000E+00  1.50000000E+00  1.70000000E+00  1.30000000E+00  1.30000000E+00
  1.70000000E+00  1.30000000E+00  1.30000000E+00  1.70000000E+00  1.30000000E+00
  1.30000000E+00  1.70000000E+00  1.30000000E+00  1.30000000E+00  1.50000000E+00
  1.70000000E+00  1.50000000E+00  1.70000000E+00  1.70000000E+00  1.70000000E+00
  1.30000000E+00  1.30000000E+00  1.70000000E+00  1.30000000E+00  1.70000000E+00
  1.30000000E+00  1.70000000E+00  1.70000000E+00  1.50000000E+00  1.50000000E+00
  1.70000000E+00  1.30000000E+00  1.30000000E+00  1.70000000E+00  1.30000000E+00
  1.30000000E+00  1.70000000E+00  1.30000000E+00  1.30000000E+00  1.70000000E+00
  1.30000000E+00  1.30000000E+00  1.50000000E+00  1.70000000E+00  1.50000000E+00
  1.70000000E+00  1.70000000E+00  1.70000000E+00  1.30000000E+00  1.30000000E+00
  1.70000000E+00  1.30000000E+00  1.70000000E+00  1.30000000E+00  1.70000000E+00
  1.70000000E+00  1.50000000E+00  1.50000000E+00  1.70000000E+00  1.30000000E+00
  1.30000000E+00  1.70000000E+00  1.30000000E+00  1.30000000E+00  1.70000000E+00
  1.30000000E+00  1.30000000E+00  1.70000000E+00  1.30000000E+00  1.30000000E+00
  1.50000000E+00  1.70000000E+00  1.50000000E+00  1.70000000E+00  1.70000000E+00
  1.70000000E+00  1.30000000E+00  1.30000000E+00  1.70000000E+00  1.30000000E+00
  1.70000000E+00  1.30000000E+00  1.70000000E+00  1.70000000E+00  1.50000000E+00
  1.50000000E+00  1.70000000E+00  1.30000000E+00  1.30000000E+00  1.70000000E+00
  1.30000000E+00  1.30000000E+00  1.70000000E+00  1.30000000E+00  1.30000000E+00
  1.70000000E+00  1.30000000E+00  1.30000000E+00  1.50000000E+00  1.70000000E+00
  1.50000000E+00  1.70000000E+00  1.70000000E+00  1.70000000E+00  1.30000000E+00
  1.30000000E+00  1.70000000E+00  1.30000000E+00  1.70000000E+00  1.30000000E+00
  1.70000000E+00  1.70000000E+00  1.50000000E+00  1.50000000E+00  1.70000000E+00
  1.30000000E+00  1.30000000E+00  1.70000000E+00  1.30000000E+00  1.30000000E+00
  1.70000000E+00  1.30000000E+00  1.30000000E+00  1.70000000E+00  1.30000000E+00
  1.30000000E+00  1.50000000E+00  1.70000000E+00  1.50000000E+00  1.70000000E+00
  1.70000000E+00  1.70000000E+00  1.30000000E+00  1.30000000E+00  1.70000000E+00
  1.30000000E+00  1.70000000E+00  1.30000000E+00  1.70000000E+00  1.70000000E+00
  1.50000000E+00  1.50000000E+00  1.70000000E+00  1.30000000E+00  1.30000000E+00
  1.70000000E+00  1.30000000E+00  1.30000000E+00  1.70000000E+00  1.30000000E+00
  1.30000000E+00  1.70000000E+00  1.30000000E+00  1.30000000E+00  1.50000000E+00
  1.70000000E+00  1.50000000E+00  1.70000000E+00  1.70000000E+00  1.70000000E+00
  1.30000000E+00  1.30000000E+00  1.70000000E+00  1.30000000E+00  1.70000000E+00
  1.30000000E+00  1.70000000E+00  1.70000000E+00  1.50000000E+00  1.50000000E+00
  1.70000000E+00  1.30000000E+00  1.30000000E+00  1.70000000E+00  1.30000000E+00
  1.30000000E+00  1.70000000E+00  1.30000000E+00  1.30000000E+00  1.70000000E+00
  1.30000000E+00  1.30000000E+00  1.50000000E+00  1.70000000E+00  1.50000000E+00
  1.70000000E+00  1.70000000E+00  1.70000000E+00  1.30000000E+00  1.30000000E+00
  1.70000000E+00  1.30000000E+00  1.70000000E+00  1.30000000E+00  1.70000000E+00
  1.70000000E+00  1.50000000E+00  1.50000000E+00  1.70000000E+00  1.30000000E+00
  1.30000000E+00  1.70000000E+00  1.30000000E+00  1.30000000E+00  1.70000000E+00
  1.30000000E+00  1.30000000E+00  1.70000000E+00  1.30000000E+00  1.30000000E+00
  1.50000000E+00  1.70000000E+00  1.50000000E+00  1.70000000E+00  1.70000000E+00
  1.70000000E+00  1.30000000E+00  1.30000000E+00  1.70000000E+00  1.30000000E+00
  1.70000000E+00  1.30000000E+00  1.70000000E+00  1.70000000E+00  1.50000000E+00
  1.50000000E+00  1.70000000E+00  1.30000000E+00  1.30000000E+00  1.70000000E+00
  1.30000000E+00  1.30000000E+00  1.70000000E+00  1.30000000E+00  1.30000000E+00
  1.70000000E+00  1.30000000E+00  1.30000000E+00  1.50000000E+00  1.70000000E+00
  1.30000000E+00  1.30000000E+00  1.70000000E+00  1.30000000E+00  1.30000000E+00
  1.50000000E+00  1.70000000E+00  1.30000000E+00  1.30000000E+00  1.70000000E+00
  1.30000000E+00  1.30000000E+00  1.50000000E+00  1.70000000E+00  1.30000000E+00
  1.30000000E+00  1.70000000E+00  1.30000000E+00  1.30000000E+00  1.50000000E+00
  1.70000000E+00  1.30000000E+00  1.30000000E+00  1.70000000E+00  1.30000000E+00
  1.30000000E+00  1.50000000E+00  1.70000000E+00  1.30000000E+00  1.30000000E+00
  1.70000000E+00  1.30000000E+00  1.30000000E+00  1.50000000E+00  1.70000000E+00
  1.50000000E+00  1.70000000E+00  1.70000000E+00  1.70000000E+00  1.30000000E+00
  1.30000000E+00  1.70000000E+00  1.30000000E+00  1.70000000E+00  1.30000000E+00
  1.70000000E+00  1.70000000E+00  1.50000000E+00  1.50000000E+00  1.70000000E+00
  1.30000000E+00  1.30000000E+00  1.70000000E+00  1.30000000E+00  1.30000000E+00
  1.70000000E+00  1.30000000E+00  1.30000000E+00  1.70000000E+00  1.30000000E+00
  1.30000000E+00  1.50000000E+00  1.70000000E+00  1.50000000E+00  1.70000000E+00
  1.70000000E+00  1.70000000E+00  1.30000000E+00  1.30000000E+00  1.70000000E+00
  1.30000000E+00  1.70000000E+00  1.30000000E+00  1.70000000E+00  1.70000000E+00
  1.50000000E+00  1.50000000E+00  1.70000000E+00  1.30000000E+00  1.30000000E+00
  1.70000000E+00  1.30000000E+00  1.30000000E+00  1.70000000E+00  1.30000000E+00
  1.30000000E+00  1.70000000E+00  1.30000000E+00  1.30000000E+00  1.50000000E+00
  1.70000000E+00  1.50000000E+00  1.70000000E+00  1.70000000E+00  1.70000000E+00
  1.30000000E+00  1.30000000E+00  1.70000000E+00  1.30000000E+00  1.70000000E+00
  1.30000000E+00  1.70000000E+00  1.70000000E+00  1.50000000E+00  1.50000000E+00
  1.70000000E+00  1.30000000E+00  1.30000000E+00  1.70000000E+00  1.30000000E+00
  1.30000000E+00  1.70000000E+00  1.30000000E+00  1.30000000E+00  1.70000000E+00
  1.30000000E+00  1.30000000E+00  1.50000000E+00  1.70000000E+00  1.50000000E+00
  1.70000000E+00  1.70000000E+00  1.70000000E+00  1.30000000E+00  1.30000000E+00
  1.70000000E+00  1.30000000E+00  1.70000000E+00  1.30000000E+00  1.70000000E+00
  1.70000000E+00  1.50000000E+00  1.50000000E+00  1.70000000E+00  1.30000000E+00
  1.30000000E+00  1.70000000E+00  1.30000000E+00  1.30000000E+00  1.70000000E+00
  1.30000000E+00  1.30000000E+00  1.70000000E+00  1.30000000E+00  1.30000000E+00
  1.50000000E+00  1.70000000E+00  1.50000000E+00  1.70000000E+00  1.70000000E+00
  1.70000000E+00  1.30000000E+00  1.30000000E+00  1.70000000E+00  1.30000000E+00
  1.70000000E+00  1.30000000E+00  1.70000000E+00  1.70000000E+00  1.50000000E+00
  1.50000000E+00  1.70000000E+00  1.30000000E+00  1.30000000E+00  1.70000000E+00
  1.30000000E+00  1.30000000E+00  1.70000000E+00  1.30000000E+00  1.30000000E+00
  1.70000000E+00  1.30000000E+00  1.30000000E+00  1.50000000E+00  1.70000000E+00
  1.30000000E+00  1.30000000E+00  1.70000000E+00  1.30000000E+00  1.30000000E+00
  1.50000000E+00  1.70000000E+00  1.30000000E+00  1.30000000E+00  1.70000000E+00
  1.30000000E+00  1.30000000E+00  1.50000000E+00  1.70000000E+00  1.30000000E+00
  1.30000000E+00  1.70000000E+00  1.30000000E+00  1.30000000E+00  1.50000000E+00
  1.70000000E+00  1.30000000E+00  1.30000000E+00  1.70000000E+00  1.30000000E+00
  1.30000000E+00  1.50000000E+00  1.70000000E+00  1.30000000E+00  1.30000000E+00
  1.70000000E+00  1.30000000E+00  1.30000000E+00  1.50000000E+00  1.70000000E+00
  1.50000000E+00  1.70000000E+00  1.70000000E+00  1.70000000E+00  1.30000000E+00
  1.30000000E+00  1.70000000E+00  1.30000000E+00  1.70000000E+00  1.30000000E+00
  1.70000000E+00  1.70000000E+00  1.50000000E+00  1.50000000E+00  1.70000000E+00
  1.30000000E+00  1.30000000E+00  1.70000000E+00  1.30000000E+00  1.30000000E+00
  1.70000000E+00  1.30000000E+00  1.30000000E+00  1.70000000E+00  1.30000000E+00
  1.30000000E+00  1.50000000E+00  1.70000000E+00  1.50000000E+00  1.70000000E+00
  1.70000000E+00  1.70000000E+00  1.30000000E+00  1.30000000E+00  1.70000000E+00
  1.30000000E+00  1.70000000E+00  1.30000000E+00  1.70000000E+00  1.70000000E+00
  1.50000000E+00  1.50000000E+00  1.70000000E+00  1.30000000E+00  1.30000000E+00
  1.70000000E+00  1.30000000E+00  1.30000000E+00  1.70000000E+00  1.30000000E+00
  1.30000000E+00  1.70000000E+00  1.30000000E+00  1.30000000E+00  1.50000000E+00
  1.70000000E+00  1.50000000E+00  1.70000000E+00  1.70000000E+00  1.70000000E+00
  1.30000000E+00  1.30000000E+00  1.70000000E+00  1.30000000E+00  1.70000000E+00
  1.30000000E+00  1.70000000E+00  1.70000000E+00  1.50000000E+00  1.50000000E+00
  1.70000000E+00  1.30000000E+00  1.30000000E+00  1.70000000E+00  1.30000000E+00
  1.30000000E+00  1.70000000E+00  1.30000000E+00  1.30000000E+00  1.70000000E+00
  1.30000000E+00  1.30000000E+00  1.50000000E+00  1.70000000E+00  1.50000000E+00
  1.70000000E+00  1.70000000E+00  1.70000000E+00  1.30000000E+00  1.30000000E+00
  1.70000000E+00  1.30000000E+00  1.70000000E+00  1.30000000E+00  1.70000000E+00
  1.70000000E+00  1.50000000E+00  1.50000000E+00  1.70000000E+00  1.30000000E+00
  1.30000000E+00  1.70000000E+00  1.30000000E+00  1.30000000E+00  1.70000000E+00
  1.30000000E+00  1.30000000E+00  1.70000000E+00  1.30000000E+00  1.30000000E+00
  1.50000000E+00  1.70000000E+00  1.30000000E+00  1.30000000E+00  1.70000000E+00
  1.30000000E+00  1.30000000E+00  1.50000000E+00  1.70000000E+00  1.30000000E+00
  1.30000000E+00  1.70000000E+00  1.30000000E+00  1.30000000E+00  1.50000000E+00
  1.70000000E+00  1.30000000E+00  1.30000000E+00  1.70000000E+00  1.30000000E+00
  1.30000000E+00  1.50000000E+00  1.70000000E+00  1.30000000E+00  1.30000000E+00
  1.70000000E+00  1.30000000E+00  1.30000000E+00  1.50000000E+00  1.70000000E+00
  1.30000000E+00  1.30000000E+00  1.70000000E+00  1.30000000E+00  1.30000000E+00
  1.50000000E+00  1.70000000E+00  1.30000000E+00  1.30000000E+00  1.70000000E+00
  1.30000000E+00  1.30000000E+00  1.50000000E+00  1.70000000E+00  1.30000000E+00
  1.30000000E+00  1.70000000E+00  1.30000000E+00  1.30000000E+00  1.50000000E+00
  1.70000000E+00  1.30000000E+00  1.30000000E+00  1.70000000E+00  1.30000000E+00
  1.30000000E+00  1.50000000E+00  1.70000000E+00  1.30000000E+00  1.30000000E+00
  1.70000000E+00  1.30000000E+00  1.30000000E+00  1.50000000E+00  1.70000000E+00
  1.30000000E+00  1.30000000E+00  1.70000000E+00  1.30000000E+00  1.30000000E+00
  1.50000000E+00  1.70000000E+00  1.50000000E+00  1.70000000E+00  1.70000000E+00
  1.70000000E+00  1.30000000E+00  1.30000000E+00  1.70000000E+00  1.30000000E+00
  1.70000000E+00  1.30000000E+00  1.70000000E+00  1.70000000E+00  1.50000000E+00
  1.50000000E+00  1.70000000E+00  1.30000000E+00  1.30000000E+00  1.70000000E+00
  1.30000000E+00  1.30000000E+00  1.70000000E+00  1.30000000E+00  1.30000000E+00
%FLAG SCREEN                                                                    
%FORMAT(5E16.8)                                                                 
  7.20000000E-01  8.50000000E-01  8.50000000E-01  8.50000000E-01  7.20000000E-01
  8.50000000E-01  7.20000000E-01  7.20000000E-01  7.20000000E-01  8.50000000E-01
  8.50000000E-01  7.20000000E-01  8.50000000E-01  7.20000000E-01  8.50000000E-01
  7.20000000E-01  7.20000000E-01  8.50000000E-01  8.50000000E-01  7.20000000E-01
  8.50000000E-01  8.50000000E-01  7.20000000E-01  8.50000000E-01  8.50000000E-01
  7.20000000E-01  8.50000000E-01  8.50000000E-01  7.20000000E-01  8.50000000E-01
  8.50000000E-01  8.50000000E-01  7.20000000E-01  8.50000000E-01  7.20000000E-01
  7.20000000E-01  7.20000000E-01  8.50000000E-01  8.50000000E-01  7.20000000E-01
  8.50000000E-01  7.20000000E-01  8.50000000E-01  7.20000000E-01  7.20000000E-01
  8.50000000E-01  8.50000000E-01  7.20000000E-01  8.50000000E-01  8.50000000E-01
  7.20000000E-01  8.50000000E-01  8.50000000E-01  7.20000000E-01  8.50000000E-01
  8.50000000E-01  7.20000000E-01  8.50000000E-01  8.50000000E-01  8.50000000E-01
  7.20000000E-01  8.50000000E-01  7.20000000E-01  7.20000000E-01  7.20000000E-01
  8.50000000E-01  8.50000000E-01  7.20000000E-01  8.50000000E-01  7.20000000E-01
  8.50000000E-01  7.20000000E-01  7.20000000E-01  8.50000000E-01  8.50000000E-01
  7.20000000E-01  8.50000000E-01  8.50000000E-01  7.20000000E-01  8.50000000E-01
  8.50000000E-01  7.20000000E-01  8.50000000E-01  8.50000000E-01  7.20000000E-01
  8.50000000E-01  8.50000000E-01  8.50000000E-01  7.20000000E-01  8.50000000E-01
  7.20000000E-01  7.20000000E-01  7.20000000E-01  8.50000000E-01  8.50000000E-01
  7.20000000E-01  8.50000000E-01  7.20000000E-01  8.50000000E-01  7.20000000E-01
  7.20000000E-01  8.50000000E-01  8.50000000E-01  7.20000000E-01  8.50000000E-01
  8.50000000E-01  7.20000000E-01  8.50000000E-01  8.50000000E-01  7.20000000E-01
  8.50000000E-01  8.50000000E-01  7.20000000E-01  8.50000000E-01  8.50000000E-01
  8.50000000E-01  7.20000000E-01  8.50000000E-01  7.20000000E-01  7.20000000E-01
  7.20000000E-01  8.50000000E-01  8.50000000E-01  7.20000000E-01  8.50000000E-01
  7.20000000E-01  8.50000000E-01  7.20000000E-01  7.20000000E-01  8.50000000E-01
  8.50000000E-01  7.20000000E-01  8.50000000E-01  8.50000000E-01  7.20000000E-01
  8.50000000E-01  8.50000000E-01  7.20000000E-01  8.50000000E-01  8.50000000E-01
  7.20000000E-01  8.50000000E-01  8.50000000E-01  8.50000000E-01  7.20000000E-01
  8.50000000E-01  7.20000000E-01  7.20000000E-01  7.20000000E-01  8.50000000E-01
  8.50000000E-01  7.20000000E-01  8.50000000E-01  7.20000000E-01  8.50000000E-01
  7.20000000E-01  7.20000000E-01  8.50000000E-01  8.50000000E-01  7.20000000E-01
  8.50000000E-01  8.50000000E-01  7.20000000E-01  8.50000000E-01  8.50000000E-01
  7.20000000E-01  8.50000000E-01  8.50000000E-01  7.20000000E-01  8.50000000E-01
  8.50000000E-01  8.50000000E-01  7.20000000E-01  8.50000000E-01  8.50000000E-01
  7.20000000E-01  8.50000000E-01  8.50000000E-01  8.50000000E-01  7.20000000E-01
  8.50000000E-01  8.50000000E-01  7.20000000E-01  8.50000000E-01  8.50000000E-01
  8.50000000E-01  7.20000000E-01  8.50000000E-01  8.50000000E-01  7.20000000E-01
  8.50000000E-01  8.50000000E-01  8.50000000E-01  7.20000000E-01  8.50000000E-01
  8.50000000E-01  7.20000000E-01  8.50000000E-01  8.50000000E-01  8.50000000E-01
  7.20000000E-01  8.50000000E-01  8.50000000E-01  7.20000000E-01  8.50000000E-01
  8.50000000E-01  8.50000000E-01  7.20000000E-01  8.50000000E-01  7.20000000E-01
  7.20000000E-01  7.20000000E-01  8.50000000E-01  8.50000000E-01  7.20000000E-01
  8.50000000E-01  7.20000000E-01  8.50000000E-01  7.20000000E-01  7.20000000E-01
  8.50000000E-01  8.50000000E-01  7.20000000E-01  8.50000000E-01  8.50000000E-01
  7.20000000E-01  8.50000000E-01  8.50000000E-01  7.20000000E-01  8.50000000E-01
  8.50000000E-01  7.20000000E-01  8.50000000E-01  8.50000000E-01  8.50000000E-01
  7.20000000E-01  8.50000000E-01  7.20000000E-01  7.20000000E-01  7.20000000E-01
  8.50000000E-01  8.50000000E-01  7.20000000E-01  8.50000000E-01  7.20000000E-01
  8.50000000E-01  7.20000000E-01  7.20000000E-01  8.50000000E-01  8.50000000E-01
  7.20000000E-01  8.50000000E-01  8.50000000E-01  7.20000000E-01  8.50000000E-01
  8.50000000E-01  7.20000000E-01  8.50000000E-01  8.50000000E-01  7.20000000E-01
  8.50000000E-01  8.50000000E-01  8.50000000E-01  7.20000000E-01  8.50000000E-01
  7.20000000E-01  7.20000000E-01  7.20000000E-01  8.50000000E-01  8.50000000E-01
  7.20000000E-01  8.50000000E-01  7.20000000E-01  8.50000000E-01  7.20000000E-01
  7.20000000E-01  8.50000000E-01  8.50000000E-01  7.20000000E-01  8.50000000E-01
  8.50000000E-01  7.20000000E-01  8.50000000E-01  8.50000000E-01  7.20000000E-01
  8.50000000E-01  8.50000000E-01  7.20000000E-01  8.50000000E-01  8.50000000E-01
  8.50000000E-01  7.20000000E-01  8.50000000E-01  7.20000000E-01  7.20000000E-01
  7.20000000E-01  8.50000000E-01  8.50000000E-01  7.20000000E-01  8.50000000E-01
  7.20000000E-01  8.50000000E-01  7.20000000E-01  7.20000000E-01  8.50000000E-01
  8.50000000E-01  7.20000000E-01  8.50000000E-01  8.50000000E-01  7.20000000E-01
  8.50000000E-01  8.50000000E-01  7.20000000E-01  8.50000000E-01  8.50000000E-01
  7.20000000E-01  8.50000000E-01  8.50000000E-01  8.50000000E-01  7.20000000E-01
  8.50000000E-01  7.20000000E-01  7.20000000E-01  7.20000000E-01  8.50000000E-01
  8.50000000E-01  7.20000000E-01  8.50000000E-01  7.20000000E-01  8.50000000E-01
  7.20000000E-01  7.20000000E-01  8.50000000E-01  8.50000000E-01  7.20000000E-01
  8.50000000E-01  8.50000000E-01  7.20000000E-01  8.50000000E-01  8.50000000E-01
  7.20000000E-01  8.50000000E-01  8.50000000E-01  7.20000000E-01  8.50000000E-01
  8.50000000E-01  8.50000000E-01  7.20000000E-01  8.50000000E-01  7.20000000E-01
  7.20000000E-01  7.20000000E-01  8.50000000E-01  8.50000000E-01  7.20000000E-01
  8.50000000E-01  7.20000000E-01  8.50000000E-01  7.20000000E-01  7.20000000E-01
  8.50000000E-01  8.50000000E-01  7.20000000E-01  8.50000000E-01  8.50000000E-01
  7.20000000E-01  8.50000000E-01  8.50000000E-01  7.20000000E-01  8.50000000E-01
  8.50000000E-01  7.20000000E-01  8.50000000E-01  8.50000000E-01  8.50000000E-01
  7.20000000E-01  8.50000000E-01  7.20000000E-01  7.20000000E-01  7.20000000E-01
  8.50000000E-01  8.50000000E-01  7.20000000E-01  8.50000000E-01  7.20000000E-01
  8.50000000E-01  7.20000000E-01  7.20000000E-01  8.50000000E-01  8.50000000E-01
  7.20000000E-01  8.50000000E-01  8.50000000E-01  7.20000000E-01  8.50000000E-01
  8.50000000E-01  7.20000000E-01  8.50000000E-01  8.50000000E-01  7.20000000E-01
  8.50000000E-01  8.50000000E-01  8.50000000E-01  7.20000000E-01  8.50000000E-01
  7.20000000E-01  7.20000000E-01  7.20000000E-01  8.50000000E-01  8.50000000E-01
  7.20000000E-01  8.50000000E-01  7.20000000E-01  8.50000000E-01  7.20000000E-01
  7.20000000E-01  8.50000000E-01  8.50000000E-01  7.20000000E-01  8.50000000E-01
  8.50000000E-01  7.20000000E-01  8.50000000E-01  8.50000000E-01  7.20000000E-01
  8.50000000E-01  8.50000000E-01  7.20000000E-01  8.50000000E-01  8.50000000E-01
  8.50000000E-01  7.20000000E-01  8.50000000E-01  7.20000000E-01  7.20000000E-01
  7.20000000E-01  8.50000000E-01  8.50000000E-01  7.20000000E-01  8.50000000E-01
  7.20000000E-01  8.50000000E-01  7.20000000E-01  7.20000000E-01  8.50000000E-01
  8.50000000E-01  7.20000000E-01  8.50000000E-01  8.50000000E-01  7.20000000E-01
  8.50000000E-01  8.50000000E-01  7.20000000E-01  8.50000000E-01  8.50000000E-01
  7.20000000E-01  8.50000000E-01  8.50000000E-01  8.50000000E-01  7.20000000E-01
  8.50000000E-01  8.50000000E-01  7.20000000E-01  8.50000000E-01  8.50000000E-01
  8.50000000E-01  7.20000000E-01  8.50000000E-01  8.50000000E-01  7.20000000E-01
  8.50000000E-01  8.50000000E-01  8.50000000E-01  7.20000000E-01  8.50000000E-01
  8.50000000E-01  7.20000000E-01  8.50000000E-01  8.50000000E-01  8.50000000E-01
  7.20000000E-01  8.50000000E-01  8.50000000E-01  7.20000000E-01  8.50000000E-01
  8.50000000E-01  8.50000000E-01  7.20000000E-01  8.50000000E-01  8.50000000E-01
  7.20000000E-01  8.50000000E-01  8.50000000E-01  8.50000000E-01  7.20000000E-01
  8.50000000E-01  7.20000000E-01  7.20000000E-01  7.20000000E-01  8.50000000E-01
  8.50000000E-01  7.20000000E-01  8.50000000E-01  7.20000000E-01  8.50000000E-01
  7.20000000E-01  7.20000000E-01  8.50000000E-01  8.50000000E-01  7.20000000E-01
  8.50000000E-01  8.50000000E-01  7.20000000E-01  8.50000000E-01  8.50000000E-01
  7.20000000E-01  8.50000000E-01  8.50000000E-01  7.20000000E-01  8.50000000E-01
  8.50000000E-01  8.50000000E-01  7.20000000E-01  8.50000000E-01  7.20000000E-01
  7.20000000E-01  7.20000000E-01  8.50000000E-01  8.50000000E-01  7.20000000E-01
  8.50000000E-01  7.20000000E-01  8.50000000E-01  7.20000000E-01  7.20000000E-01
  8.50000000E-01  8.50000000E-01  7.20000000E-01  8.50000000E-01  8.50000000E-01
  7.20000000E-01  8.50000000E-01  8.50000000E-01  7.20000000E-01  8.50000000E-01
  8.50000000E-01  7.20000000E-01  8.50000000E-01  8.50000000E-01  8.50000000E-01
  7.20000000E-01  8.50000000E-01  7.20000000E-01  7.20000000E-01  7.20000000E-01
  8.50000000E-01  8.50000000E-01  7.20000000E-01  8.50000000E-01  7.20000000E-01
  8.50000000E-01  7.20000000E-01  7.20000000E-01  8.50000000E-01  8.50000000E-01
  7.20000000E-01  8.50000000E-01  8.50000000E-01  7.20000000E-01  8.50000000E-01
  8.50000000E-01  7.20000000E-01  8.50000000E-01  8.50000000E-01  7.20000000E-01
  8.50000000E-01  8.50000000E-01  8.50000000E-01  7.20000000E-01  8.50000000E-01
  7.20000000E-01  7.20000000E-01  7.20000000E-01  8.50000000E-01  8.50000000E-01
  7.20000000E-01  8.50000000E-01  7.20000000E-01  8.50000000E-01  7.20000000E-01
  7.20000000E-01  8.50000000E-01  8.50000000E-01  7.20000000E-01  8.50000000E-01
  8.50000000E-01  7.20000000E-01  8.50000000E-01  8.50000000E-01  7.20000000E-01
  8.50000000E-01  8.50000000E-01  7.20000000E-01  8.50000000E-01  8.50000000E-01
  8.50000000E-01  7.20000000E-01  8.50000000E-01  7.20000000E-01  7.20000000E-01
  7.20000000E-01  8.50000000E-01  8.50000000E-01  7.20000000E-01  8.50000000E-01
  7.20000000E-01  8.50000000E-01  7.20000000E-01  7.20000000E-01  8.50000000E-01
  8.50000000E-01  7.20000000E-01  8.50000000E-01  8.50000000E-01  7.20000000E-01
  8.50000000E-01  8.50000000E-01  7.20000000E-01  8.50000000E-01  8.50000000E-01
  7.20000000E-01  8.50000000E-01  8.50000000E-01  8.50000000E-01  7.20000000E-01
  8.50000000E-01  8.50000000E-01  7.20000000E-01  8.50000000E-01  8.50000000E-01
  8.50000000E-01  7.20000000E-01  8.50000000E-01  8.50000000E-01  7.20000000E-01
  8.50000000E-01  8.50000000E-01  8.50000000E-01  7.20000000E-01  8.50000000E-01
  8.50000000E-01  7.20000000E-01  8.50000000E-01  8.50000000E-01  8.50000000E-01
  7.20000000E-01  8.50000000E-01  8.50000000E-01  7.20000000E-01  8.50000000E-01
  8.50000000E-01  8.50000000E-01  7.20000000E-01  8.50000000E-01  8.50000000E-01
  7.20000000E-01  8.50000000E-01  8.50000000E-01  8.50000000E-01  7.20000000E-01
  8.50000000E-01  7.20000000E-01  7.20000000E-01  7.20000000E-01  8.50000000E-01
  8.50000000E-01  7.20000000E-01  8.50000000E-01  7.20000000E-01  8.50000000E-01
  7.20000000E-01  7.20000000E-01  8.50000000E-01  8.50000000E-01  7.20000000E-01
  8.50000000E-01  8.50000000E-01  7.20000000E-01  8.50000000E-01  8.50000000E-01
  7.20000000E-01  8.50000000E-01  8.50000000E-01  7.20000000E-01  8.50000000E-01
  8.50000000E-01  8.50000000E-01  7.20000000E-01  8.50000000E-01  7.20000000E-01
  7.20000000E-01  7.20000000E-01  8.50000000E-01  8.50000000E-01  7.20000000E-01
  8.50000000E-01  7.20000000E-01  8.50000000E-01  7.20000000E-01  7.20000000E-01
  8.50000000E-01  8.50000000E-01  7.20000000E-01  8.50000000E-01  8.50000000E-01
  7.20000000E-01  8.50000000E-01  8.50000000E-01  7.20000000E-01  8.50000000E-01
  8.50000000E-01  7.20000000E-01  8.50000000E-01  8.50000000E-01  8.50000000E-01
  7.20000000E-01  8.50000000E-01  7.20000000E-01  7.20000000E-01  7.20000000E-01
  8.50000000E-01  8.50000000E-01  7.20000000E-01  8.50000000E-01  7.20000000E-01
  8.50000000E-01  7.20000000E-01  7.20000000E-01  8.50000000E-01  8.50000000E-01
  7.20000000E-01  8.50000000E-01  8.50000000E-01  7.20000000E-01  8.50000000E-01
  8.50000000E-01  7.20000000E-01  8.50000000E-01  8.50000000E-01  7.20000000E-01
  8.50000000E-01  8.50000000E-01  8.50000000E-01  7.20000000E-01  8.50000000E-01
  7.20000000E-01  7.20000000E-01  7.20000000E-01  8.50000000E-01  8.50000000E-01
  7.20000000E-01  8.50000000E-01  7.20000000E-01  8.50000000E-01  7.20000000E-01
  7.20000000E-01  8.50000000E-01  8.50000000E-01  7.20000000E-01  8.50000000E-01
  8.50000000E-01  7.20000000E-01  8.50000000E-01  8.50000000E-01  7.20000000E-01
  8.50000000E-01  8.50000000E-01  7.20000000E-01  8.50000000E-01  8.50000000E-01
  8.50000000E-01  7.20000000E-01  8.50000000E-01  8.50000000E-01  7.20000000E-01
  8.50000000E-01  8.50000000E-01  8.50000000E-01  7.20000000E-01  8.50000000E-01
  8.50000000E-01  7.20000000E-01  8.50000000E-01  8.50000000E-01  8.50000000E-01
  7.20000000E-01  8.50000000E-01  8.50000000E-01  7.20000000E-01  8.50000000E-01
  8.50000000E-01  8.50000000E-01  7.20000000E-01  8.50000000E-01  8.50000000E-01
  7.20000000E-01  8.50000000E-01  8.50000000E-01  8.50000000E-01  7.20000000E-01
  8.50000000E-01  8.50000000E-01  7.20000000E-01  8.50000000E-01  8.50000000E-01
  8.50000000E-01  7.20000000E-01  8.50000000E-01  8.50000000E-01  7.20000000E-01
  8.50000000E-01  8.50000000E-01  8.50000000E-01  7.20000000E-01  8.50000000E-01
  8.50000000E-01  7.20000000E-01  8.50000000E-01  8.50000000E-01  8.50000000E-01
  7.20000000E-01  8.50000000E-01  8.50000000E-01  7.20000000E-01  8.50000000E-01
  8.50000000E-01  8.50000000E-01  7.20000000E-01  8.50000000E-01  8.50000000E-01
  7.20000000E-01  8.50000000E-01  8.50000000E-01  8.50000000E-01  7.20000000E-01
  8.50000000E-01  8.50000000E-01  7.20000000E-01  8.50000000E-01  8.50000000E-01
  8.50000000E-01  7.20000000E-01  8.50000000E-01  7.20000000E-01  7.20000000E-01
  7.20000000E-01  8.50000000E-01  8.50000000E-01  7.20000000E-01  8.50000000E-01
  7.20000000E-01  8.50000000E-01  7.20000000E-01  7.20000000E-01  8.50000000E-01
  8.50000000E-01  7.20000000E-01  8.50000000E-01  8.50000000E-01  7.20000000E-01
  8.50000000E-01  8.50000000E-01  7.20000000E-01  8.50000000E-01  8.50000000E-01
%FLAG IPOL                                                                      
%FORMAT(1I8)                                                                    
       0
