;
;   File /Users/harish/Documents/Work_folder/MetaChem-workshops/polymermd-workshop/Day3-gen-polymer-solved/polymers/PEO25_PET25_random/topol.top  was generated
;   By user: harish (501)
;   On host:Mac-2.lan 
;   At date:Mon. December  1 08:30:02 2025 
;
;   This is a standalone topology file
;
;   Created by:
;   ParmEd:       ipykernel_launcher.py, VERSION4.3.0 
;   Executable:   ipykernel_launcher.py
;   Library dir:  /Users/harish/miniconda3/envs/polymer_md/share/gromacs/top
;   Command line:
;     /Users/harish/miniconda3/envs/polymer_md/lib/python3.12/site-packages/ipykernel_launcher.py --f=/Users/harish/Library/Jupyter/runtime/kernel-v3e3b6d11b83bbcfe7d5e97287c9feeae8ef89faf9.json
;

[ defaults ]
; nbfunc        comb-rule       gen-pairs       fudgeLJ fudgeQQ
1               2               yes             0.5          0.83333333  

[ atomtypes ]
; name    at.num    mass    charge ptype  sigma      epsilon
c3             6  12.010000  0.00000000  A     0.33977095      0.4510352
h1             1   1.008000  0.00000000  A     0.24219973      0.0870272
os             8  16.000000  0.00000000  A     0.31560978      0.3037584
c              6  12.010000  0.00000000  A     0.33152123      0.4133792
o              8  16.000000  0.00000000  A     0.30481209      0.6121192
ca             6  12.010000  0.00000000  A     0.33152123      0.4133792
ha             1   1.008000  0.00000000  A     0.26254785      0.0673624
hc             1   1.008000  0.00000000  A      0.2600177      0.0870272


[ moleculetype ]
; Name            nrexcl
system1          3

[ atoms ]
;   nr       type  resnr residue  atom   cgnr    charge       mass  typeB    chargeB      massB
; residue    1 PET rtp PET q 0.0
    1         c3      1    PET     C9      1 0.12984200  12.010000   ; qtot 0.129842
    2         h1      1    PET     H6      2 0.05392300   1.008000   ; qtot 0.183765
    3         h1      1    PET     H7      3 0.05392300   1.008000   ; qtot 0.237688
    4         os      1    PET     O2      4 -0.43055400  16.000000   ; qtot -0.192866
    5          c      1    PET     C8      5 0.65144800  12.010000   ; qtot 0.458582
    6          o      1    PET     O1      6 -0.52602500  16.000000   ; qtot -0.067443
    7         ca      1    PET     C4      7 -0.10087900  12.010000   ; qtot -0.168322
    8         ca      1    PET     C5      8 -0.08898200  12.010000   ; qtot -0.257304
    9         ca      1    PET     C6      9 -0.08898200  12.010000   ; qtot -0.346286
   10         ha      1    PET     H4     10 0.16624300   1.008000   ; qtot -0.180043
   11         ha      1    PET     H3     11 0.16573400   1.008000   ; qtot -0.014309
   12         ca      1    PET     C3     12 -0.08898200  12.010000   ; qtot -0.103291
   13         ha      1    PET     H2     13 0.16573400   1.008000   ; qtot 0.062443
   14         ca      1    PET     C2     14 -0.08898200  12.010000   ; qtot -0.026539
   15         ha      1    PET     H1     15 0.16624300   1.008000   ; qtot 0.139704
   16         ca      1    PET     C1     16 -0.10087900  12.010000   ; qtot 0.038825
   17          c      1    PET     C7     17 0.65348100  12.010000   ; qtot 0.692306
   18          o      1    PET     O3     18 -0.52897500  16.000000   ; qtot 0.163331
   19         os      1    PET     O4     19 -0.43055400  16.000000   ; qtot -0.267223
   20         c3      1    PET    C10     20 0.14275500  12.010000   ; qtot -0.124468
   21         h1      1    PET     H8     21 0.06629400   1.008000   ; qtot -0.058174
   22         h1      1    PET     H9     22 0.06629400   1.008000   ; qtot 0.008120
   23         c3      1    PET    C11     23 -0.10854800  12.010000   ; qtot -0.100428
   24         hc      1    PET    H10     24 0.05866800   1.008000   ; qtot -0.041760
   25         hc      1    PET    H11     25 0.05866800   1.008000   ; qtot 0.016908
   26         c3      1    PET    C12     26 -0.09153800  12.010000   ; qtot -0.074630
   27         hc      1    PET    H13     27 0.03731600   1.008000   ; qtot -0.037314
   28         hc      1    PET    H14     28 0.03731600   1.008000   ; qtot 0.000002
; residue    2 PET rtp PET q 0.0
   29         c3      2    PET     C9     29 0.12984200  12.010000   ; qtot 0.129844
   30         h1      2    PET     H6     30 0.05392300   1.008000   ; qtot 0.183767
   31         h1      2    PET     H7     31 0.05392300   1.008000   ; qtot 0.237690
   32         os      2    PET     O2     32 -0.43055400  16.000000   ; qtot -0.192864
   33          c      2    PET     C8     33 0.65144800  12.010000   ; qtot 0.458584
   34          o      2    PET     O1     34 -0.52602500  16.000000   ; qtot -0.067441
   35         ca      2    PET     C4     35 -0.10087900  12.010000   ; qtot -0.168320
   36         ca      2    PET     C5     36 -0.08898200  12.010000   ; qtot -0.257302
   37         ca      2    PET     C6     37 -0.08898200  12.010000   ; qtot -0.346284
   38         ha      2    PET     H4     38 0.16624300   1.008000   ; qtot -0.180041
   39         ha      2    PET     H3     39 0.16573400   1.008000   ; qtot -0.014307
   40         ca      2    PET     C3     40 -0.08898200  12.010000   ; qtot -0.103289
   41         ha      2    PET     H2     41 0.16573400   1.008000   ; qtot 0.062445
   42         ca      2    PET     C2     42 -0.08898200  12.010000   ; qtot -0.026537
   43         ha      2    PET     H1     43 0.16624300   1.008000   ; qtot 0.139706
   44         ca      2    PET     C1     44 -0.10087900  12.010000   ; qtot 0.038827
   45          c      2    PET     C7     45 0.65348100  12.010000   ; qtot 0.692308
   46          o      2    PET     O3     46 -0.52897500  16.000000   ; qtot 0.163333
   47         os      2    PET     O4     47 -0.43055400  16.000000   ; qtot -0.267221
   48         c3      2    PET    C10     48 0.14275500  12.010000   ; qtot -0.124466
   49         h1      2    PET     H8     49 0.06629400   1.008000   ; qtot -0.058172
   50         h1      2    PET     H9     50 0.06629400   1.008000   ; qtot 0.008122
   51         c3      2    PET    C11     51 -0.10854800  12.010000   ; qtot -0.100426
   52         hc      2    PET    H10     52 0.05866800   1.008000   ; qtot -0.041758
   53         hc      2    PET    H11     53 0.05866800   1.008000   ; qtot 0.016910
   54         c3      2    PET    C12     54 -0.09153800  12.010000   ; qtot -0.074628
   55         hc      2    PET    H13     55 0.03731600   1.008000   ; qtot -0.037312
   56         hc      2    PET    H14     56 0.03731600   1.008000   ; qtot 0.000004
; residue    3 PET rtp PET q 0.0
   57         c3      3    PET     C9     57 0.12984200  12.010000   ; qtot 0.129846
   58         h1      3    PET     H6     58 0.05392300   1.008000   ; qtot 0.183769
   59         h1      3    PET     H7     59 0.05392300   1.008000   ; qtot 0.237692
   60         os      3    PET     O2     60 -0.43055400  16.000000   ; qtot -0.192862
   61          c      3    PET     C8     61 0.65144800  12.010000   ; qtot 0.458586
   62          o      3    PET     O1     62 -0.52602500  16.000000   ; qtot -0.067439
   63         ca      3    PET     C4     63 -0.10087900  12.010000   ; qtot -0.168318
   64         ca      3    PET     C5     64 -0.08898200  12.010000   ; qtot -0.257300
   65         ca      3    PET     C6     65 -0.08898200  12.010000   ; qtot -0.346282
   66         ha      3    PET     H4     66 0.16624300   1.008000   ; qtot -0.180039
   67         ha      3    PET     H3     67 0.16573400   1.008000   ; qtot -0.014305
   68         ca      3    PET     C3     68 -0.08898200  12.010000   ; qtot -0.103287
   69         ha      3    PET     H2     69 0.16573400   1.008000   ; qtot 0.062447
   70         ca      3    PET     C2     70 -0.08898200  12.010000   ; qtot -0.026535
   71         ha      3    PET     H1     71 0.16624300   1.008000   ; qtot 0.139708
   72         ca      3    PET     C1     72 -0.10087900  12.010000   ; qtot 0.038829
   73          c      3    PET     C7     73 0.65348100  12.010000   ; qtot 0.692310
   74          o      3    PET     O3     74 -0.52897500  16.000000   ; qtot 0.163335
   75         os      3    PET     O4     75 -0.43055400  16.000000   ; qtot -0.267219
   76         c3      3    PET    C10     76 0.14275500  12.010000   ; qtot -0.124464
   77         h1      3    PET     H8     77 0.06629400   1.008000   ; qtot -0.058170
   78         h1      3    PET     H9     78 0.06629400   1.008000   ; qtot 0.008124
   79         c3      3    PET    C11     79 -0.10854800  12.010000   ; qtot -0.100424
   80         hc      3    PET    H10     80 0.05866800   1.008000   ; qtot -0.041756
   81         hc      3    PET    H11     81 0.05866800   1.008000   ; qtot 0.016912
   82         c3      3    PET    C12     82 -0.09153800  12.010000   ; qtot -0.074626
   83         hc      3    PET    H13     83 0.03731600   1.008000   ; qtot -0.037310
   84         hc      3    PET    H14     84 0.03731600   1.008000   ; qtot 0.000006
; residue    4 PET rtp PET q 0.0
   85         c3      4    PET     C9     85 0.12984200  12.010000   ; qtot 0.129848
   86         h1      4    PET     H6     86 0.05392300   1.008000   ; qtot 0.183771
   87         h1      4    PET     H7     87 0.05392300   1.008000   ; qtot 0.237694
   88         os      4    PET     O2     88 -0.43055400  16.000000   ; qtot -0.192860
   89          c      4    PET     C8     89 0.65144800  12.010000   ; qtot 0.458588
   90          o      4    PET     O1     90 -0.52602500  16.000000   ; qtot -0.067437
   91         ca      4    PET     C4     91 -0.10087900  12.010000   ; qtot -0.168316
   92         ca      4    PET     C5     92 -0.08898200  12.010000   ; qtot -0.257298
   93         ca      4    PET     C6     93 -0.08898200  12.010000   ; qtot -0.346280
   94         ha      4    PET     H4     94 0.16624300   1.008000   ; qtot -0.180037
   95         ha      4    PET     H3     95 0.16573400   1.008000   ; qtot -0.014303
   96         ca      4    PET     C3     96 -0.08898200  12.010000   ; qtot -0.103285
   97         ha      4    PET     H2     97 0.16573400   1.008000   ; qtot 0.062449
   98         ca      4    PET     C2     98 -0.08898200  12.010000   ; qtot -0.026533
   99         ha      4    PET     H1     99 0.16624300   1.008000   ; qtot 0.139710
  100         ca      4    PET     C1    100 -0.10087900  12.010000   ; qtot 0.038831
  101          c      4    PET     C7    101 0.65348100  12.010000   ; qtot 0.692312
  102          o      4    PET     O3    102 -0.52897500  16.000000   ; qtot 0.163337
  103         os      4    PET     O4    103 -0.43055400  16.000000   ; qtot -0.267217
  104         c3      4    PET    C10    104 0.14275500  12.010000   ; qtot -0.124462
  105         h1      4    PET     H8    105 0.06629400   1.008000   ; qtot -0.058168
  106         h1      4    PET     H9    106 0.06629400   1.008000   ; qtot 0.008126
  107         c3      4    PET    C11    107 -0.10854800  12.010000   ; qtot -0.100422
  108         hc      4    PET    H10    108 0.05866800   1.008000   ; qtot -0.041754
  109         hc      4    PET    H11    109 0.05866800   1.008000   ; qtot 0.016914
  110         c3      4    PET    C12    110 -0.09153800  12.010000   ; qtot -0.074624
  111         hc      4    PET    H13    111 0.03731600   1.008000   ; qtot -0.037308
  112         hc      4    PET    H14    112 0.03731600   1.008000   ; qtot 0.000008
; residue    5 PET rtp PET q 0.0
  113         c3      5    PET     C9    113 0.12984200  12.010000   ; qtot 0.129850
  114         h1      5    PET     H6    114 0.05392300   1.008000   ; qtot 0.183773
  115         h1      5    PET     H7    115 0.05392300   1.008000   ; qtot 0.237696
  116         os      5    PET     O2    116 -0.43055400  16.000000   ; qtot -0.192858
  117          c      5    PET     C8    117 0.65144800  12.010000   ; qtot 0.458590
  118          o      5    PET     O1    118 -0.52602500  16.000000   ; qtot -0.067435
  119         ca      5    PET     C4    119 -0.10087900  12.010000   ; qtot -0.168314
  120         ca      5    PET     C5    120 -0.08898200  12.010000   ; qtot -0.257296
  121         ca      5    PET     C6    121 -0.08898200  12.010000   ; qtot -0.346278
  122         ha      5    PET     H4    122 0.16624300   1.008000   ; qtot -0.180035
  123         ha      5    PET     H3    123 0.16573400   1.008000   ; qtot -0.014301
  124         ca      5    PET     C3    124 -0.08898200  12.010000   ; qtot -0.103283
  125         ha      5    PET     H2    125 0.16573400   1.008000   ; qtot 0.062451
  126         ca      5    PET     C2    126 -0.08898200  12.010000   ; qtot -0.026531
  127         ha      5    PET     H1    127 0.16624300   1.008000   ; qtot 0.139712
  128         ca      5    PET     C1    128 -0.10087900  12.010000   ; qtot 0.038833
  129          c      5    PET     C7    129 0.65348100  12.010000   ; qtot 0.692314
  130          o      5    PET     O3    130 -0.52897500  16.000000   ; qtot 0.163339
  131         os      5    PET     O4    131 -0.43055400  16.000000   ; qtot -0.267215
  132         c3      5    PET    C10    132 0.14275500  12.010000   ; qtot -0.124460
  133         h1      5    PET     H8    133 0.06629400   1.008000   ; qtot -0.058166
  134         h1      5    PET     H9    134 0.06629400   1.008000   ; qtot 0.008128
  135         c3      5    PET    C11    135 -0.10854800  12.010000   ; qtot -0.100420
  136         hc      5    PET    H10    136 0.05866800   1.008000   ; qtot -0.041752
  137         hc      5    PET    H11    137 0.05866800   1.008000   ; qtot 0.016916
  138         c3      5    PET    C12    138 -0.09153800  12.010000   ; qtot -0.074622
  139         hc      5    PET    H13    139 0.03731600   1.008000   ; qtot -0.037306
  140         hc      5    PET    H14    140 0.03731600   1.008000   ; qtot 0.000010
; residue    6 PET rtp PET q 0.0
  141         c3      6    PET     C9    141 0.12984200  12.010000   ; qtot 0.129852
  142         h1      6    PET     H6    142 0.05392300   1.008000   ; qtot 0.183775
  143         h1      6    PET     H7    143 0.05392300   1.008000   ; qtot 0.237698
  144         os      6    PET     O2    144 -0.43055400  16.000000   ; qtot -0.192856
  145          c      6    PET     C8    145 0.65144800  12.010000   ; qtot 0.458592
  146          o      6    PET     O1    146 -0.52602500  16.000000   ; qtot -0.067433
  147         ca      6    PET     C4    147 -0.10087900  12.010000   ; qtot -0.168312
  148         ca      6    PET     C5    148 -0.08898200  12.010000   ; qtot -0.257294
  149         ca      6    PET     C6    149 -0.08898200  12.010000   ; qtot -0.346276
  150         ha      6    PET     H4    150 0.16624300   1.008000   ; qtot -0.180033
  151         ha      6    PET     H3    151 0.16573400   1.008000   ; qtot -0.014299
  152         ca      6    PET     C3    152 -0.08898200  12.010000   ; qtot -0.103281
  153         ha      6    PET     H2    153 0.16573400   1.008000   ; qtot 0.062453
  154         ca      6    PET     C2    154 -0.08898200  12.010000   ; qtot -0.026529
  155         ha      6    PET     H1    155 0.16624300   1.008000   ; qtot 0.139714
  156         ca      6    PET     C1    156 -0.10087900  12.010000   ; qtot 0.038835
  157          c      6    PET     C7    157 0.65348100  12.010000   ; qtot 0.692316
  158          o      6    PET     O3    158 -0.52897500  16.000000   ; qtot 0.163341
  159         os      6    PET     O4    159 -0.43055400  16.000000   ; qtot -0.267213
  160         c3      6    PET    C10    160 0.14275500  12.010000   ; qtot -0.124458
  161         h1      6    PET     H8    161 0.06629400   1.008000   ; qtot -0.058164
  162         h1      6    PET     H9    162 0.06629400   1.008000   ; qtot 0.008130
  163         c3      6    PET    C11    163 -0.10854800  12.010000   ; qtot -0.100418
  164         hc      6    PET    H10    164 0.05866800   1.008000   ; qtot -0.041750
  165         hc      6    PET    H11    165 0.05866800   1.008000   ; qtot 0.016918
  166         c3      6    PET    C12    166 -0.09153800  12.010000   ; qtot -0.074620
  167         hc      6    PET    H13    167 0.03731600   1.008000   ; qtot -0.037304
  168         hc      6    PET    H14    168 0.03731600   1.008000   ; qtot 0.000012
; residue    7 PEO rtp PEO q 0.0
  169         c3      7    PEO     C1    169 0.13484800  12.010000   ; qtot 0.134860
  170         h1      7    PEO     H3    170 0.02617500   1.008000   ; qtot 0.161035
  171         h1      7    PEO     H4    171 0.02617500   1.008000   ; qtot 0.187210
  172         os      7    PEO      O    172 -0.42067400  16.000000   ; qtot -0.233464
  173         c3      7    PEO     C2    173 0.12975600  12.010000   ; qtot -0.103708
  174         h1      7    PEO     H5    174 0.04043400   1.008000   ; qtot -0.063274
  175         h1      7    PEO     H6    175 0.04043400   1.008000   ; qtot -0.022840
  176         c3      7    PEO     C3    176 0.13281100  12.010000   ; qtot 0.109971
  177         h1      7    PEO     H7    177 0.04349000   1.008000   ; qtot 0.153461
  178         h1      7    PEO     H8    178 0.04349000   1.008000   ; qtot 0.196951
  179         os      7    PEO     O1    179 -0.42263700  16.000000   ; qtot -0.225686
  180         c3      7    PEO     C4    180 0.13281100  12.010000   ; qtot -0.092875
  181         h1      7    PEO     H9    181 0.04349000   1.008000   ; qtot -0.049385
  182         h1      7    PEO    H10    182 0.04349000   1.008000   ; qtot -0.005895
  183         c3      7    PEO     C5    183 0.13179300  12.010000   ; qtot 0.125898
  184         h1      7    PEO    H11    184 0.04247100   1.008000   ; qtot 0.168369
  185         h1      7    PEO    H12    185 0.04247100   1.008000   ; qtot 0.210840
  186         os      7    PEO     O2    186 -0.42165600  16.000000   ; qtot -0.210816
  187         c3      7    PEO     C6    187 0.13179300  12.010000   ; qtot -0.079023
  188         h1      7    PEO    H13    188 0.04247100   1.008000   ; qtot -0.036552
  189         h1      7    PEO    H14    189 0.04247100   1.008000   ; qtot 0.005919
  190         c3      7    PEO     C7    190 0.13281100  12.010000   ; qtot 0.138730
  191         h1      7    PEO    H15    191 0.04349000   1.008000   ; qtot 0.182220
  192         h1      7    PEO    H16    192 0.04349000   1.008000   ; qtot 0.225710
  193         os      7    PEO     O3    193 -0.42263700  16.000000   ; qtot -0.196927
  194         c3      7    PEO     C8    194 0.13281100  12.010000   ; qtot -0.064116
  195         h1      7    PEO    H17    195 0.04349000   1.008000   ; qtot -0.020626
  196         h1      7    PEO    H18    196 0.04349000   1.008000   ; qtot 0.022864
  197         c3      7    PEO     C9    197 0.12975600  12.010000   ; qtot 0.152620
  198         h1      7    PEO    H19    198 0.04043400   1.008000   ; qtot 0.193054
  199         h1      7    PEO    H20    199 0.04043400   1.008000   ; qtot 0.233488
  200         os      7    PEO     O4    200 -0.42067400  16.000000   ; qtot -0.187186
  201         c3      7    PEO    C10    201 0.13484800  12.010000   ; qtot -0.052338
  202         h1      7    PEO    H21    202 0.02617500   1.008000   ; qtot -0.026163
  203         h1      7    PEO    H22    203 0.02617500   1.008000   ; qtot 0.000012
; residue    8 PET rtp PET q 0.0
  204         c3      8    PET     C9    204 0.12984200  12.010000   ; qtot 0.129854
  205         h1      8    PET     H6    205 0.05392300   1.008000   ; qtot 0.183777
  206         h1      8    PET     H7    206 0.05392300   1.008000   ; qtot 0.237700
  207         os      8    PET     O2    207 -0.43055400  16.000000   ; qtot -0.192854
  208          c      8    PET     C8    208 0.65144800  12.010000   ; qtot 0.458594
  209          o      8    PET     O1    209 -0.52602500  16.000000   ; qtot -0.067431
  210         ca      8    PET     C4    210 -0.10087900  12.010000   ; qtot -0.168310
  211         ca      8    PET     C5    211 -0.08898200  12.010000   ; qtot -0.257292
  212         ca      8    PET     C6    212 -0.08898200  12.010000   ; qtot -0.346274
  213         ha      8    PET     H4    213 0.16624300   1.008000   ; qtot -0.180031
  214         ha      8    PET     H3    214 0.16573400   1.008000   ; qtot -0.014297
  215         ca      8    PET     C3    215 -0.08898200  12.010000   ; qtot -0.103279
  216         ha      8    PET     H2    216 0.16573400   1.008000   ; qtot 0.062455
  217         ca      8    PET     C2    217 -0.08898200  12.010000   ; qtot -0.026527
  218         ha      8    PET     H1    218 0.16624300   1.008000   ; qtot 0.139716
  219         ca      8    PET     C1    219 -0.10087900  12.010000   ; qtot 0.038837
  220          c      8    PET     C7    220 0.65348100  12.010000   ; qtot 0.692318
  221          o      8    PET     O3    221 -0.52897500  16.000000   ; qtot 0.163343
  222         os      8    PET     O4    222 -0.43055400  16.000000   ; qtot -0.267211
  223         c3      8    PET    C10    223 0.14275500  12.010000   ; qtot -0.124456
  224         h1      8    PET     H8    224 0.06629400   1.008000   ; qtot -0.058162
  225         h1      8    PET     H9    225 0.06629400   1.008000   ; qtot 0.008132
  226         c3      8    PET    C11    226 -0.10854800  12.010000   ; qtot -0.100416
  227         hc      8    PET    H10    227 0.05866800   1.008000   ; qtot -0.041748
  228         hc      8    PET    H11    228 0.05866800   1.008000   ; qtot 0.016920
  229         c3      8    PET    C12    229 -0.09153800  12.010000   ; qtot -0.074618
  230         hc      8    PET    H13    230 0.03731600   1.008000   ; qtot -0.037302
  231         hc      8    PET    H14    231 0.03731600   1.008000   ; qtot 0.000014
; residue    9 PET rtp PET q 0.0
  232         c3      9    PET     C9    232 0.12984200  12.010000   ; qtot 0.129856
  233         h1      9    PET     H6    233 0.05392300   1.008000   ; qtot 0.183779
  234         h1      9    PET     H7    234 0.05392300   1.008000   ; qtot 0.237702
  235         os      9    PET     O2    235 -0.43055400  16.000000   ; qtot -0.192852
  236          c      9    PET     C8    236 0.65144800  12.010000   ; qtot 0.458596
  237          o      9    PET     O1    237 -0.52602500  16.000000   ; qtot -0.067429
  238         ca      9    PET     C4    238 -0.10087900  12.010000   ; qtot -0.168308
  239         ca      9    PET     C5    239 -0.08898200  12.010000   ; qtot -0.257290
  240         ca      9    PET     C6    240 -0.08898200  12.010000   ; qtot -0.346272
  241         ha      9    PET     H4    241 0.16624300   1.008000   ; qtot -0.180029
  242         ha      9    PET     H3    242 0.16573400   1.008000   ; qtot -0.014295
  243         ca      9    PET     C3    243 -0.08898200  12.010000   ; qtot -0.103277
  244         ha      9    PET     H2    244 0.16573400   1.008000   ; qtot 0.062457
  245         ca      9    PET     C2    245 -0.08898200  12.010000   ; qtot -0.026525
  246         ha      9    PET     H1    246 0.16624300   1.008000   ; qtot 0.139718
  247         ca      9    PET     C1    247 -0.10087900  12.010000   ; qtot 0.038839
  248          c      9    PET     C7    248 0.65348100  12.010000   ; qtot 0.692320
  249          o      9    PET     O3    249 -0.52897500  16.000000   ; qtot 0.163345
  250         os      9    PET     O4    250 -0.43055400  16.000000   ; qtot -0.267209
  251         c3      9    PET    C10    251 0.14275500  12.010000   ; qtot -0.124454
  252         h1      9    PET     H8    252 0.06629400   1.008000   ; qtot -0.058160
  253         h1      9    PET     H9    253 0.06629400   1.008000   ; qtot 0.008134
  254         c3      9    PET    C11    254 -0.10854800  12.010000   ; qtot -0.100414
  255         hc      9    PET    H10    255 0.05866800   1.008000   ; qtot -0.041746
  256         hc      9    PET    H11    256 0.05866800   1.008000   ; qtot 0.016922
  257         c3      9    PET    C12    257 -0.09153800  12.010000   ; qtot -0.074616
  258         hc      9    PET    H13    258 0.03731600   1.008000   ; qtot -0.037300
  259         hc      9    PET    H14    259 0.03731600   1.008000   ; qtot 0.000016
; residue   10 PET rtp PET q 0.0
  260         c3     10    PET     C9    260 0.12984200  12.010000   ; qtot 0.129858
  261         h1     10    PET     H6    261 0.05392300   1.008000   ; qtot 0.183781
  262         h1     10    PET     H7    262 0.05392300   1.008000   ; qtot 0.237704
  263         os     10    PET     O2    263 -0.43055400  16.000000   ; qtot -0.192850
  264          c     10    PET     C8    264 0.65144800  12.010000   ; qtot 0.458598
  265          o     10    PET     O1    265 -0.52602500  16.000000   ; qtot -0.067427
  266         ca     10    PET     C4    266 -0.10087900  12.010000   ; qtot -0.168306
  267         ca     10    PET     C5    267 -0.08898200  12.010000   ; qtot -0.257288
  268         ca     10    PET     C6    268 -0.08898200  12.010000   ; qtot -0.346270
  269         ha     10    PET     H4    269 0.16624300   1.008000   ; qtot -0.180027
  270         ha     10    PET     H3    270 0.16573400   1.008000   ; qtot -0.014293
  271         ca     10    PET     C3    271 -0.08898200  12.010000   ; qtot -0.103275
  272         ha     10    PET     H2    272 0.16573400   1.008000   ; qtot 0.062459
  273         ca     10    PET     C2    273 -0.08898200  12.010000   ; qtot -0.026523
  274         ha     10    PET     H1    274 0.16624300   1.008000   ; qtot 0.139720
  275         ca     10    PET     C1    275 -0.10087900  12.010000   ; qtot 0.038841
  276          c     10    PET     C7    276 0.65348100  12.010000   ; qtot 0.692322
  277          o     10    PET     O3    277 -0.52897500  16.000000   ; qtot 0.163347
  278         os     10    PET     O4    278 -0.43055400  16.000000   ; qtot -0.267207
  279         c3     10    PET    C10    279 0.14275500  12.010000   ; qtot -0.124452
  280         h1     10    PET     H8    280 0.06629400   1.008000   ; qtot -0.058158
  281         h1     10    PET     H9    281 0.06629400   1.008000   ; qtot 0.008136
  282         c3     10    PET    C11    282 -0.10854800  12.010000   ; qtot -0.100412
  283         hc     10    PET    H10    283 0.05866800   1.008000   ; qtot -0.041744
  284         hc     10    PET    H11    284 0.05866800   1.008000   ; qtot 0.016924
  285         c3     10    PET    C12    285 -0.09153800  12.010000   ; qtot -0.074614
  286         hc     10    PET    H13    286 0.03731600   1.008000   ; qtot -0.037298
  287         hc     10    PET    H14    287 0.03731600   1.008000   ; qtot 0.000018
; residue   11 PET rtp PET q 0.0
  288         c3     11    PET     C9    288 0.12984200  12.010000   ; qtot 0.129860
  289         h1     11    PET     H6    289 0.05392300   1.008000   ; qtot 0.183783
  290         h1     11    PET     H7    290 0.05392300   1.008000   ; qtot 0.237706
  291         os     11    PET     O2    291 -0.43055400  16.000000   ; qtot -0.192848
  292          c     11    PET     C8    292 0.65144800  12.010000   ; qtot 0.458600
  293          o     11    PET     O1    293 -0.52602500  16.000000   ; qtot -0.067425
  294         ca     11    PET     C4    294 -0.10087900  12.010000   ; qtot -0.168304
  295         ca     11    PET     C5    295 -0.08898200  12.010000   ; qtot -0.257286
  296         ca     11    PET     C6    296 -0.08898200  12.010000   ; qtot -0.346268
  297         ha     11    PET     H4    297 0.16624300   1.008000   ; qtot -0.180025
  298         ha     11    PET     H3    298 0.16573400   1.008000   ; qtot -0.014291
  299         ca     11    PET     C3    299 -0.08898200  12.010000   ; qtot -0.103273
  300         ha     11    PET     H2    300 0.16573400   1.008000   ; qtot 0.062461
  301         ca     11    PET     C2    301 -0.08898200  12.010000   ; qtot -0.026521
  302         ha     11    PET     H1    302 0.16624300   1.008000   ; qtot 0.139722
  303         ca     11    PET     C1    303 -0.10087900  12.010000   ; qtot 0.038843
  304          c     11    PET     C7    304 0.65348100  12.010000   ; qtot 0.692324
  305          o     11    PET     O3    305 -0.52897500  16.000000   ; qtot 0.163349
  306         os     11    PET     O4    306 -0.43055400  16.000000   ; qtot -0.267205
  307         c3     11    PET    C10    307 0.14275500  12.010000   ; qtot -0.124450
  308         h1     11    PET     H8    308 0.06629400   1.008000   ; qtot -0.058156
  309         h1     11    PET     H9    309 0.06629400   1.008000   ; qtot 0.008138
  310         c3     11    PET    C11    310 -0.10854800  12.010000   ; qtot -0.100410
  311         hc     11    PET    H10    311 0.05866800   1.008000   ; qtot -0.041742
  312         hc     11    PET    H11    312 0.05866800   1.008000   ; qtot 0.016926
  313         c3     11    PET    C12    313 -0.09153800  12.010000   ; qtot -0.074612
  314         hc     11    PET    H13    314 0.03731600   1.008000   ; qtot -0.037296
  315         hc     11    PET    H14    315 0.03731600   1.008000   ; qtot 0.000020
; residue   12 PET rtp PET q 0.0
  316         c3     12    PET     C9    316 0.12984200  12.010000   ; qtot 0.129862
  317         h1     12    PET     H6    317 0.05392300   1.008000   ; qtot 0.183785
  318         h1     12    PET     H7    318 0.05392300   1.008000   ; qtot 0.237708
  319         os     12    PET     O2    319 -0.43055400  16.000000   ; qtot -0.192846
  320          c     12    PET     C8    320 0.65144800  12.010000   ; qtot 0.458602
  321          o     12    PET     O1    321 -0.52602500  16.000000   ; qtot -0.067423
  322         ca     12    PET     C4    322 -0.10087900  12.010000   ; qtot -0.168302
  323         ca     12    PET     C5    323 -0.08898200  12.010000   ; qtot -0.257284
  324         ca     12    PET     C6    324 -0.08898200  12.010000   ; qtot -0.346266
  325         ha     12    PET     H4    325 0.16624300   1.008000   ; qtot -0.180023
  326         ha     12    PET     H3    326 0.16573400   1.008000   ; qtot -0.014289
  327         ca     12    PET     C3    327 -0.08898200  12.010000   ; qtot -0.103271
  328         ha     12    PET     H2    328 0.16573400   1.008000   ; qtot 0.062463
  329         ca     12    PET     C2    329 -0.08898200  12.010000   ; qtot -0.026519
  330         ha     12    PET     H1    330 0.16624300   1.008000   ; qtot 0.139724
  331         ca     12    PET     C1    331 -0.10087900  12.010000   ; qtot 0.038845
  332          c     12    PET     C7    332 0.65348100  12.010000   ; qtot 0.692326
  333          o     12    PET     O3    333 -0.52897500  16.000000   ; qtot 0.163351
  334         os     12    PET     O4    334 -0.43055400  16.000000   ; qtot -0.267203
  335         c3     12    PET    C10    335 0.14275500  12.010000   ; qtot -0.124448
  336         h1     12    PET     H8    336 0.06629400   1.008000   ; qtot -0.058154
  337         h1     12    PET     H9    337 0.06629400   1.008000   ; qtot 0.008140
  338         c3     12    PET    C11    338 -0.10854800  12.010000   ; qtot -0.100408
  339         hc     12    PET    H10    339 0.05866800   1.008000   ; qtot -0.041740
  340         hc     12    PET    H11    340 0.05866800   1.008000   ; qtot 0.016928
  341         c3     12    PET    C12    341 -0.09153800  12.010000   ; qtot -0.074610
  342         hc     12    PET    H13    342 0.03731600   1.008000   ; qtot -0.037294
  343         hc     12    PET    H14    343 0.03731600   1.008000   ; qtot 0.000022
; residue   13 PET rtp PET q 0.0
  344         c3     13    PET     C9    344 0.12984200  12.010000   ; qtot 0.129864
  345         h1     13    PET     H6    345 0.05392300   1.008000   ; qtot 0.183787
  346         h1     13    PET     H7    346 0.05392300   1.008000   ; qtot 0.237710
  347         os     13    PET     O2    347 -0.43055400  16.000000   ; qtot -0.192844
  348          c     13    PET     C8    348 0.65144800  12.010000   ; qtot 0.458604
  349          o     13    PET     O1    349 -0.52602500  16.000000   ; qtot -0.067421
  350         ca     13    PET     C4    350 -0.10087900  12.010000   ; qtot -0.168300
  351         ca     13    PET     C5    351 -0.08898200  12.010000   ; qtot -0.257282
  352         ca     13    PET     C6    352 -0.08898200  12.010000   ; qtot -0.346264
  353         ha     13    PET     H4    353 0.16624300   1.008000   ; qtot -0.180021
  354         ha     13    PET     H3    354 0.16573400   1.008000   ; qtot -0.014287
  355         ca     13    PET     C3    355 -0.08898200  12.010000   ; qtot -0.103269
  356         ha     13    PET     H2    356 0.16573400   1.008000   ; qtot 0.062465
  357         ca     13    PET     C2    357 -0.08898200  12.010000   ; qtot -0.026517
  358         ha     13    PET     H1    358 0.16624300   1.008000   ; qtot 0.139726
  359         ca     13    PET     C1    359 -0.10087900  12.010000   ; qtot 0.038847
  360          c     13    PET     C7    360 0.65348100  12.010000   ; qtot 0.692328
  361          o     13    PET     O3    361 -0.52897500  16.000000   ; qtot 0.163353
  362         os     13    PET     O4    362 -0.43055400  16.000000   ; qtot -0.267201
  363         c3     13    PET    C10    363 0.14275500  12.010000   ; qtot -0.124446
  364         h1     13    PET     H8    364 0.06629400   1.008000   ; qtot -0.058152
  365         h1     13    PET     H9    365 0.06629400   1.008000   ; qtot 0.008142
  366         c3     13    PET    C11    366 -0.10854800  12.010000   ; qtot -0.100406
  367         hc     13    PET    H10    367 0.05866800   1.008000   ; qtot -0.041738
  368         hc     13    PET    H11    368 0.05866800   1.008000   ; qtot 0.016930
  369         c3     13    PET    C12    369 -0.09153800  12.010000   ; qtot -0.074608
  370         hc     13    PET    H13    370 0.03731600   1.008000   ; qtot -0.037292
  371         hc     13    PET    H14    371 0.03731600   1.008000   ; qtot 0.000024
; residue   14 PET rtp PET q 0.0
  372         c3     14    PET     C9    372 0.12984200  12.010000   ; qtot 0.129866
  373         h1     14    PET     H6    373 0.05392300   1.008000   ; qtot 0.183789
  374         h1     14    PET     H7    374 0.05392300   1.008000   ; qtot 0.237712
  375         os     14    PET     O2    375 -0.43055400  16.000000   ; qtot -0.192842
  376          c     14    PET     C8    376 0.65144800  12.010000   ; qtot 0.458606
  377          o     14    PET     O1    377 -0.52602500  16.000000   ; qtot -0.067419
  378         ca     14    PET     C4    378 -0.10087900  12.010000   ; qtot -0.168298
  379         ca     14    PET     C5    379 -0.08898200  12.010000   ; qtot -0.257280
  380         ca     14    PET     C6    380 -0.08898200  12.010000   ; qtot -0.346262
  381         ha     14    PET     H4    381 0.16624300   1.008000   ; qtot -0.180019
  382         ha     14    PET     H3    382 0.16573400   1.008000   ; qtot -0.014285
  383         ca     14    PET     C3    383 -0.08898200  12.010000   ; qtot -0.103267
  384         ha     14    PET     H2    384 0.16573400   1.008000   ; qtot 0.062467
  385         ca     14    PET     C2    385 -0.08898200  12.010000   ; qtot -0.026515
  386         ha     14    PET     H1    386 0.16624300   1.008000   ; qtot 0.139728
  387         ca     14    PET     C1    387 -0.10087900  12.010000   ; qtot 0.038849
  388          c     14    PET     C7    388 0.65348100  12.010000   ; qtot 0.692330
  389          o     14    PET     O3    389 -0.52897500  16.000000   ; qtot 0.163355
  390         os     14    PET     O4    390 -0.43055400  16.000000   ; qtot -0.267199
  391         c3     14    PET    C10    391 0.14275500  12.010000   ; qtot -0.124444
  392         h1     14    PET     H8    392 0.06629400   1.008000   ; qtot -0.058150
  393         h1     14    PET     H9    393 0.06629400   1.008000   ; qtot 0.008144
  394         c3     14    PET    C11    394 -0.10854800  12.010000   ; qtot -0.100404
  395         hc     14    PET    H10    395 0.05866800   1.008000   ; qtot -0.041736
  396         hc     14    PET    H11    396 0.05866800   1.008000   ; qtot 0.016932
  397         c3     14    PET    C12    397 -0.09153800  12.010000   ; qtot -0.074606
  398         hc     14    PET    H13    398 0.03731600   1.008000   ; qtot -0.037290
  399         hc     14    PET    H14    399 0.03731600   1.008000   ; qtot 0.000026
; residue   15 PET rtp PET q 0.0
  400         c3     15    PET     C9    400 0.12984200  12.010000   ; qtot 0.129868
  401         h1     15    PET     H6    401 0.05392300   1.008000   ; qtot 0.183791
  402         h1     15    PET     H7    402 0.05392300   1.008000   ; qtot 0.237714
  403         os     15    PET     O2    403 -0.43055400  16.000000   ; qtot -0.192840
  404          c     15    PET     C8    404 0.65144800  12.010000   ; qtot 0.458608
  405          o     15    PET     O1    405 -0.52602500  16.000000   ; qtot -0.067417
  406         ca     15    PET     C4    406 -0.10087900  12.010000   ; qtot -0.168296
  407         ca     15    PET     C5    407 -0.08898200  12.010000   ; qtot -0.257278
  408         ca     15    PET     C6    408 -0.08898200  12.010000   ; qtot -0.346260
  409         ha     15    PET     H4    409 0.16624300   1.008000   ; qtot -0.180017
  410         ha     15    PET     H3    410 0.16573400   1.008000   ; qtot -0.014283
  411         ca     15    PET     C3    411 -0.08898200  12.010000   ; qtot -0.103265
  412         ha     15    PET     H2    412 0.16573400   1.008000   ; qtot 0.062469
  413         ca     15    PET     C2    413 -0.08898200  12.010000   ; qtot -0.026513
  414         ha     15    PET     H1    414 0.16624300   1.008000   ; qtot 0.139730
  415         ca     15    PET     C1    415 -0.10087900  12.010000   ; qtot 0.038851
  416          c     15    PET     C7    416 0.65348100  12.010000   ; qtot 0.692332
  417          o     15    PET     O3    417 -0.52897500  16.000000   ; qtot 0.163357
  418         os     15    PET     O4    418 -0.43055400  16.000000   ; qtot -0.267197
  419         c3     15    PET    C10    419 0.14275500  12.010000   ; qtot -0.124442
  420         h1     15    PET     H8    420 0.06629400   1.008000   ; qtot -0.058148
  421         h1     15    PET     H9    421 0.06629400   1.008000   ; qtot 0.008146
  422         c3     15    PET    C11    422 -0.10854800  12.010000   ; qtot -0.100402
  423         hc     15    PET    H10    423 0.05866800   1.008000   ; qtot -0.041734
  424         hc     15    PET    H11    424 0.05866800   1.008000   ; qtot 0.016934
  425         c3     15    PET    C12    425 -0.09153800  12.010000   ; qtot -0.074604
  426         hc     15    PET    H13    426 0.03731600   1.008000   ; qtot -0.037288
  427         hc     15    PET    H14    427 0.03731600   1.008000   ; qtot 0.000028
; residue   16 PET rtp PET q 0.0
  428         c3     16    PET     C9    428 0.12984200  12.010000   ; qtot 0.129870
  429         h1     16    PET     H6    429 0.05392300   1.008000   ; qtot 0.183793
  430         h1     16    PET     H7    430 0.05392300   1.008000   ; qtot 0.237716
  431         os     16    PET     O2    431 -0.43055400  16.000000   ; qtot -0.192838
  432          c     16    PET     C8    432 0.65144800  12.010000   ; qtot 0.458610
  433          o     16    PET     O1    433 -0.52602500  16.000000   ; qtot -0.067415
  434         ca     16    PET     C4    434 -0.10087900  12.010000   ; qtot -0.168294
  435         ca     16    PET     C5    435 -0.08898200  12.010000   ; qtot -0.257276
  436         ca     16    PET     C6    436 -0.08898200  12.010000   ; qtot -0.346258
  437         ha     16    PET     H4    437 0.16624300   1.008000   ; qtot -0.180015
  438         ha     16    PET     H3    438 0.16573400   1.008000   ; qtot -0.014281
  439         ca     16    PET     C3    439 -0.08898200  12.010000   ; qtot -0.103263
  440         ha     16    PET     H2    440 0.16573400   1.008000   ; qtot 0.062471
  441         ca     16    PET     C2    441 -0.08898200  12.010000   ; qtot -0.026511
  442         ha     16    PET     H1    442 0.16624300   1.008000   ; qtot 0.139732
  443         ca     16    PET     C1    443 -0.10087900  12.010000   ; qtot 0.038853
  444          c     16    PET     C7    444 0.65348100  12.010000   ; qtot 0.692334
  445          o     16    PET     O3    445 -0.52897500  16.000000   ; qtot 0.163359
  446         os     16    PET     O4    446 -0.43055400  16.000000   ; qtot -0.267195
  447         c3     16    PET    C10    447 0.14275500  12.010000   ; qtot -0.124440
  448         h1     16    PET     H8    448 0.06629400   1.008000   ; qtot -0.058146
  449         h1     16    PET     H9    449 0.06629400   1.008000   ; qtot 0.008148
  450         c3     16    PET    C11    450 -0.10854800  12.010000   ; qtot -0.100400
  451         hc     16    PET    H10    451 0.05866800   1.008000   ; qtot -0.041732
  452         hc     16    PET    H11    452 0.05866800   1.008000   ; qtot 0.016936
  453         c3     16    PET    C12    453 -0.09153800  12.010000   ; qtot -0.074602
  454         hc     16    PET    H13    454 0.03731600   1.008000   ; qtot -0.037286
  455         hc     16    PET    H14    455 0.03731600   1.008000   ; qtot 0.000030
; residue   17 PEO rtp PEO q 0.0
  456         c3     17    PEO     C1    456 0.13484800  12.010000   ; qtot 0.134878
  457         h1     17    PEO     H3    457 0.02617500   1.008000   ; qtot 0.161053
  458         h1     17    PEO     H4    458 0.02617500   1.008000   ; qtot 0.187228
  459         os     17    PEO      O    459 -0.42067400  16.000000   ; qtot -0.233446
  460         c3     17    PEO     C2    460 0.12975600  12.010000   ; qtot -0.103690
  461         h1     17    PEO     H5    461 0.04043400   1.008000   ; qtot -0.063256
  462         h1     17    PEO     H6    462 0.04043400   1.008000   ; qtot -0.022822
  463         c3     17    PEO     C3    463 0.13281100  12.010000   ; qtot 0.109989
  464         h1     17    PEO     H7    464 0.04349000   1.008000   ; qtot 0.153479
  465         h1     17    PEO     H8    465 0.04349000   1.008000   ; qtot 0.196969
  466         os     17    PEO     O1    466 -0.42263700  16.000000   ; qtot -0.225668
  467         c3     17    PEO     C4    467 0.13281100  12.010000   ; qtot -0.092857
  468         h1     17    PEO     H9    468 0.04349000   1.008000   ; qtot -0.049367
  469         h1     17    PEO    H10    469 0.04349000   1.008000   ; qtot -0.005877
  470         c3     17    PEO     C5    470 0.13179300  12.010000   ; qtot 0.125916
  471         h1     17    PEO    H11    471 0.04247100   1.008000   ; qtot 0.168387
  472         h1     17    PEO    H12    472 0.04247100   1.008000   ; qtot 0.210858
  473         os     17    PEO     O2    473 -0.42165600  16.000000   ; qtot -0.210798
  474         c3     17    PEO     C6    474 0.13179300  12.010000   ; qtot -0.079005
  475         h1     17    PEO    H13    475 0.04247100   1.008000   ; qtot -0.036534
  476         h1     17    PEO    H14    476 0.04247100   1.008000   ; qtot 0.005937
  477         c3     17    PEO     C7    477 0.13281100  12.010000   ; qtot 0.138748
  478         h1     17    PEO    H15    478 0.04349000   1.008000   ; qtot 0.182238
  479         h1     17    PEO    H16    479 0.04349000   1.008000   ; qtot 0.225728
  480         os     17    PEO     O3    480 -0.42263700  16.000000   ; qtot -0.196909
  481         c3     17    PEO     C8    481 0.13281100  12.010000   ; qtot -0.064098
  482         h1     17    PEO    H17    482 0.04349000   1.008000   ; qtot -0.020608
  483         h1     17    PEO    H18    483 0.04349000   1.008000   ; qtot 0.022882
  484         c3     17    PEO     C9    484 0.12975600  12.010000   ; qtot 0.152638
  485         h1     17    PEO    H19    485 0.04043400   1.008000   ; qtot 0.193072
  486         h1     17    PEO    H20    486 0.04043400   1.008000   ; qtot 0.233506
  487         os     17    PEO     O4    487 -0.42067400  16.000000   ; qtot -0.187168
  488         c3     17    PEO    C10    488 0.13484800  12.010000   ; qtot -0.052320
  489         h1     17    PEO    H21    489 0.02617500   1.008000   ; qtot -0.026145
  490         h1     17    PEO    H22    490 0.02617500   1.008000   ; qtot 0.000030
; residue   18 PET rtp PET q 0.0
  491         c3     18    PET     C9    491 0.12984200  12.010000   ; qtot 0.129872
  492         h1     18    PET     H6    492 0.05392300   1.008000   ; qtot 0.183795
  493         h1     18    PET     H7    493 0.05392300   1.008000   ; qtot 0.237718
  494         os     18    PET     O2    494 -0.43055400  16.000000   ; qtot -0.192836
  495          c     18    PET     C8    495 0.65144800  12.010000   ; qtot 0.458612
  496          o     18    PET     O1    496 -0.52602500  16.000000   ; qtot -0.067413
  497         ca     18    PET     C4    497 -0.10087900  12.010000   ; qtot -0.168292
  498         ca     18    PET     C5    498 -0.08898200  12.010000   ; qtot -0.257274
  499         ca     18    PET     C6    499 -0.08898200  12.010000   ; qtot -0.346256
  500         ha     18    PET     H4    500 0.16624300   1.008000   ; qtot -0.180013
  501         ha     18    PET     H3    501 0.16573400   1.008000   ; qtot -0.014279
  502         ca     18    PET     C3    502 -0.08898200  12.010000   ; qtot -0.103261
  503         ha     18    PET     H2    503 0.16573400   1.008000   ; qtot 0.062473
  504         ca     18    PET     C2    504 -0.08898200  12.010000   ; qtot -0.026509
  505         ha     18    PET     H1    505 0.16624300   1.008000   ; qtot 0.139734
  506         ca     18    PET     C1    506 -0.10087900  12.010000   ; qtot 0.038855
  507          c     18    PET     C7    507 0.65348100  12.010000   ; qtot 0.692336
  508          o     18    PET     O3    508 -0.52897500  16.000000   ; qtot 0.163361
  509         os     18    PET     O4    509 -0.43055400  16.000000   ; qtot -0.267193
  510         c3     18    PET    C10    510 0.14275500  12.010000   ; qtot -0.124438
  511         h1     18    PET     H8    511 0.06629400   1.008000   ; qtot -0.058144
  512         h1     18    PET     H9    512 0.06629400   1.008000   ; qtot 0.008150
  513         c3     18    PET    C11    513 -0.10854800  12.010000   ; qtot -0.100398
  514         hc     18    PET    H10    514 0.05866800   1.008000   ; qtot -0.041730
  515         hc     18    PET    H11    515 0.05866800   1.008000   ; qtot 0.016938
  516         c3     18    PET    C12    516 -0.09153800  12.010000   ; qtot -0.074600
  517         hc     18    PET    H13    517 0.03731600   1.008000   ; qtot -0.037284
  518         hc     18    PET    H14    518 0.03731600   1.008000   ; qtot 0.000032
; residue   19 PET rtp PET q 0.0
  519         c3     19    PET     C9    519 0.12984200  12.010000   ; qtot 0.129874
  520         h1     19    PET     H6    520 0.05392300   1.008000   ; qtot 0.183797
  521         h1     19    PET     H7    521 0.05392300   1.008000   ; qtot 0.237720
  522         os     19    PET     O2    522 -0.43055400  16.000000   ; qtot -0.192834
  523          c     19    PET     C8    523 0.65144800  12.010000   ; qtot 0.458614
  524          o     19    PET     O1    524 -0.52602500  16.000000   ; qtot -0.067411
  525         ca     19    PET     C4    525 -0.10087900  12.010000   ; qtot -0.168290
  526         ca     19    PET     C5    526 -0.08898200  12.010000   ; qtot -0.257272
  527         ca     19    PET     C6    527 -0.08898200  12.010000   ; qtot -0.346254
  528         ha     19    PET     H4    528 0.16624300   1.008000   ; qtot -0.180011
  529         ha     19    PET     H3    529 0.16573400   1.008000   ; qtot -0.014277
  530         ca     19    PET     C3    530 -0.08898200  12.010000   ; qtot -0.103259
  531         ha     19    PET     H2    531 0.16573400   1.008000   ; qtot 0.062475
  532         ca     19    PET     C2    532 -0.08898200  12.010000   ; qtot -0.026507
  533         ha     19    PET     H1    533 0.16624300   1.008000   ; qtot 0.139736
  534         ca     19    PET     C1    534 -0.10087900  12.010000   ; qtot 0.038857
  535          c     19    PET     C7    535 0.65348100  12.010000   ; qtot 0.692338
  536          o     19    PET     O3    536 -0.52897500  16.000000   ; qtot 0.163363
  537         os     19    PET     O4    537 -0.43055400  16.000000   ; qtot -0.267191
  538         c3     19    PET    C10    538 0.14275500  12.010000   ; qtot -0.124436
  539         h1     19    PET     H8    539 0.06629400   1.008000   ; qtot -0.058142
  540         h1     19    PET     H9    540 0.06629400   1.008000   ; qtot 0.008152
  541         c3     19    PET    C11    541 -0.10854800  12.010000   ; qtot -0.100396
  542         hc     19    PET    H10    542 0.05866800   1.008000   ; qtot -0.041728
  543         hc     19    PET    H11    543 0.05866800   1.008000   ; qtot 0.016940
  544         c3     19    PET    C12    544 -0.09153800  12.010000   ; qtot -0.074598
  545         hc     19    PET    H13    545 0.03731600   1.008000   ; qtot -0.037282
  546         hc     19    PET    H14    546 0.03731600   1.008000   ; qtot 0.000034
; residue   20 PET rtp PET q 0.0
  547         c3     20    PET     C9    547 0.12984200  12.010000   ; qtot 0.129876
  548         h1     20    PET     H6    548 0.05392300   1.008000   ; qtot 0.183799
  549         h1     20    PET     H7    549 0.05392300   1.008000   ; qtot 0.237722
  550         os     20    PET     O2    550 -0.43055400  16.000000   ; qtot -0.192832
  551          c     20    PET     C8    551 0.65144800  12.010000   ; qtot 0.458616
  552          o     20    PET     O1    552 -0.52602500  16.000000   ; qtot -0.067409
  553         ca     20    PET     C4    553 -0.10087900  12.010000   ; qtot -0.168288
  554         ca     20    PET     C5    554 -0.08898200  12.010000   ; qtot -0.257270
  555         ca     20    PET     C6    555 -0.08898200  12.010000   ; qtot -0.346252
  556         ha     20    PET     H4    556 0.16624300   1.008000   ; qtot -0.180009
  557         ha     20    PET     H3    557 0.16573400   1.008000   ; qtot -0.014275
  558         ca     20    PET     C3    558 -0.08898200  12.010000   ; qtot -0.103257
  559         ha     20    PET     H2    559 0.16573400   1.008000   ; qtot 0.062477
  560         ca     20    PET     C2    560 -0.08898200  12.010000   ; qtot -0.026505
  561         ha     20    PET     H1    561 0.16624300   1.008000   ; qtot 0.139738
  562         ca     20    PET     C1    562 -0.10087900  12.010000   ; qtot 0.038859
  563          c     20    PET     C7    563 0.65348100  12.010000   ; qtot 0.692340
  564          o     20    PET     O3    564 -0.52897500  16.000000   ; qtot 0.163365
  565         os     20    PET     O4    565 -0.43055400  16.000000   ; qtot -0.267189
  566         c3     20    PET    C10    566 0.14275500  12.010000   ; qtot -0.124434
  567         h1     20    PET     H8    567 0.06629400   1.008000   ; qtot -0.058140
  568         h1     20    PET     H9    568 0.06629400   1.008000   ; qtot 0.008154
  569         c3     20    PET    C11    569 -0.10854800  12.010000   ; qtot -0.100394
  570         hc     20    PET    H10    570 0.05866800   1.008000   ; qtot -0.041726
  571         hc     20    PET    H11    571 0.05866800   1.008000   ; qtot 0.016942
  572         c3     20    PET    C12    572 -0.09153800  12.010000   ; qtot -0.074596
  573         hc     20    PET    H13    573 0.03731600   1.008000   ; qtot -0.037280
  574         hc     20    PET    H14    574 0.03731600   1.008000   ; qtot 0.000036
; residue   21 PET rtp PET q 0.0
  575         c3     21    PET     C9    575 0.12984200  12.010000   ; qtot 0.129878
  576         h1     21    PET     H6    576 0.05392300   1.008000   ; qtot 0.183801
  577         h1     21    PET     H7    577 0.05392300   1.008000   ; qtot 0.237724
  578         os     21    PET     O2    578 -0.43055400  16.000000   ; qtot -0.192830
  579          c     21    PET     C8    579 0.65144800  12.010000   ; qtot 0.458618
  580          o     21    PET     O1    580 -0.52602500  16.000000   ; qtot -0.067407
  581         ca     21    PET     C4    581 -0.10087900  12.010000   ; qtot -0.168286
  582         ca     21    PET     C5    582 -0.08898200  12.010000   ; qtot -0.257268
  583         ca     21    PET     C6    583 -0.08898200  12.010000   ; qtot -0.346250
  584         ha     21    PET     H4    584 0.16624300   1.008000   ; qtot -0.180007
  585         ha     21    PET     H3    585 0.16573400   1.008000   ; qtot -0.014273
  586         ca     21    PET     C3    586 -0.08898200  12.010000   ; qtot -0.103255
  587         ha     21    PET     H2    587 0.16573400   1.008000   ; qtot 0.062479
  588         ca     21    PET     C2    588 -0.08898200  12.010000   ; qtot -0.026503
  589         ha     21    PET     H1    589 0.16624300   1.008000   ; qtot 0.139740
  590         ca     21    PET     C1    590 -0.10087900  12.010000   ; qtot 0.038861
  591          c     21    PET     C7    591 0.65348100  12.010000   ; qtot 0.692342
  592          o     21    PET     O3    592 -0.52897500  16.000000   ; qtot 0.163367
  593         os     21    PET     O4    593 -0.43055400  16.000000   ; qtot -0.267187
  594         c3     21    PET    C10    594 0.14275500  12.010000   ; qtot -0.124432
  595         h1     21    PET     H8    595 0.06629400   1.008000   ; qtot -0.058138
  596         h1     21    PET     H9    596 0.06629400   1.008000   ; qtot 0.008156
  597         c3     21    PET    C11    597 -0.10854800  12.010000   ; qtot -0.100392
  598         hc     21    PET    H10    598 0.05866800   1.008000   ; qtot -0.041724
  599         hc     21    PET    H11    599 0.05866800   1.008000   ; qtot 0.016944
  600         c3     21    PET    C12    600 -0.09153800  12.010000   ; qtot -0.074594
  601         hc     21    PET    H13    601 0.03731600   1.008000   ; qtot -0.037278
  602         hc     21    PET    H14    602 0.03731600   1.008000   ; qtot 0.000038
; residue   22 PET rtp PET q 0.0
  603         c3     22    PET     C9    603 0.12984200  12.010000   ; qtot 0.129880
  604         h1     22    PET     H6    604 0.05392300   1.008000   ; qtot 0.183803
  605         h1     22    PET     H7    605 0.05392300   1.008000   ; qtot 0.237726
  606         os     22    PET     O2    606 -0.43055400  16.000000   ; qtot -0.192828
  607          c     22    PET     C8    607 0.65144800  12.010000   ; qtot 0.458620
  608          o     22    PET     O1    608 -0.52602500  16.000000   ; qtot -0.067405
  609         ca     22    PET     C4    609 -0.10087900  12.010000   ; qtot -0.168284
  610         ca     22    PET     C5    610 -0.08898200  12.010000   ; qtot -0.257266
  611         ca     22    PET     C6    611 -0.08898200  12.010000   ; qtot -0.346248
  612         ha     22    PET     H4    612 0.16624300   1.008000   ; qtot -0.180005
  613         ha     22    PET     H3    613 0.16573400   1.008000   ; qtot -0.014271
  614         ca     22    PET     C3    614 -0.08898200  12.010000   ; qtot -0.103253
  615         ha     22    PET     H2    615 0.16573400   1.008000   ; qtot 0.062481
  616         ca     22    PET     C2    616 -0.08898200  12.010000   ; qtot -0.026501
  617         ha     22    PET     H1    617 0.16624300   1.008000   ; qtot 0.139742
  618         ca     22    PET     C1    618 -0.10087900  12.010000   ; qtot 0.038863
  619          c     22    PET     C7    619 0.65348100  12.010000   ; qtot 0.692344
  620          o     22    PET     O3    620 -0.52897500  16.000000   ; qtot 0.163369
  621         os     22    PET     O4    621 -0.43055400  16.000000   ; qtot -0.267185
  622         c3     22    PET    C10    622 0.14275500  12.010000   ; qtot -0.124430
  623         h1     22    PET     H8    623 0.06629400   1.008000   ; qtot -0.058136
  624         h1     22    PET     H9    624 0.06629400   1.008000   ; qtot 0.008158
  625         c3     22    PET    C11    625 -0.10854800  12.010000   ; qtot -0.100390
  626         hc     22    PET    H10    626 0.05866800   1.008000   ; qtot -0.041722
  627         hc     22    PET    H11    627 0.05866800   1.008000   ; qtot 0.016946
  628         c3     22    PET    C12    628 -0.09153800  12.010000   ; qtot -0.074592
  629         hc     22    PET    H13    629 0.03731600   1.008000   ; qtot -0.037276
  630         hc     22    PET    H14    630 0.03731600   1.008000   ; qtot 0.000040
; residue   23 PEO rtp PEO q 0.0
  631         c3     23    PEO     C1    631 0.13484800  12.010000   ; qtot 0.134888
  632         h1     23    PEO     H3    632 0.02617500   1.008000   ; qtot 0.161063
  633         h1     23    PEO     H4    633 0.02617500   1.008000   ; qtot 0.187238
  634         os     23    PEO      O    634 -0.42067400  16.000000   ; qtot -0.233436
  635         c3     23    PEO     C2    635 0.12975600  12.010000   ; qtot -0.103680
  636         h1     23    PEO     H5    636 0.04043400   1.008000   ; qtot -0.063246
  637         h1     23    PEO     H6    637 0.04043400   1.008000   ; qtot -0.022812
  638         c3     23    PEO     C3    638 0.13281100  12.010000   ; qtot 0.109999
  639         h1     23    PEO     H7    639 0.04349000   1.008000   ; qtot 0.153489
  640         h1     23    PEO     H8    640 0.04349000   1.008000   ; qtot 0.196979
  641         os     23    PEO     O1    641 -0.42263700  16.000000   ; qtot -0.225658
  642         c3     23    PEO     C4    642 0.13281100  12.010000   ; qtot -0.092847
  643         h1     23    PEO     H9    643 0.04349000   1.008000   ; qtot -0.049357
  644         h1     23    PEO    H10    644 0.04349000   1.008000   ; qtot -0.005867
  645         c3     23    PEO     C5    645 0.13179300  12.010000   ; qtot 0.125926
  646         h1     23    PEO    H11    646 0.04247100   1.008000   ; qtot 0.168397
  647         h1     23    PEO    H12    647 0.04247100   1.008000   ; qtot 0.210868
  648         os     23    PEO     O2    648 -0.42165600  16.000000   ; qtot -0.210788
  649         c3     23    PEO     C6    649 0.13179300  12.010000   ; qtot -0.078995
  650         h1     23    PEO    H13    650 0.04247100   1.008000   ; qtot -0.036524
  651         h1     23    PEO    H14    651 0.04247100   1.008000   ; qtot 0.005947
  652         c3     23    PEO     C7    652 0.13281100  12.010000   ; qtot 0.138758
  653         h1     23    PEO    H15    653 0.04349000   1.008000   ; qtot 0.182248
  654         h1     23    PEO    H16    654 0.04349000   1.008000   ; qtot 0.225738
  655         os     23    PEO     O3    655 -0.42263700  16.000000   ; qtot -0.196899
  656         c3     23    PEO     C8    656 0.13281100  12.010000   ; qtot -0.064088
  657         h1     23    PEO    H17    657 0.04349000   1.008000   ; qtot -0.020598
  658         h1     23    PEO    H18    658 0.04349000   1.008000   ; qtot 0.022892
  659         c3     23    PEO     C9    659 0.12975600  12.010000   ; qtot 0.152648
  660         h1     23    PEO    H19    660 0.04043400   1.008000   ; qtot 0.193082
  661         h1     23    PEO    H20    661 0.04043400   1.008000   ; qtot 0.233516
  662         os     23    PEO     O4    662 -0.42067400  16.000000   ; qtot -0.187158
  663         c3     23    PEO    C10    663 0.13484800  12.010000   ; qtot -0.052310
  664         h1     23    PEO    H21    664 0.02617500   1.008000   ; qtot -0.026135
  665         h1     23    PEO    H22    665 0.02617500   1.008000   ; qtot 0.000040
; residue   24 PET rtp PET q 0.0
  666         c3     24    PET     C9    666 0.12984200  12.010000   ; qtot 0.129882
  667         h1     24    PET     H6    667 0.05392300   1.008000   ; qtot 0.183805
  668         h1     24    PET     H7    668 0.05392300   1.008000   ; qtot 0.237728
  669         os     24    PET     O2    669 -0.43055400  16.000000   ; qtot -0.192826
  670          c     24    PET     C8    670 0.65144800  12.010000   ; qtot 0.458622
  671          o     24    PET     O1    671 -0.52602500  16.000000   ; qtot -0.067403
  672         ca     24    PET     C4    672 -0.10087900  12.010000   ; qtot -0.168282
  673         ca     24    PET     C5    673 -0.08898200  12.010000   ; qtot -0.257264
  674         ca     24    PET     C6    674 -0.08898200  12.010000   ; qtot -0.346246
  675         ha     24    PET     H4    675 0.16624300   1.008000   ; qtot -0.180003
  676         ha     24    PET     H3    676 0.16573400   1.008000   ; qtot -0.014269
  677         ca     24    PET     C3    677 -0.08898200  12.010000   ; qtot -0.103251
  678         ha     24    PET     H2    678 0.16573400   1.008000   ; qtot 0.062483
  679         ca     24    PET     C2    679 -0.08898200  12.010000   ; qtot -0.026499
  680         ha     24    PET     H1    680 0.16624300   1.008000   ; qtot 0.139744
  681         ca     24    PET     C1    681 -0.10087900  12.010000   ; qtot 0.038865
  682          c     24    PET     C7    682 0.65348100  12.010000   ; qtot 0.692346
  683          o     24    PET     O3    683 -0.52897500  16.000000   ; qtot 0.163371
  684         os     24    PET     O4    684 -0.43055400  16.000000   ; qtot -0.267183
  685         c3     24    PET    C10    685 0.14275500  12.010000   ; qtot -0.124428
  686         h1     24    PET     H8    686 0.06629400   1.008000   ; qtot -0.058134
  687         h1     24    PET     H9    687 0.06629400   1.008000   ; qtot 0.008160
  688         c3     24    PET    C11    688 -0.10854800  12.010000   ; qtot -0.100388
  689         hc     24    PET    H10    689 0.05866800   1.008000   ; qtot -0.041720
  690         hc     24    PET    H11    690 0.05866800   1.008000   ; qtot 0.016948
  691         c3     24    PET    C12    691 -0.09153800  12.010000   ; qtot -0.074590
  692         hc     24    PET    H13    692 0.03731600   1.008000   ; qtot -0.037274
  693         hc     24    PET    H14    693 0.03731600   1.008000   ; qtot 0.000042
; residue   25 PET rtp PET q 0.0
  694         c3     25    PET     C9    694 0.12984200  12.010000   ; qtot 0.129884
  695         h1     25    PET     H6    695 0.05392300   1.008000   ; qtot 0.183807
  696         h1     25    PET     H7    696 0.05392300   1.008000   ; qtot 0.237730
  697         os     25    PET     O2    697 -0.43055400  16.000000   ; qtot -0.192824
  698          c     25    PET     C8    698 0.65144800  12.010000   ; qtot 0.458624
  699          o     25    PET     O1    699 -0.52602500  16.000000   ; qtot -0.067401
  700         ca     25    PET     C4    700 -0.10087900  12.010000   ; qtot -0.168280
  701         ca     25    PET     C5    701 -0.08898200  12.010000   ; qtot -0.257262
  702         ca     25    PET     C6    702 -0.08898200  12.010000   ; qtot -0.346244
  703         ha     25    PET     H4    703 0.16624300   1.008000   ; qtot -0.180001
  704         ha     25    PET     H3    704 0.16573400   1.008000   ; qtot -0.014267
  705         ca     25    PET     C3    705 -0.08898200  12.010000   ; qtot -0.103249
  706         ha     25    PET     H2    706 0.16573400   1.008000   ; qtot 0.062485
  707         ca     25    PET     C2    707 -0.08898200  12.010000   ; qtot -0.026497
  708         ha     25    PET     H1    708 0.16624300   1.008000   ; qtot 0.139746
  709         ca     25    PET     C1    709 -0.10087900  12.010000   ; qtot 0.038867
  710          c     25    PET     C7    710 0.65348100  12.010000   ; qtot 0.692348
  711          o     25    PET     O3    711 -0.52897500  16.000000   ; qtot 0.163373
  712         os     25    PET     O4    712 -0.43055400  16.000000   ; qtot -0.267181
  713         c3     25    PET    C10    713 0.14275500  12.010000   ; qtot -0.124426
  714         h1     25    PET     H8    714 0.06629400   1.008000   ; qtot -0.058132
  715         h1     25    PET     H9    715 0.06629400   1.008000   ; qtot 0.008162
  716         c3     25    PET    C11    716 -0.10854800  12.010000   ; qtot -0.100386
  717         hc     25    PET    H10    717 0.05866800   1.008000   ; qtot -0.041718
  718         hc     25    PET    H11    718 0.05866800   1.008000   ; qtot 0.016950
  719         c3     25    PET    C12    719 -0.09153800  12.010000   ; qtot -0.074588
  720         hc     25    PET    H13    720 0.03731600   1.008000   ; qtot -0.037272
  721         hc     25    PET    H14    721 0.03731600   1.008000   ; qtot 0.000044
; residue   26 PET rtp PET q 0.0
  722         c3     26    PET     C9    722 0.12984200  12.010000   ; qtot 0.129886
  723         h1     26    PET     H6    723 0.05392300   1.008000   ; qtot 0.183809
  724         h1     26    PET     H7    724 0.05392300   1.008000   ; qtot 0.237732
  725         os     26    PET     O2    725 -0.43055400  16.000000   ; qtot -0.192822
  726          c     26    PET     C8    726 0.65144800  12.010000   ; qtot 0.458626
  727          o     26    PET     O1    727 -0.52602500  16.000000   ; qtot -0.067399
  728         ca     26    PET     C4    728 -0.10087900  12.010000   ; qtot -0.168278
  729         ca     26    PET     C5    729 -0.08898200  12.010000   ; qtot -0.257260
  730         ca     26    PET     C6    730 -0.08898200  12.010000   ; qtot -0.346242
  731         ha     26    PET     H4    731 0.16624300   1.008000   ; qtot -0.179999
  732         ha     26    PET     H3    732 0.16573400   1.008000   ; qtot -0.014265
  733         ca     26    PET     C3    733 -0.08898200  12.010000   ; qtot -0.103247
  734         ha     26    PET     H2    734 0.16573400   1.008000   ; qtot 0.062487
  735         ca     26    PET     C2    735 -0.08898200  12.010000   ; qtot -0.026495
  736         ha     26    PET     H1    736 0.16624300   1.008000   ; qtot 0.139748
  737         ca     26    PET     C1    737 -0.10087900  12.010000   ; qtot 0.038869
  738          c     26    PET     C7    738 0.65348100  12.010000   ; qtot 0.692350
  739          o     26    PET     O3    739 -0.52897500  16.000000   ; qtot 0.163375
  740         os     26    PET     O4    740 -0.43055400  16.000000   ; qtot -0.267179
  741         c3     26    PET    C10    741 0.14275500  12.010000   ; qtot -0.124424
  742         h1     26    PET     H8    742 0.06629400   1.008000   ; qtot -0.058130
  743         h1     26    PET     H9    743 0.06629400   1.008000   ; qtot 0.008164
  744         c3     26    PET    C11    744 -0.10854800  12.010000   ; qtot -0.100384
  745         hc     26    PET    H10    745 0.05866800   1.008000   ; qtot -0.041716
  746         hc     26    PET    H11    746 0.05866800   1.008000   ; qtot 0.016952
  747         c3     26    PET    C12    747 -0.09153800  12.010000   ; qtot -0.074586
  748         hc     26    PET    H13    748 0.03731600   1.008000   ; qtot -0.037270
  749         hc     26    PET    H14    749 0.03731600   1.008000   ; qtot 0.000046
; residue   27 PET rtp PET q 0.0
  750         c3     27    PET     C9    750 0.12984200  12.010000   ; qtot 0.129888
  751         h1     27    PET     H6    751 0.05392300   1.008000   ; qtot 0.183811
  752         h1     27    PET     H7    752 0.05392300   1.008000   ; qtot 0.237734
  753         os     27    PET     O2    753 -0.43055400  16.000000   ; qtot -0.192820
  754          c     27    PET     C8    754 0.65144800  12.010000   ; qtot 0.458628
  755          o     27    PET     O1    755 -0.52602500  16.000000   ; qtot -0.067397
  756         ca     27    PET     C4    756 -0.10087900  12.010000   ; qtot -0.168276
  757         ca     27    PET     C5    757 -0.08898200  12.010000   ; qtot -0.257258
  758         ca     27    PET     C6    758 -0.08898200  12.010000   ; qtot -0.346240
  759         ha     27    PET     H4    759 0.16624300   1.008000   ; qtot -0.179997
  760         ha     27    PET     H3    760 0.16573400   1.008000   ; qtot -0.014263
  761         ca     27    PET     C3    761 -0.08898200  12.010000   ; qtot -0.103245
  762         ha     27    PET     H2    762 0.16573400   1.008000   ; qtot 0.062489
  763         ca     27    PET     C2    763 -0.08898200  12.010000   ; qtot -0.026493
  764         ha     27    PET     H1    764 0.16624300   1.008000   ; qtot 0.139750
  765         ca     27    PET     C1    765 -0.10087900  12.010000   ; qtot 0.038871
  766          c     27    PET     C7    766 0.65348100  12.010000   ; qtot 0.692352
  767          o     27    PET     O3    767 -0.52897500  16.000000   ; qtot 0.163377
  768         os     27    PET     O4    768 -0.43055400  16.000000   ; qtot -0.267177
  769         c3     27    PET    C10    769 0.14275500  12.010000   ; qtot -0.124422
  770         h1     27    PET     H8    770 0.06629400   1.008000   ; qtot -0.058128
  771         h1     27    PET     H9    771 0.06629400   1.008000   ; qtot 0.008166
  772         c3     27    PET    C11    772 -0.10854800  12.010000   ; qtot -0.100382
  773         hc     27    PET    H10    773 0.05866800   1.008000   ; qtot -0.041714
  774         hc     27    PET    H11    774 0.05866800   1.008000   ; qtot 0.016954
  775         c3     27    PET    C12    775 -0.09153800  12.010000   ; qtot -0.074584
  776         hc     27    PET    H13    776 0.03731600   1.008000   ; qtot -0.037268
  777         hc     27    PET    H14    777 0.03731600   1.008000   ; qtot 0.000048
; residue   28 PEO rtp PEO q 0.0
  778         c3     28    PEO     C1    778 0.13484800  12.010000   ; qtot 0.134896
  779         h1     28    PEO     H3    779 0.02617500   1.008000   ; qtot 0.161071
  780         h1     28    PEO     H4    780 0.02617500   1.008000   ; qtot 0.187246
  781         os     28    PEO      O    781 -0.42067400  16.000000   ; qtot -0.233428
  782         c3     28    PEO     C2    782 0.12975600  12.010000   ; qtot -0.103672
  783         h1     28    PEO     H5    783 0.04043400   1.008000   ; qtot -0.063238
  784         h1     28    PEO     H6    784 0.04043400   1.008000   ; qtot -0.022804
  785         c3     28    PEO     C3    785 0.13281100  12.010000   ; qtot 0.110007
  786         h1     28    PEO     H7    786 0.04349000   1.008000   ; qtot 0.153497
  787         h1     28    PEO     H8    787 0.04349000   1.008000   ; qtot 0.196987
  788         os     28    PEO     O1    788 -0.42263700  16.000000   ; qtot -0.225650
  789         c3     28    PEO     C4    789 0.13281100  12.010000   ; qtot -0.092839
  790         h1     28    PEO     H9    790 0.04349000   1.008000   ; qtot -0.049349
  791         h1     28    PEO    H10    791 0.04349000   1.008000   ; qtot -0.005859
  792         c3     28    PEO     C5    792 0.13179300  12.010000   ; qtot 0.125934
  793         h1     28    PEO    H11    793 0.04247100   1.008000   ; qtot 0.168405
  794         h1     28    PEO    H12    794 0.04247100   1.008000   ; qtot 0.210876
  795         os     28    PEO     O2    795 -0.42165600  16.000000   ; qtot -0.210780
  796         c3     28    PEO     C6    796 0.13179300  12.010000   ; qtot -0.078987
  797         h1     28    PEO    H13    797 0.04247100   1.008000   ; qtot -0.036516
  798         h1     28    PEO    H14    798 0.04247100   1.008000   ; qtot 0.005955
  799         c3     28    PEO     C7    799 0.13281100  12.010000   ; qtot 0.138766
  800         h1     28    PEO    H15    800 0.04349000   1.008000   ; qtot 0.182256
  801         h1     28    PEO    H16    801 0.04349000   1.008000   ; qtot 0.225746
  802         os     28    PEO     O3    802 -0.42263700  16.000000   ; qtot -0.196891
  803         c3     28    PEO     C8    803 0.13281100  12.010000   ; qtot -0.064080
  804         h1     28    PEO    H17    804 0.04349000   1.008000   ; qtot -0.020590
  805         h1     28    PEO    H18    805 0.04349000   1.008000   ; qtot 0.022900
  806         c3     28    PEO     C9    806 0.12975600  12.010000   ; qtot 0.152656
  807         h1     28    PEO    H19    807 0.04043400   1.008000   ; qtot 0.193090
  808         h1     28    PEO    H20    808 0.04043400   1.008000   ; qtot 0.233524
  809         os     28    PEO     O4    809 -0.42067400  16.000000   ; qtot -0.187150
  810         c3     28    PEO    C10    810 0.13484800  12.010000   ; qtot -0.052302
  811         h1     28    PEO    H21    811 0.02617500   1.008000   ; qtot -0.026127
  812         h1     28    PEO    H22    812 0.02617500   1.008000   ; qtot 0.000048
; residue   29 PEO rtp PEO q 0.0
  813         c3     29    PEO     C1    813 0.13484800  12.010000   ; qtot 0.134896
  814         h1     29    PEO     H3    814 0.02617500   1.008000   ; qtot 0.161071
  815         h1     29    PEO     H4    815 0.02617500   1.008000   ; qtot 0.187246
  816         os     29    PEO      O    816 -0.42067400  16.000000   ; qtot -0.233428
  817         c3     29    PEO     C2    817 0.12975600  12.010000   ; qtot -0.103672
  818         h1     29    PEO     H5    818 0.04043400   1.008000   ; qtot -0.063238
  819         h1     29    PEO     H6    819 0.04043400   1.008000   ; qtot -0.022804
  820         c3     29    PEO     C3    820 0.13281100  12.010000   ; qtot 0.110007
  821         h1     29    PEO     H7    821 0.04349000   1.008000   ; qtot 0.153497
  822         h1     29    PEO     H8    822 0.04349000   1.008000   ; qtot 0.196987
  823         os     29    PEO     O1    823 -0.42263700  16.000000   ; qtot -0.225650
  824         c3     29    PEO     C4    824 0.13281100  12.010000   ; qtot -0.092839
  825         h1     29    PEO     H9    825 0.04349000   1.008000   ; qtot -0.049349
  826         h1     29    PEO    H10    826 0.04349000   1.008000   ; qtot -0.005859
  827         c3     29    PEO     C5    827 0.13179300  12.010000   ; qtot 0.125934
  828         h1     29    PEO    H11    828 0.04247100   1.008000   ; qtot 0.168405
  829         h1     29    PEO    H12    829 0.04247100   1.008000   ; qtot 0.210876
  830         os     29    PEO     O2    830 -0.42165600  16.000000   ; qtot -0.210780
  831         c3     29    PEO     C6    831 0.13179300  12.010000   ; qtot -0.078987
  832         h1     29    PEO    H13    832 0.04247100   1.008000   ; qtot -0.036516
  833         h1     29    PEO    H14    833 0.04247100   1.008000   ; qtot 0.005955
  834         c3     29    PEO     C7    834 0.13281100  12.010000   ; qtot 0.138766
  835         h1     29    PEO    H15    835 0.04349000   1.008000   ; qtot 0.182256
  836         h1     29    PEO    H16    836 0.04349000   1.008000   ; qtot 0.225746
  837         os     29    PEO     O3    837 -0.42263700  16.000000   ; qtot -0.196891
  838         c3     29    PEO     C8    838 0.13281100  12.010000   ; qtot -0.064080
  839         h1     29    PEO    H17    839 0.04349000   1.008000   ; qtot -0.020590
  840         h1     29    PEO    H18    840 0.04349000   1.008000   ; qtot 0.022900
  841         c3     29    PEO     C9    841 0.12975600  12.010000   ; qtot 0.152656
  842         h1     29    PEO    H19    842 0.04043400   1.008000   ; qtot 0.193090
  843         h1     29    PEO    H20    843 0.04043400   1.008000   ; qtot 0.233524
  844         os     29    PEO     O4    844 -0.42067400  16.000000   ; qtot -0.187150
  845         c3     29    PEO    C10    845 0.13484800  12.010000   ; qtot -0.052302
  846         h1     29    PEO    H21    846 0.02617500   1.008000   ; qtot -0.026127
  847         h1     29    PEO    H22    847 0.02617500   1.008000   ; qtot 0.000048
; residue   30 PET rtp PET q 0.0
  848         c3     30    PET     C9    848 0.12984200  12.010000   ; qtot 0.129890
  849         h1     30    PET     H6    849 0.05392300   1.008000   ; qtot 0.183813
  850         h1     30    PET     H7    850 0.05392300   1.008000   ; qtot 0.237736
  851         os     30    PET     O2    851 -0.43055400  16.000000   ; qtot -0.192818
  852          c     30    PET     C8    852 0.65144800  12.010000   ; qtot 0.458630
  853          o     30    PET     O1    853 -0.52602500  16.000000   ; qtot -0.067395
  854         ca     30    PET     C4    854 -0.10087900  12.010000   ; qtot -0.168274
  855         ca     30    PET     C5    855 -0.08898200  12.010000   ; qtot -0.257256
  856         ca     30    PET     C6    856 -0.08898200  12.010000   ; qtot -0.346238
  857         ha     30    PET     H4    857 0.16624300   1.008000   ; qtot -0.179995
  858         ha     30    PET     H3    858 0.16573400   1.008000   ; qtot -0.014261
  859         ca     30    PET     C3    859 -0.08898200  12.010000   ; qtot -0.103243
  860         ha     30    PET     H2    860 0.16573400   1.008000   ; qtot 0.062491
  861         ca     30    PET     C2    861 -0.08898200  12.010000   ; qtot -0.026491
  862         ha     30    PET     H1    862 0.16624300   1.008000   ; qtot 0.139752
  863         ca     30    PET     C1    863 -0.10087900  12.010000   ; qtot 0.038873
  864          c     30    PET     C7    864 0.65348100  12.010000   ; qtot 0.692354
  865          o     30    PET     O3    865 -0.52897500  16.000000   ; qtot 0.163379
  866         os     30    PET     O4    866 -0.43055400  16.000000   ; qtot -0.267175
  867         c3     30    PET    C10    867 0.14275500  12.010000   ; qtot -0.124420
  868         h1     30    PET     H8    868 0.06629400   1.008000   ; qtot -0.058126
  869         h1     30    PET     H9    869 0.06629400   1.008000   ; qtot 0.008168
  870         c3     30    PET    C11    870 -0.10854800  12.010000   ; qtot -0.100380
  871         hc     30    PET    H10    871 0.05866800   1.008000   ; qtot -0.041712
  872         hc     30    PET    H11    872 0.05866800   1.008000   ; qtot 0.016956
  873         c3     30    PET    C12    873 -0.09153800  12.010000   ; qtot -0.074582
  874         hc     30    PET    H13    874 0.03731600   1.008000   ; qtot -0.037266
  875         hc     30    PET    H14    875 0.03731600   1.008000   ; qtot 0.000050

[ bonds ]
;    ai     aj funct         c0         c1         c2         c3
     26     29     1   0.15354 191535.152000
     23     26     1   0.15354 191535.152000
     20     23     1   0.15354 191535.152000
     19     20     1   0.14273 236203.536000
     17     18     1   0.12190 494214.080000
     17     19     1   0.13621 293976.208000
     16     17     1   0.14907 219944.512000
     14     16     1   0.13986 296436.400000
     12     14     1   0.13986 296436.400000
      9     16     1   0.13986 296436.400000
      8      9     1   0.13986 296436.400000
      7      8     1   0.13986 296436.400000
      7     12     1   0.13986 296436.400000
      5      6     1   0.12190 494214.080000
      5      7     1   0.14907 219944.512000
      4      5     1   0.13621 293976.208000
      1      4     1   0.14273 236203.536000
     54     57     1   0.15354 191535.152000
     51     54     1   0.15354 191535.152000
     48     51     1   0.15354 191535.152000
     47     48     1   0.14273 236203.536000
     45     46     1   0.12190 494214.080000
     45     47     1   0.13621 293976.208000
     44     45     1   0.14907 219944.512000
     42     44     1   0.13986 296436.400000
     40     42     1   0.13986 296436.400000
     37     44     1   0.13986 296436.400000
     36     37     1   0.13986 296436.400000
     35     36     1   0.13986 296436.400000
     35     40     1   0.13986 296436.400000
     33     34     1   0.12190 494214.080000
     33     35     1   0.14907 219944.512000
     32     33     1   0.13621 293976.208000
     29     32     1   0.14273 236203.536000
     82     85     1   0.15354 191535.152000
     79     82     1   0.15354 191535.152000
     76     79     1   0.15354 191535.152000
     75     76     1   0.14273 236203.536000
     73     74     1   0.12190 494214.080000
     73     75     1   0.13621 293976.208000
     72     73     1   0.14907 219944.512000
     70     72     1   0.13986 296436.400000
     68     70     1   0.13986 296436.400000
     65     72     1   0.13986 296436.400000
     64     65     1   0.13986 296436.400000
     63     64     1   0.13986 296436.400000
     63     68     1   0.13986 296436.400000
     61     62     1   0.12190 494214.080000
     61     63     1   0.14907 219944.512000
     60     61     1   0.13621 293976.208000
     57     60     1   0.14273 236203.536000
    110    113     1   0.15354 191535.152000
    107    110     1   0.15354 191535.152000
    104    107     1   0.15354 191535.152000
    103    104     1   0.14273 236203.536000
    101    102     1   0.12190 494214.080000
    101    103     1   0.13621 293976.208000
    100    101     1   0.14907 219944.512000
     98    100     1   0.13986 296436.400000
     96     98     1   0.13986 296436.400000
     93    100     1   0.13986 296436.400000
     92     93     1   0.13986 296436.400000
     91     92     1   0.13986 296436.400000
     91     96     1   0.13986 296436.400000
     89     90     1   0.12190 494214.080000
     89     91     1   0.14907 219944.512000
     88     89     1   0.13621 293976.208000
     85     88     1   0.14273 236203.536000
    138    141     1   0.15354 191535.152000
    135    138     1   0.15354 191535.152000
    132    135     1   0.15354 191535.152000
    131    132     1   0.14273 236203.536000
    129    130     1   0.12190 494214.080000
    129    131     1   0.13621 293976.208000
    128    129     1   0.14907 219944.512000
    126    128     1   0.13986 296436.400000
    124    126     1   0.13986 296436.400000
    121    128     1   0.13986 296436.400000
    120    121     1   0.13986 296436.400000
    119    120     1   0.13986 296436.400000
    119    124     1   0.13986 296436.400000
    117    118     1   0.12190 494214.080000
    117    119     1   0.14907 219944.512000
    116    117     1   0.13621 293976.208000
    113    116     1   0.14273 236203.536000
    166    169     1   0.15354 191535.152000
    163    166     1   0.15354 191535.152000
    160    163     1   0.15354 191535.152000
    159    160     1   0.14273 236203.536000
    157    158     1   0.12190 494214.080000
    157    159     1   0.13621 293976.208000
    156    157     1   0.14907 219944.512000
    154    156     1   0.13986 296436.400000
    152    154     1   0.13986 296436.400000
    149    156     1   0.13986 296436.400000
    148    149     1   0.13986 296436.400000
    147    148     1   0.13986 296436.400000
    147    152     1   0.13986 296436.400000
    145    146     1   0.12190 494214.080000
    145    147     1   0.14907 219944.512000
    144    145     1   0.13621 293976.208000
    141    144     1   0.14273 236203.536000
    201    204     1   0.15354 191535.152000
    200    201     1   0.14273 236203.536000
    197    200     1   0.14273 236203.536000
    194    197     1   0.15354 191535.152000
    193    194     1   0.14273 236203.536000
    190    193     1   0.14273 236203.536000
    187    190     1   0.15354 191535.152000
    186    187     1   0.14273 236203.536000
    183    186     1   0.14273 236203.536000
    180    183     1   0.15354 191535.152000
    179    180     1   0.14273 236203.536000
    176    179     1   0.14273 236203.536000
    173    176     1   0.15354 191535.152000
    172    173     1   0.14273 236203.536000
    169    172     1   0.14273 236203.536000
    229    232     1   0.15354 191535.152000
    226    229     1   0.15354 191535.152000
    223    226     1   0.15354 191535.152000
    222    223     1   0.14273 236203.536000
    220    221     1   0.12190 494214.080000
    220    222     1   0.13621 293976.208000
    219    220     1   0.14907 219944.512000
    217    219     1   0.13986 296436.400000
    215    217     1   0.13986 296436.400000
    212    219     1   0.13986 296436.400000
    211    212     1   0.13986 296436.400000
    210    211     1   0.13986 296436.400000
    210    215     1   0.13986 296436.400000
    208    209     1   0.12190 494214.080000
    208    210     1   0.14907 219944.512000
    207    208     1   0.13621 293976.208000
    204    207     1   0.14273 236203.536000
    257    260     1   0.15354 191535.152000
    254    257     1   0.15354 191535.152000
    251    254     1   0.15354 191535.152000
    250    251     1   0.14273 236203.536000
    248    249     1   0.12190 494214.080000
    248    250     1   0.13621 293976.208000
    247    248     1   0.14907 219944.512000
    245    247     1   0.13986 296436.400000
    243    245     1   0.13986 296436.400000
    240    247     1   0.13986 296436.400000
    239    240     1   0.13986 296436.400000
    238    239     1   0.13986 296436.400000
    238    243     1   0.13986 296436.400000
    236    237     1   0.12190 494214.080000
    236    238     1   0.14907 219944.512000
    235    236     1   0.13621 293976.208000
    232    235     1   0.14273 236203.536000
    285    288     1   0.15354 191535.152000
    282    285     1   0.15354 191535.152000
    279    282     1   0.15354 191535.152000
    278    279     1   0.14273 236203.536000
    276    277     1   0.12190 494214.080000
    276    278     1   0.13621 293976.208000
    275    276     1   0.14907 219944.512000
    273    275     1   0.13986 296436.400000
    271    273     1   0.13986 296436.400000
    268    275     1   0.13986 296436.400000
    267    268     1   0.13986 296436.400000
    266    267     1   0.13986 296436.400000
    266    271     1   0.13986 296436.400000
    264    265     1   0.12190 494214.080000
    264    266     1   0.14907 219944.512000
    263    264     1   0.13621 293976.208000
    260    263     1   0.14273 236203.536000
    313    316     1   0.15354 191535.152000
    310    313     1   0.15354 191535.152000
    307    310     1   0.15354 191535.152000
    306    307     1   0.14273 236203.536000
    304    305     1   0.12190 494214.080000
    304    306     1   0.13621 293976.208000
    303    304     1   0.14907 219944.512000
    301    303     1   0.13986 296436.400000
    299    301     1   0.13986 296436.400000
    296    303     1   0.13986 296436.400000
    295    296     1   0.13986 296436.400000
    294    295     1   0.13986 296436.400000
    294    299     1   0.13986 296436.400000
    292    293     1   0.12190 494214.080000
    292    294     1   0.14907 219944.512000
    291    292     1   0.13621 293976.208000
    288    291     1   0.14273 236203.536000
    341    344     1   0.15354 191535.152000
    338    341     1   0.15354 191535.152000
    335    338     1   0.15354 191535.152000
    334    335     1   0.14273 236203.536000
    332    333     1   0.12190 494214.080000
    332    334     1   0.13621 293976.208000
    331    332     1   0.14907 219944.512000
    329    331     1   0.13986 296436.400000
    327    329     1   0.13986 296436.400000
    324    331     1   0.13986 296436.400000
    323    324     1   0.13986 296436.400000
    322    323     1   0.13986 296436.400000
    322    327     1   0.13986 296436.400000
    320    321     1   0.12190 494214.080000
    320    322     1   0.14907 219944.512000
    319    320     1   0.13621 293976.208000
    316    319     1   0.14273 236203.536000
    369    372     1   0.15354 191535.152000
    366    369     1   0.15354 191535.152000
    363    366     1   0.15354 191535.152000
    362    363     1   0.14273 236203.536000
    360    361     1   0.12190 494214.080000
    360    362     1   0.13621 293976.208000
    359    360     1   0.14907 219944.512000
    357    359     1   0.13986 296436.400000
    355    357     1   0.13986 296436.400000
    352    359     1   0.13986 296436.400000
    351    352     1   0.13986 296436.400000
    350    351     1   0.13986 296436.400000
    350    355     1   0.13986 296436.400000
    348    349     1   0.12190 494214.080000
    348    350     1   0.14907 219944.512000
    347    348     1   0.13621 293976.208000
    344    347     1   0.14273 236203.536000
    397    400     1   0.15354 191535.152000
    394    397     1   0.15354 191535.152000
    391    394     1   0.15354 191535.152000
    390    391     1   0.14273 236203.536000
    388    389     1   0.12190 494214.080000
    388    390     1   0.13621 293976.208000
    387    388     1   0.14907 219944.512000
    385    387     1   0.13986 296436.400000
    383    385     1   0.13986 296436.400000
    380    387     1   0.13986 296436.400000
    379    380     1   0.13986 296436.400000
    378    379     1   0.13986 296436.400000
    378    383     1   0.13986 296436.400000
    376    377     1   0.12190 494214.080000
    376    378     1   0.14907 219944.512000
    375    376     1   0.13621 293976.208000
    372    375     1   0.14273 236203.536000
    425    428     1   0.15354 191535.152000
    422    425     1   0.15354 191535.152000
    419    422     1   0.15354 191535.152000
    418    419     1   0.14273 236203.536000
    416    417     1   0.12190 494214.080000
    416    418     1   0.13621 293976.208000
    415    416     1   0.14907 219944.512000
    413    415     1   0.13986 296436.400000
    411    413     1   0.13986 296436.400000
    408    415     1   0.13986 296436.400000
    407    408     1   0.13986 296436.400000
    406    407     1   0.13986 296436.400000
    406    411     1   0.13986 296436.400000
    404    405     1   0.12190 494214.080000
    404    406     1   0.14907 219944.512000
    403    404     1   0.13621 293976.208000
    400    403     1   0.14273 236203.536000
    453    456     1   0.15354 191535.152000
    450    453     1   0.15354 191535.152000
    447    450     1   0.15354 191535.152000
    446    447     1   0.14273 236203.536000
    444    445     1   0.12190 494214.080000
    444    446     1   0.13621 293976.208000
    443    444     1   0.14907 219944.512000
    441    443     1   0.13986 296436.400000
    439    441     1   0.13986 296436.400000
    436    443     1   0.13986 296436.400000
    435    436     1   0.13986 296436.400000
    434    435     1   0.13986 296436.400000
    434    439     1   0.13986 296436.400000
    432    433     1   0.12190 494214.080000
    432    434     1   0.14907 219944.512000
    431    432     1   0.13621 293976.208000
    428    431     1   0.14273 236203.536000
    488    491     1   0.15354 191535.152000
    487    488     1   0.14273 236203.536000
    484    487     1   0.14273 236203.536000
    481    484     1   0.15354 191535.152000
    480    481     1   0.14273 236203.536000
    477    480     1   0.14273 236203.536000
    474    477     1   0.15354 191535.152000
    473    474     1   0.14273 236203.536000
    470    473     1   0.14273 236203.536000
    467    470     1   0.15354 191535.152000
    466    467     1   0.14273 236203.536000
    463    466     1   0.14273 236203.536000
    460    463     1   0.15354 191535.152000
    459    460     1   0.14273 236203.536000
    456    459     1   0.14273 236203.536000
    516    519     1   0.15354 191535.152000
    513    516     1   0.15354 191535.152000
    510    513     1   0.15354 191535.152000
    509    510     1   0.14273 236203.536000
    507    508     1   0.12190 494214.080000
    507    509     1   0.13621 293976.208000
    506    507     1   0.14907 219944.512000
    504    506     1   0.13986 296436.400000
    502    504     1   0.13986 296436.400000
    499    506     1   0.13986 296436.400000
    498    499     1   0.13986 296436.400000
    497    498     1   0.13986 296436.400000
    497    502     1   0.13986 296436.400000
    495    496     1   0.12190 494214.080000
    495    497     1   0.14907 219944.512000
    494    495     1   0.13621 293976.208000
    491    494     1   0.14273 236203.536000
    544    547     1   0.15354 191535.152000
    541    544     1   0.15354 191535.152000
    538    541     1   0.15354 191535.152000
    537    538     1   0.14273 236203.536000
    535    536     1   0.12190 494214.080000
    535    537     1   0.13621 293976.208000
    534    535     1   0.14907 219944.512000
    532    534     1   0.13986 296436.400000
    530    532     1   0.13986 296436.400000
    527    534     1   0.13986 296436.400000
    526    527     1   0.13986 296436.400000
    525    526     1   0.13986 296436.400000
    525    530     1   0.13986 296436.400000
    523    524     1   0.12190 494214.080000
    523    525     1   0.14907 219944.512000
    522    523     1   0.13621 293976.208000
    519    522     1   0.14273 236203.536000
    572    575     1   0.15354 191535.152000
    569    572     1   0.15354 191535.152000
    566    569     1   0.15354 191535.152000
    565    566     1   0.14273 236203.536000
    563    564     1   0.12190 494214.080000
    563    565     1   0.13621 293976.208000
    562    563     1   0.14907 219944.512000
    560    562     1   0.13986 296436.400000
    558    560     1   0.13986 296436.400000
    555    562     1   0.13986 296436.400000
    554    555     1   0.13986 296436.400000
    553    554     1   0.13986 296436.400000
    553    558     1   0.13986 296436.400000
    551    552     1   0.12190 494214.080000
    551    553     1   0.14907 219944.512000
    550    551     1   0.13621 293976.208000
    547    550     1   0.14273 236203.536000
    600    603     1   0.15354 191535.152000
    597    600     1   0.15354 191535.152000
    594    597     1   0.15354 191535.152000
    593    594     1   0.14273 236203.536000
    591    592     1   0.12190 494214.080000
    591    593     1   0.13621 293976.208000
    590    591     1   0.14907 219944.512000
    588    590     1   0.13986 296436.400000
    586    588     1   0.13986 296436.400000
    583    590     1   0.13986 296436.400000
    582    583     1   0.13986 296436.400000
    581    582     1   0.13986 296436.400000
    581    586     1   0.13986 296436.400000
    579    580     1   0.12190 494214.080000
    579    581     1   0.14907 219944.512000
    578    579     1   0.13621 293976.208000
    575    578     1   0.14273 236203.536000
    628    631     1   0.15354 191535.152000
    625    628     1   0.15354 191535.152000
    622    625     1   0.15354 191535.152000
    621    622     1   0.14273 236203.536000
    619    620     1   0.12190 494214.080000
    619    621     1   0.13621 293976.208000
    618    619     1   0.14907 219944.512000
    616    618     1   0.13986 296436.400000
    614    616     1   0.13986 296436.400000
    611    618     1   0.13986 296436.400000
    610    611     1   0.13986 296436.400000
    609    610     1   0.13986 296436.400000
    609    614     1   0.13986 296436.400000
    607    608     1   0.12190 494214.080000
    607    609     1   0.14907 219944.512000
    606    607     1   0.13621 293976.208000
    603    606     1   0.14273 236203.536000
    663    666     1   0.15354 191535.152000
    662    663     1   0.14273 236203.536000
    659    662     1   0.14273 236203.536000
    656    659     1   0.15354 191535.152000
    655    656     1   0.14273 236203.536000
    652    655     1   0.14273 236203.536000
    649    652     1   0.15354 191535.152000
    648    649     1   0.14273 236203.536000
    645    648     1   0.14273 236203.536000
    642    645     1   0.15354 191535.152000
    641    642     1   0.14273 236203.536000
    638    641     1   0.14273 236203.536000
    635    638     1   0.15354 191535.152000
    634    635     1   0.14273 236203.536000
    631    634     1   0.14273 236203.536000
    691    694     1   0.15354 191535.152000
    688    691     1   0.15354 191535.152000
    685    688     1   0.15354 191535.152000
    684    685     1   0.14273 236203.536000
    682    683     1   0.12190 494214.080000
    682    684     1   0.13621 293976.208000
    681    682     1   0.14907 219944.512000
    679    681     1   0.13986 296436.400000
    677    679     1   0.13986 296436.400000
    674    681     1   0.13986 296436.400000
    673    674     1   0.13986 296436.400000
    672    673     1   0.13986 296436.400000
    672    677     1   0.13986 296436.400000
    670    671     1   0.12190 494214.080000
    670    672     1   0.14907 219944.512000
    669    670     1   0.13621 293976.208000
    666    669     1   0.14273 236203.536000
    719    722     1   0.15354 191535.152000
    716    719     1   0.15354 191535.152000
    713    716     1   0.15354 191535.152000
    712    713     1   0.14273 236203.536000
    710    711     1   0.12190 494214.080000
    710    712     1   0.13621 293976.208000
    709    710     1   0.14907 219944.512000
    707    709     1   0.13986 296436.400000
    705    707     1   0.13986 296436.400000
    702    709     1   0.13986 296436.400000
    701    702     1   0.13986 296436.400000
    700    701     1   0.13986 296436.400000
    700    705     1   0.13986 296436.400000
    698    699     1   0.12190 494214.080000
    698    700     1   0.14907 219944.512000
    697    698     1   0.13621 293976.208000
    694    697     1   0.14273 236203.536000
    747    750     1   0.15354 191535.152000
    744    747     1   0.15354 191535.152000
    741    744     1   0.15354 191535.152000
    740    741     1   0.14273 236203.536000
    738    739     1   0.12190 494214.080000
    738    740     1   0.13621 293976.208000
    737    738     1   0.14907 219944.512000
    735    737     1   0.13986 296436.400000
    733    735     1   0.13986 296436.400000
    730    737     1   0.13986 296436.400000
    729    730     1   0.13986 296436.400000
    728    729     1   0.13986 296436.400000
    728    733     1   0.13986 296436.400000
    726    727     1   0.12190 494214.080000
    726    728     1   0.14907 219944.512000
    725    726     1   0.13621 293976.208000
    722    725     1   0.14273 236203.536000
    775    778     1   0.15354 191535.152000
    772    775     1   0.15354 191535.152000
    769    772     1   0.15354 191535.152000
    768    769     1   0.14273 236203.536000
    766    767     1   0.12190 494214.080000
    766    768     1   0.13621 293976.208000
    765    766     1   0.14907 219944.512000
    763    765     1   0.13986 296436.400000
    761    763     1   0.13986 296436.400000
    758    765     1   0.13986 296436.400000
    757    758     1   0.13986 296436.400000
    756    757     1   0.13986 296436.400000
    756    761     1   0.13986 296436.400000
    754    755     1   0.12190 494214.080000
    754    756     1   0.14907 219944.512000
    753    754     1   0.13621 293976.208000
    750    753     1   0.14273 236203.536000
    810    813     1   0.15354 191535.152000
    809    810     1   0.14273 236203.536000
    806    809     1   0.14273 236203.536000
    803    806     1   0.15354 191535.152000
    802    803     1   0.14273 236203.536000
    799    802     1   0.14273 236203.536000
    796    799     1   0.15354 191535.152000
    795    796     1   0.14273 236203.536000
    792    795     1   0.14273 236203.536000
    789    792     1   0.15354 191535.152000
    788    789     1   0.14273 236203.536000
    785    788     1   0.14273 236203.536000
    782    785     1   0.15354 191535.152000
    781    782     1   0.14273 236203.536000
    778    781     1   0.14273 236203.536000
    845    848     1   0.15354 191535.152000
    844    845     1   0.14273 236203.536000
    841    844     1   0.14273 236203.536000
    838    841     1   0.15354 191535.152000
    837    838     1   0.14273 236203.536000
    834    837     1   0.14273 236203.536000
    831    834     1   0.15354 191535.152000
    830    831     1   0.14273 236203.536000
    827    830     1   0.14273 236203.536000
    824    827     1   0.15354 191535.152000
    823    824     1   0.14273 236203.536000
    820    823     1   0.14273 236203.536000
    817    820     1   0.15354 191535.152000
    816    817     1   0.14273 236203.536000
    813    816     1   0.14273 236203.536000
    870    873     1   0.15354 191535.152000
    867    870     1   0.15354 191535.152000
    866    867     1   0.14273 236203.536000
    864    865     1   0.12190 494214.080000
    864    866     1   0.13621 293976.208000
    863    864     1   0.14907 219944.512000
    861    863     1   0.13986 296436.400000
    859    861     1   0.13986 296436.400000
    856    863     1   0.13986 296436.400000
    855    856     1   0.13986 296436.400000
    854    855     1   0.13986 296436.400000
    854    859     1   0.13986 296436.400000
    852    853     1   0.12190 494214.080000
    852    854     1   0.14907 219944.512000
    851    852     1   0.13621 293976.208000
    848    851     1   0.14273 236203.536000
     26     27     1   0.10962 288905.200000
     26     28     1   0.10962 288905.200000
     23     24     1   0.10962 288905.200000
     23     25     1   0.10962 288905.200000
     20     21     1   0.10969 288043.296000
     20     22     1   0.10969 288043.296000
     14     15     1   0.10860 301825.392000
     12     13     1   0.10860 301825.392000
      9     10     1   0.10860 301825.392000
      8     11     1   0.10860 301825.392000
      1      2     1   0.10969 288043.296000
      1      3     1   0.10969 288043.296000
     54     55     1   0.10962 288905.200000
     54     56     1   0.10962 288905.200000
     51     52     1   0.10962 288905.200000
     51     53     1   0.10962 288905.200000
     48     49     1   0.10969 288043.296000
     48     50     1   0.10969 288043.296000
     42     43     1   0.10860 301825.392000
     40     41     1   0.10860 301825.392000
     37     38     1   0.10860 301825.392000
     36     39     1   0.10860 301825.392000
     29     30     1   0.10969 288043.296000
     29     31     1   0.10969 288043.296000
     82     83     1   0.10962 288905.200000
     82     84     1   0.10962 288905.200000
     79     80     1   0.10962 288905.200000
     79     81     1   0.10962 288905.200000
     76     77     1   0.10969 288043.296000
     76     78     1   0.10969 288043.296000
     70     71     1   0.10860 301825.392000
     68     69     1   0.10860 301825.392000
     65     66     1   0.10860 301825.392000
     64     67     1   0.10860 301825.392000
     57     58     1   0.10969 288043.296000
     57     59     1   0.10969 288043.296000
    110    111     1   0.10962 288905.200000
    110    112     1   0.10962 288905.200000
    107    108     1   0.10962 288905.200000
    107    109     1   0.10962 288905.200000
    104    105     1   0.10969 288043.296000
    104    106     1   0.10969 288043.296000
     98     99     1   0.10860 301825.392000
     96     97     1   0.10860 301825.392000
     93     94     1   0.10860 301825.392000
     92     95     1   0.10860 301825.392000
     85     86     1   0.10969 288043.296000
     85     87     1   0.10969 288043.296000
    138    139     1   0.10962 288905.200000
    138    140     1   0.10962 288905.200000
    135    136     1   0.10962 288905.200000
    135    137     1   0.10962 288905.200000
    132    133     1   0.10969 288043.296000
    132    134     1   0.10969 288043.296000
    126    127     1   0.10860 301825.392000
    124    125     1   0.10860 301825.392000
    121    122     1   0.10860 301825.392000
    120    123     1   0.10860 301825.392000
    113    114     1   0.10969 288043.296000
    113    115     1   0.10969 288043.296000
    166    167     1   0.10962 288905.200000
    166    168     1   0.10962 288905.200000
    163    164     1   0.10962 288905.200000
    163    165     1   0.10962 288905.200000
    160    161     1   0.10969 288043.296000
    160    162     1   0.10969 288043.296000
    154    155     1   0.10860 301825.392000
    152    153     1   0.10860 301825.392000
    149    150     1   0.10860 301825.392000
    148    151     1   0.10860 301825.392000
    141    142     1   0.10969 288043.296000
    141    143     1   0.10969 288043.296000
    201    202     1   0.10969 288043.296000
    201    203     1   0.10969 288043.296000
    197    198     1   0.10969 288043.296000
    197    199     1   0.10969 288043.296000
    194    195     1   0.10969 288043.296000
    194    196     1   0.10969 288043.296000
    190    191     1   0.10969 288043.296000
    190    192     1   0.10969 288043.296000
    187    188     1   0.10969 288043.296000
    187    189     1   0.10969 288043.296000
    183    184     1   0.10969 288043.296000
    183    185     1   0.10969 288043.296000
    180    181     1   0.10969 288043.296000
    180    182     1   0.10969 288043.296000
    176    177     1   0.10969 288043.296000
    176    178     1   0.10969 288043.296000
    173    174     1   0.10969 288043.296000
    173    175     1   0.10969 288043.296000
    169    170     1   0.10969 288043.296000
    169    171     1   0.10969 288043.296000
    229    230     1   0.10962 288905.200000
    229    231     1   0.10962 288905.200000
    226    227     1   0.10962 288905.200000
    226    228     1   0.10962 288905.200000
    223    224     1   0.10969 288043.296000
    223    225     1   0.10969 288043.296000
    217    218     1   0.10860 301825.392000
    215    216     1   0.10860 301825.392000
    212    213     1   0.10860 301825.392000
    211    214     1   0.10860 301825.392000
    204    205     1   0.10969 288043.296000
    204    206     1   0.10969 288043.296000
    257    258     1   0.10962 288905.200000
    257    259     1   0.10962 288905.200000
    254    255     1   0.10962 288905.200000
    254    256     1   0.10962 288905.200000
    251    252     1   0.10969 288043.296000
    251    253     1   0.10969 288043.296000
    245    246     1   0.10860 301825.392000
    243    244     1   0.10860 301825.392000
    240    241     1   0.10860 301825.392000
    239    242     1   0.10860 301825.392000
    232    233     1   0.10969 288043.296000
    232    234     1   0.10969 288043.296000
    285    286     1   0.10962 288905.200000
    285    287     1   0.10962 288905.200000
    282    283     1   0.10962 288905.200000
    282    284     1   0.10962 288905.200000
    279    280     1   0.10969 288043.296000
    279    281     1   0.10969 288043.296000
    273    274     1   0.10860 301825.392000
    271    272     1   0.10860 301825.392000
    268    269     1   0.10860 301825.392000
    267    270     1   0.10860 301825.392000
    260    261     1   0.10969 288043.296000
    260    262     1   0.10969 288043.296000
    313    314     1   0.10962 288905.200000
    313    315     1   0.10962 288905.200000
    310    311     1   0.10962 288905.200000
    310    312     1   0.10962 288905.200000
    307    308     1   0.10969 288043.296000
    307    309     1   0.10969 288043.296000
    301    302     1   0.10860 301825.392000
    299    300     1   0.10860 301825.392000
    296    297     1   0.10860 301825.392000
    295    298     1   0.10860 301825.392000
    288    289     1   0.10969 288043.296000
    288    290     1   0.10969 288043.296000
    341    342     1   0.10962 288905.200000
    341    343     1   0.10962 288905.200000
    338    339     1   0.10962 288905.200000
    338    340     1   0.10962 288905.200000
    335    336     1   0.10969 288043.296000
    335    337     1   0.10969 288043.296000
    329    330     1   0.10860 301825.392000
    327    328     1   0.10860 301825.392000
    324    325     1   0.10860 301825.392000
    323    326     1   0.10860 301825.392000
    316    317     1   0.10969 288043.296000
    316    318     1   0.10969 288043.296000
    369    370     1   0.10962 288905.200000
    369    371     1   0.10962 288905.200000
    366    367     1   0.10962 288905.200000
    366    368     1   0.10962 288905.200000
    363    364     1   0.10969 288043.296000
    363    365     1   0.10969 288043.296000
    357    358     1   0.10860 301825.392000
    355    356     1   0.10860 301825.392000
    352    353     1   0.10860 301825.392000
    351    354     1   0.10860 301825.392000
    344    345     1   0.10969 288043.296000
    344    346     1   0.10969 288043.296000
    397    398     1   0.10962 288905.200000
    397    399     1   0.10962 288905.200000
    394    395     1   0.10962 288905.200000
    394    396     1   0.10962 288905.200000
    391    392     1   0.10969 288043.296000
    391    393     1   0.10969 288043.296000
    385    386     1   0.10860 301825.392000
    383    384     1   0.10860 301825.392000
    380    381     1   0.10860 301825.392000
    379    382     1   0.10860 301825.392000
    372    373     1   0.10969 288043.296000
    372    374     1   0.10969 288043.296000
    425    426     1   0.10962 288905.200000
    425    427     1   0.10962 288905.200000
    422    423     1   0.10962 288905.200000
    422    424     1   0.10962 288905.200000
    419    420     1   0.10969 288043.296000
    419    421     1   0.10969 288043.296000
    413    414     1   0.10860 301825.392000
    411    412     1   0.10860 301825.392000
    408    409     1   0.10860 301825.392000
    407    410     1   0.10860 301825.392000
    400    401     1   0.10969 288043.296000
    400    402     1   0.10969 288043.296000
    453    454     1   0.10962 288905.200000
    453    455     1   0.10962 288905.200000
    450    451     1   0.10962 288905.200000
    450    452     1   0.10962 288905.200000
    447    448     1   0.10969 288043.296000
    447    449     1   0.10969 288043.296000
    441    442     1   0.10860 301825.392000
    439    440     1   0.10860 301825.392000
    436    437     1   0.10860 301825.392000
    435    438     1   0.10860 301825.392000
    428    429     1   0.10969 288043.296000
    428    430     1   0.10969 288043.296000
    488    489     1   0.10969 288043.296000
    488    490     1   0.10969 288043.296000
    484    485     1   0.10969 288043.296000
    484    486     1   0.10969 288043.296000
    481    482     1   0.10969 288043.296000
    481    483     1   0.10969 288043.296000
    477    478     1   0.10969 288043.296000
    477    479     1   0.10969 288043.296000
    474    475     1   0.10969 288043.296000
    474    476     1   0.10969 288043.296000
    470    471     1   0.10969 288043.296000
    470    472     1   0.10969 288043.296000
    467    468     1   0.10969 288043.296000
    467    469     1   0.10969 288043.296000
    463    464     1   0.10969 288043.296000
    463    465     1   0.10969 288043.296000
    460    461     1   0.10969 288043.296000
    460    462     1   0.10969 288043.296000
    456    457     1   0.10969 288043.296000
    456    458     1   0.10969 288043.296000
    516    517     1   0.10962 288905.200000
    516    518     1   0.10962 288905.200000
    513    514     1   0.10962 288905.200000
    513    515     1   0.10962 288905.200000
    510    511     1   0.10969 288043.296000
    510    512     1   0.10969 288043.296000
    504    505     1   0.10860 301825.392000
    502    503     1   0.10860 301825.392000
    499    500     1   0.10860 301825.392000
    498    501     1   0.10860 301825.392000
    491    492     1   0.10969 288043.296000
    491    493     1   0.10969 288043.296000
    544    545     1   0.10962 288905.200000
    544    546     1   0.10962 288905.200000
    541    542     1   0.10962 288905.200000
    541    543     1   0.10962 288905.200000
    538    539     1   0.10969 288043.296000
    538    540     1   0.10969 288043.296000
    532    533     1   0.10860 301825.392000
    530    531     1   0.10860 301825.392000
    527    528     1   0.10860 301825.392000
    526    529     1   0.10860 301825.392000
    519    520     1   0.10969 288043.296000
    519    521     1   0.10969 288043.296000
    572    573     1   0.10962 288905.200000
    572    574     1   0.10962 288905.200000
    569    570     1   0.10962 288905.200000
    569    571     1   0.10962 288905.200000
    566    567     1   0.10969 288043.296000
    566    568     1   0.10969 288043.296000
    560    561     1   0.10860 301825.392000
    558    559     1   0.10860 301825.392000
    555    556     1   0.10860 301825.392000
    554    557     1   0.10860 301825.392000
    547    548     1   0.10969 288043.296000
    547    549     1   0.10969 288043.296000
    600    601     1   0.10962 288905.200000
    600    602     1   0.10962 288905.200000
    597    598     1   0.10962 288905.200000
    597    599     1   0.10962 288905.200000
    594    595     1   0.10969 288043.296000
    594    596     1   0.10969 288043.296000
    588    589     1   0.10860 301825.392000
    586    587     1   0.10860 301825.392000
    583    584     1   0.10860 301825.392000
    582    585     1   0.10860 301825.392000
    575    576     1   0.10969 288043.296000
    575    577     1   0.10969 288043.296000
    628    629     1   0.10962 288905.200000
    628    630     1   0.10962 288905.200000
    625    626     1   0.10962 288905.200000
    625    627     1   0.10962 288905.200000
    622    623     1   0.10969 288043.296000
    622    624     1   0.10969 288043.296000
    616    617     1   0.10860 301825.392000
    614    615     1   0.10860 301825.392000
    611    612     1   0.10860 301825.392000
    610    613     1   0.10860 301825.392000
    603    604     1   0.10969 288043.296000
    603    605     1   0.10969 288043.296000
    663    664     1   0.10969 288043.296000
    663    665     1   0.10969 288043.296000
    659    660     1   0.10969 288043.296000
    659    661     1   0.10969 288043.296000
    656    657     1   0.10969 288043.296000
    656    658     1   0.10969 288043.296000
    652    653     1   0.10969 288043.296000
    652    654     1   0.10969 288043.296000
    649    650     1   0.10969 288043.296000
    649    651     1   0.10969 288043.296000
    645    646     1   0.10969 288043.296000
    645    647     1   0.10969 288043.296000
    642    643     1   0.10969 288043.296000
    642    644     1   0.10969 288043.296000
    638    639     1   0.10969 288043.296000
    638    640     1   0.10969 288043.296000
    635    636     1   0.10969 288043.296000
    635    637     1   0.10969 288043.296000
    631    632     1   0.10969 288043.296000
    631    633     1   0.10969 288043.296000
    691    692     1   0.10962 288905.200000
    691    693     1   0.10962 288905.200000
    688    689     1   0.10962 288905.200000
    688    690     1   0.10962 288905.200000
    685    686     1   0.10969 288043.296000
    685    687     1   0.10969 288043.296000
    679    680     1   0.10860 301825.392000
    677    678     1   0.10860 301825.392000
    674    675     1   0.10860 301825.392000
    673    676     1   0.10860 301825.392000
    666    667     1   0.10969 288043.296000
    666    668     1   0.10969 288043.296000
    719    720     1   0.10962 288905.200000
    719    721     1   0.10962 288905.200000
    716    717     1   0.10962 288905.200000
    716    718     1   0.10962 288905.200000
    713    714     1   0.10969 288043.296000
    713    715     1   0.10969 288043.296000
    707    708     1   0.10860 301825.392000
    705    706     1   0.10860 301825.392000
    702    703     1   0.10860 301825.392000
    701    704     1   0.10860 301825.392000
    694    695     1   0.10969 288043.296000
    694    696     1   0.10969 288043.296000
    747    748     1   0.10962 288905.200000
    747    749     1   0.10962 288905.200000
    744    745     1   0.10962 288905.200000
    744    746     1   0.10962 288905.200000
    741    742     1   0.10969 288043.296000
    741    743     1   0.10969 288043.296000
    735    736     1   0.10860 301825.392000
    733    734     1   0.10860 301825.392000
    730    731     1   0.10860 301825.392000
    729    732     1   0.10860 301825.392000
    722    723     1   0.10969 288043.296000
    722    724     1   0.10969 288043.296000
    775    776     1   0.10962 288905.200000
    775    777     1   0.10962 288905.200000
    772    773     1   0.10962 288905.200000
    772    774     1   0.10962 288905.200000
    769    770     1   0.10969 288043.296000
    769    771     1   0.10969 288043.296000
    763    764     1   0.10860 301825.392000
    761    762     1   0.10860 301825.392000
    758    759     1   0.10860 301825.392000
    757    760     1   0.10860 301825.392000
    750    751     1   0.10969 288043.296000
    750    752     1   0.10969 288043.296000
    810    811     1   0.10969 288043.296000
    810    812     1   0.10969 288043.296000
    806    807     1   0.10969 288043.296000
    806    808     1   0.10969 288043.296000
    803    804     1   0.10969 288043.296000
    803    805     1   0.10969 288043.296000
    799    800     1   0.10969 288043.296000
    799    801     1   0.10969 288043.296000
    796    797     1   0.10969 288043.296000
    796    798     1   0.10969 288043.296000
    792    793     1   0.10969 288043.296000
    792    794     1   0.10969 288043.296000
    789    790     1   0.10969 288043.296000
    789    791     1   0.10969 288043.296000
    785    786     1   0.10969 288043.296000
    785    787     1   0.10969 288043.296000
    782    783     1   0.10969 288043.296000
    782    784     1   0.10969 288043.296000
    778    779     1   0.10969 288043.296000
    778    780     1   0.10969 288043.296000
    845    846     1   0.10969 288043.296000
    845    847     1   0.10969 288043.296000
    841    842     1   0.10969 288043.296000
    841    843     1   0.10969 288043.296000
    838    839     1   0.10969 288043.296000
    838    840     1   0.10969 288043.296000
    834    835     1   0.10969 288043.296000
    834    836     1   0.10969 288043.296000
    831    832     1   0.10969 288043.296000
    831    833     1   0.10969 288043.296000
    827    828     1   0.10969 288043.296000
    827    829     1   0.10969 288043.296000
    824    825     1   0.10969 288043.296000
    824    826     1   0.10969 288043.296000
    820    821     1   0.10969 288043.296000
    820    822     1   0.10969 288043.296000
    817    818     1   0.10969 288043.296000
    817    819     1   0.10969 288043.296000
    813    814     1   0.10969 288043.296000
    813    815     1   0.10969 288043.296000
    873    874     1   0.10962 288905.200000
    873    875     1   0.10962 288905.200000
    870    871     1   0.10962 288905.200000
    870    872     1   0.10962 288905.200000
    867    868     1   0.10969 288043.296000
    867    869     1   0.10969 288043.296000
    861    862     1   0.10860 301825.392000
    859    860     1   0.10860 301825.392000
    856    857     1   0.10860 301825.392000
    855    858     1   0.10860 301825.392000
    848    849     1   0.10969 288043.296000
    848    850     1   0.10969 288043.296000

[ pairs ]
;    ai     aj funct         c0         c1         c2         c3
     26     33     1
     23     32     1
     20     29     1
     19     26     1
     18     20     1
     17     23     1
     16     20     1
     14     18     1
     14     19     1
     12     17     1
      9     12     1
      9     18     1
      9     19     1
      8     14     1
      8     17     1
      7     16     1
      6      8     1
      6     12     1
      5      9     1
      5     14     1
      4      8     1
      4     12     1
      1      6     1
      1      7     1
     54     61     1
     51     60     1
     48     57     1
     47     54     1
     46     48     1
     45     51     1
     44     48     1
     42     46     1
     42     47     1
     40     45     1
     37     40     1
     37     46     1
     37     47     1
     36     42     1
     36     45     1
     35     44     1
     34     36     1
     34     40     1
     33     37     1
     33     42     1
     32     36     1
     32     40     1
     29     34     1
     29     35     1
     82     89     1
     79     88     1
     76     85     1
     75     82     1
     74     76     1
     73     79     1
     72     76     1
     70     74     1
     70     75     1
     68     73     1
     65     68     1
     65     74     1
     65     75     1
     64     70     1
     64     73     1
     63     72     1
     62     64     1
     62     68     1
     61     65     1
     61     70     1
     60     64     1
     60     68     1
     57     62     1
     57     63     1
    110    117     1
    107    116     1
    104    113     1
    103    110     1
    102    104     1
    101    107     1
    100    104     1
     98    102     1
     98    103     1
     96    101     1
     93     96     1
     93    102     1
     93    103     1
     92     98     1
     92    101     1
     91    100     1
     90     92     1
     90     96     1
     89     93     1
     89     98     1
     88     92     1
     88     96     1
     85     90     1
     85     91     1
    138    145     1
    135    144     1
    132    141     1
    131    138     1
    130    132     1
    129    135     1
    128    132     1
    126    130     1
    126    131     1
    124    129     1
    121    124     1
    121    130     1
    121    131     1
    120    126     1
    120    129     1
    119    128     1
    118    120     1
    118    124     1
    117    121     1
    117    126     1
    116    120     1
    116    124     1
    113    118     1
    113    119     1
    166    173     1
    163    172     1
    160    169     1
    159    166     1
    158    160     1
    157    163     1
    156    160     1
    154    158     1
    154    159     1
    152    157     1
    149    152     1
    149    158     1
    149    159     1
    148    154     1
    148    157     1
    147    156     1
    146    148     1
    146    152     1
    145    149     1
    145    154     1
    144    148     1
    144    152     1
    141    146     1
    141    147     1
    201    208     1
    200    207     1
    197    204     1
    194    201     1
    193    200     1
    190    197     1
    187    194     1
    186    193     1
    183    190     1
    180    187     1
    179    186     1
    176    183     1
    173    180     1
    172    179     1
    169    176     1
    229    236     1
    226    235     1
    223    232     1
    222    229     1
    221    223     1
    220    226     1
    219    223     1
    217    221     1
    217    222     1
    215    220     1
    212    215     1
    212    221     1
    212    222     1
    211    217     1
    211    220     1
    210    219     1
    209    211     1
    209    215     1
    208    212     1
    208    217     1
    207    211     1
    207    215     1
    204    209     1
    204    210     1
    257    264     1
    254    263     1
    251    260     1
    250    257     1
    249    251     1
    248    254     1
    247    251     1
    245    249     1
    245    250     1
    243    248     1
    240    243     1
    240    249     1
    240    250     1
    239    245     1
    239    248     1
    238    247     1
    237    239     1
    237    243     1
    236    240     1
    236    245     1
    235    239     1
    235    243     1
    232    237     1
    232    238     1
    285    292     1
    282    291     1
    279    288     1
    278    285     1
    277    279     1
    276    282     1
    275    279     1
    273    277     1
    273    278     1
    271    276     1
    268    271     1
    268    277     1
    268    278     1
    267    273     1
    267    276     1
    266    275     1
    265    267     1
    265    271     1
    264    268     1
    264    273     1
    263    267     1
    263    271     1
    260    265     1
    260    266     1
    313    320     1
    310    319     1
    307    316     1
    306    313     1
    305    307     1
    304    310     1
    303    307     1
    301    305     1
    301    306     1
    299    304     1
    296    299     1
    296    305     1
    296    306     1
    295    301     1
    295    304     1
    294    303     1
    293    295     1
    293    299     1
    292    296     1
    292    301     1
    291    295     1
    291    299     1
    288    293     1
    288    294     1
    341    348     1
    338    347     1
    335    344     1
    334    341     1
    333    335     1
    332    338     1
    331    335     1
    329    333     1
    329    334     1
    327    332     1
    324    327     1
    324    333     1
    324    334     1
    323    329     1
    323    332     1
    322    331     1
    321    323     1
    321    327     1
    320    324     1
    320    329     1
    319    323     1
    319    327     1
    316    321     1
    316    322     1
    369    376     1
    366    375     1
    363    372     1
    362    369     1
    361    363     1
    360    366     1
    359    363     1
    357    361     1
    357    362     1
    355    360     1
    352    355     1
    352    361     1
    352    362     1
    351    357     1
    351    360     1
    350    359     1
    349    351     1
    349    355     1
    348    352     1
    348    357     1
    347    351     1
    347    355     1
    344    349     1
    344    350     1
    397    404     1
    394    403     1
    391    400     1
    390    397     1
    389    391     1
    388    394     1
    387    391     1
    385    389     1
    385    390     1
    383    388     1
    380    383     1
    380    389     1
    380    390     1
    379    385     1
    379    388     1
    378    387     1
    377    379     1
    377    383     1
    376    380     1
    376    385     1
    375    379     1
    375    383     1
    372    377     1
    372    378     1
    425    432     1
    422    431     1
    419    428     1
    418    425     1
    417    419     1
    416    422     1
    415    419     1
    413    417     1
    413    418     1
    411    416     1
    408    411     1
    408    417     1
    408    418     1
    407    413     1
    407    416     1
    406    415     1
    405    407     1
    405    411     1
    404    408     1
    404    413     1
    403    407     1
    403    411     1
    400    405     1
    400    406     1
    453    460     1
    450    459     1
    447    456     1
    446    453     1
    445    447     1
    444    450     1
    443    447     1
    441    445     1
    441    446     1
    439    444     1
    436    439     1
    436    445     1
    436    446     1
    435    441     1
    435    444     1
    434    443     1
    433    435     1
    433    439     1
    432    436     1
    432    441     1
    431    435     1
    431    439     1
    428    433     1
    428    434     1
    488    495     1
    487    494     1
    484    491     1
    481    488     1
    480    487     1
    477    484     1
    474    481     1
    473    480     1
    470    477     1
    467    474     1
    466    473     1
    463    470     1
    460    467     1
    459    466     1
    456    463     1
    516    523     1
    513    522     1
    510    519     1
    509    516     1
    508    510     1
    507    513     1
    506    510     1
    504    508     1
    504    509     1
    502    507     1
    499    502     1
    499    508     1
    499    509     1
    498    504     1
    498    507     1
    497    506     1
    496    498     1
    496    502     1
    495    499     1
    495    504     1
    494    498     1
    494    502     1
    491    496     1
    491    497     1
    544    551     1
    541    550     1
    538    547     1
    537    544     1
    536    538     1
    535    541     1
    534    538     1
    532    536     1
    532    537     1
    530    535     1
    527    530     1
    527    536     1
    527    537     1
    526    532     1
    526    535     1
    525    534     1
    524    526     1
    524    530     1
    523    527     1
    523    532     1
    522    526     1
    522    530     1
    519    524     1
    519    525     1
    572    579     1
    569    578     1
    566    575     1
    565    572     1
    564    566     1
    563    569     1
    562    566     1
    560    564     1
    560    565     1
    558    563     1
    555    558     1
    555    564     1
    555    565     1
    554    560     1
    554    563     1
    553    562     1
    552    554     1
    552    558     1
    551    555     1
    551    560     1
    550    554     1
    550    558     1
    547    552     1
    547    553     1
    600    607     1
    597    606     1
    594    603     1
    593    600     1
    592    594     1
    591    597     1
    590    594     1
    588    592     1
    588    593     1
    586    591     1
    583    586     1
    583    592     1
    583    593     1
    582    588     1
    582    591     1
    581    590     1
    580    582     1
    580    586     1
    579    583     1
    579    588     1
    578    582     1
    578    586     1
    575    580     1
    575    581     1
    628    635     1
    625    634     1
    622    631     1
    621    628     1
    620    622     1
    619    625     1
    618    622     1
    616    620     1
    616    621     1
    614    619     1
    611    614     1
    611    620     1
    611    621     1
    610    616     1
    610    619     1
    609    618     1
    608    610     1
    608    614     1
    607    611     1
    607    616     1
    606    610     1
    606    614     1
    603    608     1
    603    609     1
    663    670     1
    662    669     1
    659    666     1
    656    663     1
    655    662     1
    652    659     1
    649    656     1
    648    655     1
    645    652     1
    642    649     1
    641    648     1
    638    645     1
    635    642     1
    634    641     1
    631    638     1
    691    698     1
    688    697     1
    685    694     1
    684    691     1
    683    685     1
    682    688     1
    681    685     1
    679    683     1
    679    684     1
    677    682     1
    674    677     1
    674    683     1
    674    684     1
    673    679     1
    673    682     1
    672    681     1
    671    673     1
    671    677     1
    670    674     1
    670    679     1
    669    673     1
    669    677     1
    666    671     1
    666    672     1
    719    726     1
    716    725     1
    713    722     1
    712    719     1
    711    713     1
    710    716     1
    709    713     1
    707    711     1
    707    712     1
    705    710     1
    702    705     1
    702    711     1
    702    712     1
    701    707     1
    701    710     1
    700    709     1
    699    701     1
    699    705     1
    698    702     1
    698    707     1
    697    701     1
    697    705     1
    694    699     1
    694    700     1
    747    754     1
    744    753     1
    741    750     1
    740    747     1
    739    741     1
    738    744     1
    737    741     1
    735    739     1
    735    740     1
    733    738     1
    730    733     1
    730    739     1
    730    740     1
    729    735     1
    729    738     1
    728    737     1
    727    729     1
    727    733     1
    726    730     1
    726    735     1
    725    729     1
    725    733     1
    722    727     1
    722    728     1
    775    782     1
    772    781     1
    769    778     1
    768    775     1
    767    769     1
    766    772     1
    765    769     1
    763    767     1
    763    768     1
    761    766     1
    758    761     1
    758    767     1
    758    768     1
    757    763     1
    757    766     1
    756    765     1
    755    757     1
    755    761     1
    754    758     1
    754    763     1
    753    757     1
    753    761     1
    750    755     1
    750    756     1
    810    817     1
    809    816     1
    806    813     1
    803    810     1
    802    809     1
    799    806     1
    796    803     1
    795    802     1
    792    799     1
    789    796     1
    788    795     1
    785    792     1
    782    789     1
    781    788     1
    778    785     1
    845    852     1
    844    851     1
    841    848     1
    838    845     1
    837    844     1
    834    841     1
    831    838     1
    830    837     1
    827    834     1
    824    831     1
    823    830     1
    820    827     1
    817    824     1
    816    823     1
    813    820     1
    866    873     1
    865    867     1
    864    870     1
    863    867     1
    861    865     1
    861    866     1
    859    864     1
    856    859     1
    856    865     1
    856    866     1
    855    861     1
    855    864     1
    854    863     1
    853    855     1
    853    859     1
    852    856     1
    852    861     1
    851    855     1
    851    859     1
    848    853     1
    848    854     1
     28     30     1
     28     31     1
     28     32     1
     27     30     1
     27     31     1
     27     32     1
     25     27     1
     25     28     1
     25     29     1
     24     27     1
     24     28     1
     24     29     1
     23     30     1
     23     31     1
     22     24     1
     22     25     1
     22     26     1
     21     24     1
     21     25     1
     21     26     1
     20     27     1
     20     28     1
     19     24     1
     19     25     1
     17     21     1
     17     22     1
     15     17     1
     13     15     1
     13     16     1
     11     12     1
     11     16     1
     10     11     1
     10     14     1
     10     17     1
      9     15     1
      8     13     1
      7     10     1
      7     15     1
      5     11     1
      5     13     1
      3      5     1
      2      5     1
     56     58     1
     56     59     1
     56     60     1
     55     58     1
     55     59     1
     55     60     1
     53     55     1
     53     56     1
     53     57     1
     52     55     1
     52     56     1
     52     57     1
     51     58     1
     51     59     1
     50     52     1
     50     53     1
     50     54     1
     49     52     1
     49     53     1
     49     54     1
     48     55     1
     48     56     1
     47     52     1
     47     53     1
     45     49     1
     45     50     1
     43     45     1
     41     43     1
     41     44     1
     39     40     1
     39     44     1
     38     39     1
     38     42     1
     38     45     1
     37     43     1
     36     41     1
     35     38     1
     35     43     1
     33     39     1
     33     41     1
     31     33     1
     30     33     1
     84     86     1
     84     87     1
     84     88     1
     83     86     1
     83     87     1
     83     88     1
     81     83     1
     81     84     1
     81     85     1
     80     83     1
     80     84     1
     80     85     1
     79     86     1
     79     87     1
     78     80     1
     78     81     1
     78     82     1
     77     80     1
     77     81     1
     77     82     1
     76     83     1
     76     84     1
     75     80     1
     75     81     1
     73     77     1
     73     78     1
     71     73     1
     69     71     1
     69     72     1
     67     68     1
     67     72     1
     66     67     1
     66     70     1
     66     73     1
     65     71     1
     64     69     1
     63     66     1
     63     71     1
     61     67     1
     61     69     1
     59     61     1
     58     61     1
    112    114     1
    112    115     1
    112    116     1
    111    114     1
    111    115     1
    111    116     1
    109    111     1
    109    112     1
    109    113     1
    108    111     1
    108    112     1
    108    113     1
    107    114     1
    107    115     1
    106    108     1
    106    109     1
    106    110     1
    105    108     1
    105    109     1
    105    110     1
    104    111     1
    104    112     1
    103    108     1
    103    109     1
    101    105     1
    101    106     1
     99    101     1
     97     99     1
     97    100     1
     95     96     1
     95    100     1
     94     95     1
     94     98     1
     94    101     1
     93     99     1
     92     97     1
     91     94     1
     91     99     1
     89     95     1
     89     97     1
     87     89     1
     86     89     1
    140    142     1
    140    143     1
    140    144     1
    139    142     1
    139    143     1
    139    144     1
    137    139     1
    137    140     1
    137    141     1
    136    139     1
    136    140     1
    136    141     1
    135    142     1
    135    143     1
    134    136     1
    134    137     1
    134    138     1
    133    136     1
    133    137     1
    133    138     1
    132    139     1
    132    140     1
    131    136     1
    131    137     1
    129    133     1
    129    134     1
    127    129     1
    125    127     1
    125    128     1
    123    124     1
    123    128     1
    122    123     1
    122    126     1
    122    129     1
    121    127     1
    120    125     1
    119    122     1
    119    127     1
    117    123     1
    117    125     1
    115    117     1
    114    117     1
    168    170     1
    168    171     1
    168    172     1
    167    170     1
    167    171     1
    167    172     1
    165    167     1
    165    168     1
    165    169     1
    164    167     1
    164    168     1
    164    169     1
    163    170     1
    163    171     1
    162    164     1
    162    165     1
    162    166     1
    161    164     1
    161    165     1
    161    166     1
    160    167     1
    160    168     1
    159    164     1
    159    165     1
    157    161     1
    157    162     1
    155    157     1
    153    155     1
    153    156     1
    151    152     1
    151    156     1
    150    151     1
    150    154     1
    150    157     1
    149    155     1
    148    153     1
    147    150     1
    147    155     1
    145    151     1
    145    153     1
    143    145     1
    142    145     1
    203    205     1
    203    206     1
    203    207     1
    202    205     1
    202    206     1
    202    207     1
    200    205     1
    200    206     1
    199    201     1
    198    201     1
    197    202     1
    197    203     1
    196    198     1
    196    199     1
    196    200     1
    195    198     1
    195    199     1
    195    200     1
    193    198     1
    193    199     1
    192    194     1
    191    194     1
    190    195     1
    190    196     1
    189    191     1
    189    192     1
    189    193     1
    188    191     1
    188    192     1
    188    193     1
    186    191     1
    186    192     1
    185    187     1
    184    187     1
    183    188     1
    183    189     1
    182    184     1
    182    185     1
    182    186     1
    181    184     1
    181    185     1
    181    186     1
    179    184     1
    179    185     1
    178    180     1
    177    180     1
    176    181     1
    176    182     1
    175    177     1
    175    178     1
    175    179     1
    174    177     1
    174    178     1
    174    179     1
    172    177     1
    172    178     1
    171    173     1
    170    173     1
    169    174     1
    169    175     1
    231    233     1
    231    234     1
    231    235     1
    230    233     1
    230    234     1
    230    235     1
    228    230     1
    228    231     1
    228    232     1
    227    230     1
    227    231     1
    227    232     1
    226    233     1
    226    234     1
    225    227     1
    225    228     1
    225    229     1
    224    227     1
    224    228     1
    224    229     1
    223    230     1
    223    231     1
    222    227     1
    222    228     1
    220    224     1
    220    225     1
    218    220     1
    216    218     1
    216    219     1
    214    215     1
    214    219     1
    213    214     1
    213    217     1
    213    220     1
    212    218     1
    211    216     1
    210    213     1
    210    218     1
    208    214     1
    208    216     1
    206    208     1
    205    208     1
    259    261     1
    259    262     1
    259    263     1
    258    261     1
    258    262     1
    258    263     1
    256    258     1
    256    259     1
    256    260     1
    255    258     1
    255    259     1
    255    260     1
    254    261     1
    254    262     1
    253    255     1
    253    256     1
    253    257     1
    252    255     1
    252    256     1
    252    257     1
    251    258     1
    251    259     1
    250    255     1
    250    256     1
    248    252     1
    248    253     1
    246    248     1
    244    246     1
    244    247     1
    242    243     1
    242    247     1
    241    242     1
    241    245     1
    241    248     1
    240    246     1
    239    244     1
    238    241     1
    238    246     1
    236    242     1
    236    244     1
    234    236     1
    233    236     1
    287    289     1
    287    290     1
    287    291     1
    286    289     1
    286    290     1
    286    291     1
    284    286     1
    284    287     1
    284    288     1
    283    286     1
    283    287     1
    283    288     1
    282    289     1
    282    290     1
    281    283     1
    281    284     1
    281    285     1
    280    283     1
    280    284     1
    280    285     1
    279    286     1
    279    287     1
    278    283     1
    278    284     1
    276    280     1
    276    281     1
    274    276     1
    272    274     1
    272    275     1
    270    271     1
    270    275     1
    269    270     1
    269    273     1
    269    276     1
    268    274     1
    267    272     1
    266    269     1
    266    274     1
    264    270     1
    264    272     1
    262    264     1
    261    264     1
    315    317     1
    315    318     1
    315    319     1
    314    317     1
    314    318     1
    314    319     1
    312    314     1
    312    315     1
    312    316     1
    311    314     1
    311    315     1
    311    316     1
    310    317     1
    310    318     1
    309    311     1
    309    312     1
    309    313     1
    308    311     1
    308    312     1
    308    313     1
    307    314     1
    307    315     1
    306    311     1
    306    312     1
    304    308     1
    304    309     1
    302    304     1
    300    302     1
    300    303     1
    298    299     1
    298    303     1
    297    298     1
    297    301     1
    297    304     1
    296    302     1
    295    300     1
    294    297     1
    294    302     1
    292    298     1
    292    300     1
    290    292     1
    289    292     1
    343    345     1
    343    346     1
    343    347     1
    342    345     1
    342    346     1
    342    347     1
    340    342     1
    340    343     1
    340    344     1
    339    342     1
    339    343     1
    339    344     1
    338    345     1
    338    346     1
    337    339     1
    337    340     1
    337    341     1
    336    339     1
    336    340     1
    336    341     1
    335    342     1
    335    343     1
    334    339     1
    334    340     1
    332    336     1
    332    337     1
    330    332     1
    328    330     1
    328    331     1
    326    327     1
    326    331     1
    325    326     1
    325    329     1
    325    332     1
    324    330     1
    323    328     1
    322    325     1
    322    330     1
    320    326     1
    320    328     1
    318    320     1
    317    320     1
    371    373     1
    371    374     1
    371    375     1
    370    373     1
    370    374     1
    370    375     1
    368    370     1
    368    371     1
    368    372     1
    367    370     1
    367    371     1
    367    372     1
    366    373     1
    366    374     1
    365    367     1
    365    368     1
    365    369     1
    364    367     1
    364    368     1
    364    369     1
    363    370     1
    363    371     1
    362    367     1
    362    368     1
    360    364     1
    360    365     1
    358    360     1
    356    358     1
    356    359     1
    354    355     1
    354    359     1
    353    354     1
    353    357     1
    353    360     1
    352    358     1
    351    356     1
    350    353     1
    350    358     1
    348    354     1
    348    356     1
    346    348     1
    345    348     1
    399    401     1
    399    402     1
    399    403     1
    398    401     1
    398    402     1
    398    403     1
    396    398     1
    396    399     1
    396    400     1
    395    398     1
    395    399     1
    395    400     1
    394    401     1
    394    402     1
    393    395     1
    393    396     1
    393    397     1
    392    395     1
    392    396     1
    392    397     1
    391    398     1
    391    399     1
    390    395     1
    390    396     1
    388    392     1
    388    393     1
    386    388     1
    384    386     1
    384    387     1
    382    383     1
    382    387     1
    381    382     1
    381    385     1
    381    388     1
    380    386     1
    379    384     1
    378    381     1
    378    386     1
    376    382     1
    376    384     1
    374    376     1
    373    376     1
    427    429     1
    427    430     1
    427    431     1
    426    429     1
    426    430     1
    426    431     1
    424    426     1
    424    427     1
    424    428     1
    423    426     1
    423    427     1
    423    428     1
    422    429     1
    422    430     1
    421    423     1
    421    424     1
    421    425     1
    420    423     1
    420    424     1
    420    425     1
    419    426     1
    419    427     1
    418    423     1
    418    424     1
    416    420     1
    416    421     1
    414    416     1
    412    414     1
    412    415     1
    410    411     1
    410    415     1
    409    410     1
    409    413     1
    409    416     1
    408    414     1
    407    412     1
    406    409     1
    406    414     1
    404    410     1
    404    412     1
    402    404     1
    401    404     1
    455    457     1
    455    458     1
    455    459     1
    454    457     1
    454    458     1
    454    459     1
    452    454     1
    452    455     1
    452    456     1
    451    454     1
    451    455     1
    451    456     1
    450    457     1
    450    458     1
    449    451     1
    449    452     1
    449    453     1
    448    451     1
    448    452     1
    448    453     1
    447    454     1
    447    455     1
    446    451     1
    446    452     1
    444    448     1
    444    449     1
    442    444     1
    440    442     1
    440    443     1
    438    439     1
    438    443     1
    437    438     1
    437    441     1
    437    444     1
    436    442     1
    435    440     1
    434    437     1
    434    442     1
    432    438     1
    432    440     1
    430    432     1
    429    432     1
    490    492     1
    490    493     1
    490    494     1
    489    492     1
    489    493     1
    489    494     1
    487    492     1
    487    493     1
    486    488     1
    485    488     1
    484    489     1
    484    490     1
    483    485     1
    483    486     1
    483    487     1
    482    485     1
    482    486     1
    482    487     1
    480    485     1
    480    486     1
    479    481     1
    478    481     1
    477    482     1
    477    483     1
    476    478     1
    476    479     1
    476    480     1
    475    478     1
    475    479     1
    475    480     1
    473    478     1
    473    479     1
    472    474     1
    471    474     1
    470    475     1
    470    476     1
    469    471     1
    469    472     1
    469    473     1
    468    471     1
    468    472     1
    468    473     1
    466    471     1
    466    472     1
    465    467     1
    464    467     1
    463    468     1
    463    469     1
    462    464     1
    462    465     1
    462    466     1
    461    464     1
    461    465     1
    461    466     1
    459    464     1
    459    465     1
    458    460     1
    457    460     1
    456    461     1
    456    462     1
    518    520     1
    518    521     1
    518    522     1
    517    520     1
    517    521     1
    517    522     1
    515    517     1
    515    518     1
    515    519     1
    514    517     1
    514    518     1
    514    519     1
    513    520     1
    513    521     1
    512    514     1
    512    515     1
    512    516     1
    511    514     1
    511    515     1
    511    516     1
    510    517     1
    510    518     1
    509    514     1
    509    515     1
    507    511     1
    507    512     1
    505    507     1
    503    505     1
    503    506     1
    501    502     1
    501    506     1
    500    501     1
    500    504     1
    500    507     1
    499    505     1
    498    503     1
    497    500     1
    497    505     1
    495    501     1
    495    503     1
    493    495     1
    492    495     1
    546    548     1
    546    549     1
    546    550     1
    545    548     1
    545    549     1
    545    550     1
    543    545     1
    543    546     1
    543    547     1
    542    545     1
    542    546     1
    542    547     1
    541    548     1
    541    549     1
    540    542     1
    540    543     1
    540    544     1
    539    542     1
    539    543     1
    539    544     1
    538    545     1
    538    546     1
    537    542     1
    537    543     1
    535    539     1
    535    540     1
    533    535     1
    531    533     1
    531    534     1
    529    530     1
    529    534     1
    528    529     1
    528    532     1
    528    535     1
    527    533     1
    526    531     1
    525    528     1
    525    533     1
    523    529     1
    523    531     1
    521    523     1
    520    523     1
    574    576     1
    574    577     1
    574    578     1
    573    576     1
    573    577     1
    573    578     1
    571    573     1
    571    574     1
    571    575     1
    570    573     1
    570    574     1
    570    575     1
    569    576     1
    569    577     1
    568    570     1
    568    571     1
    568    572     1
    567    570     1
    567    571     1
    567    572     1
    566    573     1
    566    574     1
    565    570     1
    565    571     1
    563    567     1
    563    568     1
    561    563     1
    559    561     1
    559    562     1
    557    558     1
    557    562     1
    556    557     1
    556    560     1
    556    563     1
    555    561     1
    554    559     1
    553    556     1
    553    561     1
    551    557     1
    551    559     1
    549    551     1
    548    551     1
    602    604     1
    602    605     1
    602    606     1
    601    604     1
    601    605     1
    601    606     1
    599    601     1
    599    602     1
    599    603     1
    598    601     1
    598    602     1
    598    603     1
    597    604     1
    597    605     1
    596    598     1
    596    599     1
    596    600     1
    595    598     1
    595    599     1
    595    600     1
    594    601     1
    594    602     1
    593    598     1
    593    599     1
    591    595     1
    591    596     1
    589    591     1
    587    589     1
    587    590     1
    585    586     1
    585    590     1
    584    585     1
    584    588     1
    584    591     1
    583    589     1
    582    587     1
    581    584     1
    581    589     1
    579    585     1
    579    587     1
    577    579     1
    576    579     1
    630    632     1
    630    633     1
    630    634     1
    629    632     1
    629    633     1
    629    634     1
    627    629     1
    627    630     1
    627    631     1
    626    629     1
    626    630     1
    626    631     1
    625    632     1
    625    633     1
    624    626     1
    624    627     1
    624    628     1
    623    626     1
    623    627     1
    623    628     1
    622    629     1
    622    630     1
    621    626     1
    621    627     1
    619    623     1
    619    624     1
    617    619     1
    615    617     1
    615    618     1
    613    614     1
    613    618     1
    612    613     1
    612    616     1
    612    619     1
    611    617     1
    610    615     1
    609    612     1
    609    617     1
    607    613     1
    607    615     1
    605    607     1
    604    607     1
    665    667     1
    665    668     1
    665    669     1
    664    667     1
    664    668     1
    664    669     1
    662    667     1
    662    668     1
    661    663     1
    660    663     1
    659    664     1
    659    665     1
    658    660     1
    658    661     1
    658    662     1
    657    660     1
    657    661     1
    657    662     1
    655    660     1
    655    661     1
    654    656     1
    653    656     1
    652    657     1
    652    658     1
    651    653     1
    651    654     1
    651    655     1
    650    653     1
    650    654     1
    650    655     1
    648    653     1
    648    654     1
    647    649     1
    646    649     1
    645    650     1
    645    651     1
    644    646     1
    644    647     1
    644    648     1
    643    646     1
    643    647     1
    643    648     1
    641    646     1
    641    647     1
    640    642     1
    639    642     1
    638    643     1
    638    644     1
    637    639     1
    637    640     1
    637    641     1
    636    639     1
    636    640     1
    636    641     1
    634    639     1
    634    640     1
    633    635     1
    632    635     1
    631    636     1
    631    637     1
    693    695     1
    693    696     1
    693    697     1
    692    695     1
    692    696     1
    692    697     1
    690    692     1
    690    693     1
    690    694     1
    689    692     1
    689    693     1
    689    694     1
    688    695     1
    688    696     1
    687    689     1
    687    690     1
    687    691     1
    686    689     1
    686    690     1
    686    691     1
    685    692     1
    685    693     1
    684    689     1
    684    690     1
    682    686     1
    682    687     1
    680    682     1
    678    680     1
    678    681     1
    676    677     1
    676    681     1
    675    676     1
    675    679     1
    675    682     1
    674    680     1
    673    678     1
    672    675     1
    672    680     1
    670    676     1
    670    678     1
    668    670     1
    667    670     1
    721    723     1
    721    724     1
    721    725     1
    720    723     1
    720    724     1
    720    725     1
    718    720     1
    718    721     1
    718    722     1
    717    720     1
    717    721     1
    717    722     1
    716    723     1
    716    724     1
    715    717     1
    715    718     1
    715    719     1
    714    717     1
    714    718     1
    714    719     1
    713    720     1
    713    721     1
    712    717     1
    712    718     1
    710    714     1
    710    715     1
    708    710     1
    706    708     1
    706    709     1
    704    705     1
    704    709     1
    703    704     1
    703    707     1
    703    710     1
    702    708     1
    701    706     1
    700    703     1
    700    708     1
    698    704     1
    698    706     1
    696    698     1
    695    698     1
    749    751     1
    749    752     1
    749    753     1
    748    751     1
    748    752     1
    748    753     1
    746    748     1
    746    749     1
    746    750     1
    745    748     1
    745    749     1
    745    750     1
    744    751     1
    744    752     1
    743    745     1
    743    746     1
    743    747     1
    742    745     1
    742    746     1
    742    747     1
    741    748     1
    741    749     1
    740    745     1
    740    746     1
    738    742     1
    738    743     1
    736    738     1
    734    736     1
    734    737     1
    732    733     1
    732    737     1
    731    732     1
    731    735     1
    731    738     1
    730    736     1
    729    734     1
    728    731     1
    728    736     1
    726    732     1
    726    734     1
    724    726     1
    723    726     1
    777    779     1
    777    780     1
    777    781     1
    776    779     1
    776    780     1
    776    781     1
    774    776     1
    774    777     1
    774    778     1
    773    776     1
    773    777     1
    773    778     1
    772    779     1
    772    780     1
    771    773     1
    771    774     1
    771    775     1
    770    773     1
    770    774     1
    770    775     1
    769    776     1
    769    777     1
    768    773     1
    768    774     1
    766    770     1
    766    771     1
    764    766     1
    762    764     1
    762    765     1
    760    761     1
    760    765     1
    759    760     1
    759    763     1
    759    766     1
    758    764     1
    757    762     1
    756    759     1
    756    764     1
    754    760     1
    754    762     1
    752    754     1
    751    754     1
    812    814     1
    812    815     1
    812    816     1
    811    814     1
    811    815     1
    811    816     1
    809    814     1
    809    815     1
    808    810     1
    807    810     1
    806    811     1
    806    812     1
    805    807     1
    805    808     1
    805    809     1
    804    807     1
    804    808     1
    804    809     1
    802    807     1
    802    808     1
    801    803     1
    800    803     1
    799    804     1
    799    805     1
    798    800     1
    798    801     1
    798    802     1
    797    800     1
    797    801     1
    797    802     1
    795    800     1
    795    801     1
    794    796     1
    793    796     1
    792    797     1
    792    798     1
    791    793     1
    791    794     1
    791    795     1
    790    793     1
    790    794     1
    790    795     1
    788    793     1
    788    794     1
    787    789     1
    786    789     1
    785    790     1
    785    791     1
    784    786     1
    784    787     1
    784    788     1
    783    786     1
    783    787     1
    783    788     1
    781    786     1
    781    787     1
    780    782     1
    779    782     1
    778    783     1
    778    784     1
    847    849     1
    847    850     1
    847    851     1
    846    849     1
    846    850     1
    846    851     1
    844    849     1
    844    850     1
    843    845     1
    842    845     1
    841    846     1
    841    847     1
    840    842     1
    840    843     1
    840    844     1
    839    842     1
    839    843     1
    839    844     1
    837    842     1
    837    843     1
    836    838     1
    835    838     1
    834    839     1
    834    840     1
    833    835     1
    833    836     1
    833    837     1
    832    835     1
    832    836     1
    832    837     1
    830    835     1
    830    836     1
    829    831     1
    828    831     1
    827    832     1
    827    833     1
    826    828     1
    826    829     1
    826    830     1
    825    828     1
    825    829     1
    825    830     1
    823    828     1
    823    829     1
    822    824     1
    821    824     1
    820    825     1
    820    826     1
    819    821     1
    819    822     1
    819    823     1
    818    821     1
    818    822     1
    818    823     1
    816    821     1
    816    822     1
    815    817     1
    814    817     1
    813    818     1
    813    819     1
    872    874     1
    872    875     1
    871    874     1
    871    875     1
    869    871     1
    869    872     1
    869    873     1
    868    871     1
    868    872     1
    868    873     1
    867    874     1
    867    875     1
    866    871     1
    866    872     1
    864    868     1
    864    869     1
    862    864     1
    860    862     1
    860    863     1
    858    859     1
    858    863     1
    857    858     1
    857    861     1
    857    864     1
    856    862     1
    855    860     1
    854    857     1
    854    862     1
    852    858     1
    852    860     1
    850    852     1
    849    852     1

[ angles ]
;    ai     aj     ak funct         c0         c1         c2         c3
     26     29     32     1   107.6200464 648.017920
     23     26     29     1   112.6300483 500.992160
     20     23     26     1   112.6300483 500.992160
     19     20     23     1   107.6200464 648.017920
     18     17     19     1   123.2000528 847.343680
     17     19     20     1   115.8200499 748.350240
     16     17     18     1   122.6000525 652.369280
     16     17     19     1   112.4100480 657.557440
     14     16     17     1   120.3300516 514.129920
     12     14     16     1   120.0200517 532.790560
      9     16     14     1   120.0200517 532.790560
      9     16     17     1   120.3300516 514.129920
      8      7     12     1   120.0200517 532.790560
      8      9     16     1   120.0200517 532.790560
      7      8      9     1   120.0200517 532.790560
      7     12     14     1   120.0200517 532.790560
      6      5      7     1   122.6000525 652.369280
      5      7      8     1   120.3300516 514.129920
      5      7     12     1   120.3300516 514.129920
      4      5      6     1   123.2000528 847.343680
      4      5      7     1   112.4100480 657.557440
      1      4      5     1   115.8200499 748.350240
     54     57     60     1   107.6200464 648.017920
     51     54     57     1   112.6300483 500.992160
     48     51     54     1   112.6300483 500.992160
     47     48     51     1   107.6200464 648.017920
     46     45     47     1   123.2000528 847.343680
     45     47     48     1   115.8200499 748.350240
     44     45     46     1   122.6000525 652.369280
     44     45     47     1   112.4100480 657.557440
     42     44     45     1   120.3300516 514.129920
     40     42     44     1   120.0200517 532.790560
     37     44     42     1   120.0200517 532.790560
     37     44     45     1   120.3300516 514.129920
     36     35     40     1   120.0200517 532.790560
     36     37     44     1   120.0200517 532.790560
     35     36     37     1   120.0200517 532.790560
     35     40     42     1   120.0200517 532.790560
     34     33     35     1   122.6000525 652.369280
     33     35     36     1   120.3300516 514.129920
     33     35     40     1   120.3300516 514.129920
     32     33     34     1   123.2000528 847.343680
     32     33     35     1   112.4100480 657.557440
     29     32     33     1   115.8200499 748.350240
     82     85     88     1   107.6200464 648.017920
     79     82     85     1   112.6300483 500.992160
     76     79     82     1   112.6300483 500.992160
     75     76     79     1   107.6200464 648.017920
     74     73     75     1   123.2000528 847.343680
     73     75     76     1   115.8200499 748.350240
     72     73     74     1   122.6000525 652.369280
     72     73     75     1   112.4100480 657.557440
     70     72     73     1   120.3300516 514.129920
     68     70     72     1   120.0200517 532.790560
     65     72     70     1   120.0200517 532.790560
     65     72     73     1   120.3300516 514.129920
     64     63     68     1   120.0200517 532.790560
     64     65     72     1   120.0200517 532.790560
     63     64     65     1   120.0200517 532.790560
     63     68     70     1   120.0200517 532.790560
     62     61     63     1   122.6000525 652.369280
     61     63     64     1   120.3300516 514.129920
     61     63     68     1   120.3300516 514.129920
     60     61     62     1   123.2000528 847.343680
     60     61     63     1   112.4100480 657.557440
     57     60     61     1   115.8200499 748.350240
    110    113    116     1   107.6200464 648.017920
    107    110    113     1   112.6300483 500.992160
    104    107    110     1   112.6300483 500.992160
    103    104    107     1   107.6200464 648.017920
    102    101    103     1   123.2000528 847.343680
    101    103    104     1   115.8200499 748.350240
    100    101    102     1   122.6000525 652.369280
    100    101    103     1   112.4100480 657.557440
     98    100    101     1   120.3300516 514.129920
     96     98    100     1   120.0200517 532.790560
     93    100     98     1   120.0200517 532.790560
     93    100    101     1   120.3300516 514.129920
     92     91     96     1   120.0200517 532.790560
     92     93    100     1   120.0200517 532.790560
     91     92     93     1   120.0200517 532.790560
     91     96     98     1   120.0200517 532.790560
     90     89     91     1   122.6000525 652.369280
     89     91     92     1   120.3300516 514.129920
     89     91     96     1   120.3300516 514.129920
     88     89     90     1   123.2000528 847.343680
     88     89     91     1   112.4100480 657.557440
     85     88     89     1   115.8200499 748.350240
    138    141    144     1   107.6200464 648.017920
    135    138    141     1   112.6300483 500.992160
    132    135    138     1   112.6300483 500.992160
    131    132    135     1   107.6200464 648.017920
    130    129    131     1   123.2000528 847.343680
    129    131    132     1   115.8200499 748.350240
    128    129    130     1   122.6000525 652.369280
    128    129    131     1   112.4100480 657.557440
    126    128    129     1   120.3300516 514.129920
    124    126    128     1   120.0200517 532.790560
    121    128    126     1   120.0200517 532.790560
    121    128    129     1   120.3300516 514.129920
    120    119    124     1   120.0200517 532.790560
    120    121    128     1   120.0200517 532.790560
    119    120    121     1   120.0200517 532.790560
    119    124    126     1   120.0200517 532.790560
    118    117    119     1   122.6000525 652.369280
    117    119    120     1   120.3300516 514.129920
    117    119    124     1   120.3300516 514.129920
    116    117    118     1   123.2000528 847.343680
    116    117    119     1   112.4100480 657.557440
    113    116    117     1   115.8200499 748.350240
    166    169    172     1   107.6200464 648.017920
    163    166    169     1   112.6300483 500.992160
    160    163    166     1   112.6300483 500.992160
    159    160    163     1   107.6200464 648.017920
    158    157    159     1   123.2000528 847.343680
    157    159    160     1   115.8200499 748.350240
    156    157    158     1   122.6000525 652.369280
    156    157    159     1   112.4100480 657.557440
    154    156    157     1   120.3300516 514.129920
    152    154    156     1   120.0200517 532.790560
    149    156    154     1   120.0200517 532.790560
    149    156    157     1   120.3300516 514.129920
    148    147    152     1   120.0200517 532.790560
    148    149    156     1   120.0200517 532.790560
    147    148    149     1   120.0200517 532.790560
    147    152    154     1   120.0200517 532.790560
    146    145    147     1   122.6000525 652.369280
    145    147    148     1   120.3300516 514.129920
    145    147    152     1   120.3300516 514.129920
    144    145    146     1   123.2000528 847.343680
    144    145    147     1   112.4100480 657.557440
    141    144    145     1   115.8200499 748.350240
    201    204    207     1   107.6200464 648.017920
    200    201    204     1   107.6200464 648.017920
    197    200    201     1   113.6000487 739.145440
    194    197    200     1   107.6200464 648.017920
    193    194    197     1   107.6200464 648.017920
    190    193    194     1   113.6000487 739.145440
    187    190    193     1   107.6200464 648.017920
    186    187    190     1   107.6200464 648.017920
    183    186    187     1   113.6000487 739.145440
    180    183    186     1   107.6200464 648.017920
    179    180    183     1   107.6200464 648.017920
    176    179    180     1   113.6000487 739.145440
    173    176    179     1   107.6200464 648.017920
    172    173    176     1   107.6200464 648.017920
    169    172    173     1   113.6000487 739.145440
    229    232    235     1   107.6200464 648.017920
    226    229    232     1   112.6300483 500.992160
    223    226    229     1   112.6300483 500.992160
    222    223    226     1   107.6200464 648.017920
    221    220    222     1   123.2000528 847.343680
    220    222    223     1   115.8200499 748.350240
    219    220    221     1   122.6000525 652.369280
    219    220    222     1   112.4100480 657.557440
    217    219    220     1   120.3300516 514.129920
    215    217    219     1   120.0200517 532.790560
    212    219    217     1   120.0200517 532.790560
    212    219    220     1   120.3300516 514.129920
    211    210    215     1   120.0200517 532.790560
    211    212    219     1   120.0200517 532.790560
    210    211    212     1   120.0200517 532.790560
    210    215    217     1   120.0200517 532.790560
    209    208    210     1   122.6000525 652.369280
    208    210    211     1   120.3300516 514.129920
    208    210    215     1   120.3300516 514.129920
    207    208    209     1   123.2000528 847.343680
    207    208    210     1   112.4100480 657.557440
    204    207    208     1   115.8200499 748.350240
    257    260    263     1   107.6200464 648.017920
    254    257    260     1   112.6300483 500.992160
    251    254    257     1   112.6300483 500.992160
    250    251    254     1   107.6200464 648.017920
    249    248    250     1   123.2000528 847.343680
    248    250    251     1   115.8200499 748.350240
    247    248    249     1   122.6000525 652.369280
    247    248    250     1   112.4100480 657.557440
    245    247    248     1   120.3300516 514.129920
    243    245    247     1   120.0200517 532.790560
    240    247    245     1   120.0200517 532.790560
    240    247    248     1   120.3300516 514.129920
    239    238    243     1   120.0200517 532.790560
    239    240    247     1   120.0200517 532.790560
    238    239    240     1   120.0200517 532.790560
    238    243    245     1   120.0200517 532.790560
    237    236    238     1   122.6000525 652.369280
    236    238    239     1   120.3300516 514.129920
    236    238    243     1   120.3300516 514.129920
    235    236    237     1   123.2000528 847.343680
    235    236    238     1   112.4100480 657.557440
    232    235    236     1   115.8200499 748.350240
    285    288    291     1   107.6200464 648.017920
    282    285    288     1   112.6300483 500.992160
    279    282    285     1   112.6300483 500.992160
    278    279    282     1   107.6200464 648.017920
    277    276    278     1   123.2000528 847.343680
    276    278    279     1   115.8200499 748.350240
    275    276    277     1   122.6000525 652.369280
    275    276    278     1   112.4100480 657.557440
    273    275    276     1   120.3300516 514.129920
    271    273    275     1   120.0200517 532.790560
    268    275    273     1   120.0200517 532.790560
    268    275    276     1   120.3300516 514.129920
    267    266    271     1   120.0200517 532.790560
    267    268    275     1   120.0200517 532.790560
    266    267    268     1   120.0200517 532.790560
    266    271    273     1   120.0200517 532.790560
    265    264    266     1   122.6000525 652.369280
    264    266    267     1   120.3300516 514.129920
    264    266    271     1   120.3300516 514.129920
    263    264    265     1   123.2000528 847.343680
    263    264    266     1   112.4100480 657.557440
    260    263    264     1   115.8200499 748.350240
    313    316    319     1   107.6200464 648.017920
    310    313    316     1   112.6300483 500.992160
    307    310    313     1   112.6300483 500.992160
    306    307    310     1   107.6200464 648.017920
    305    304    306     1   123.2000528 847.343680
    304    306    307     1   115.8200499 748.350240
    303    304    305     1   122.6000525 652.369280
    303    304    306     1   112.4100480 657.557440
    301    303    304     1   120.3300516 514.129920
    299    301    303     1   120.0200517 532.790560
    296    303    301     1   120.0200517 532.790560
    296    303    304     1   120.3300516 514.129920
    295    294    299     1   120.0200517 532.790560
    295    296    303     1   120.0200517 532.790560
    294    295    296     1   120.0200517 532.790560
    294    299    301     1   120.0200517 532.790560
    293    292    294     1   122.6000525 652.369280
    292    294    295     1   120.3300516 514.129920
    292    294    299     1   120.3300516 514.129920
    291    292    293     1   123.2000528 847.343680
    291    292    294     1   112.4100480 657.557440
    288    291    292     1   115.8200499 748.350240
    341    344    347     1   107.6200464 648.017920
    338    341    344     1   112.6300483 500.992160
    335    338    341     1   112.6300483 500.992160
    334    335    338     1   107.6200464 648.017920
    333    332    334     1   123.2000528 847.343680
    332    334    335     1   115.8200499 748.350240
    331    332    333     1   122.6000525 652.369280
    331    332    334     1   112.4100480 657.557440
    329    331    332     1   120.3300516 514.129920
    327    329    331     1   120.0200517 532.790560
    324    331    329     1   120.0200517 532.790560
    324    331    332     1   120.3300516 514.129920
    323    322    327     1   120.0200517 532.790560
    323    324    331     1   120.0200517 532.790560
    322    323    324     1   120.0200517 532.790560
    322    327    329     1   120.0200517 532.790560
    321    320    322     1   122.6000525 652.369280
    320    322    323     1   120.3300516 514.129920
    320    322    327     1   120.3300516 514.129920
    319    320    321     1   123.2000528 847.343680
    319    320    322     1   112.4100480 657.557440
    316    319    320     1   115.8200499 748.350240
    369    372    375     1   107.6200464 648.017920
    366    369    372     1   112.6300483 500.992160
    363    366    369     1   112.6300483 500.992160
    362    363    366     1   107.6200464 648.017920
    361    360    362     1   123.2000528 847.343680
    360    362    363     1   115.8200499 748.350240
    359    360    361     1   122.6000525 652.369280
    359    360    362     1   112.4100480 657.557440
    357    359    360     1   120.3300516 514.129920
    355    357    359     1   120.0200517 532.790560
    352    359    357     1   120.0200517 532.790560
    352    359    360     1   120.3300516 514.129920
    351    350    355     1   120.0200517 532.790560
    351    352    359     1   120.0200517 532.790560
    350    351    352     1   120.0200517 532.790560
    350    355    357     1   120.0200517 532.790560
    349    348    350     1   122.6000525 652.369280
    348    350    351     1   120.3300516 514.129920
    348    350    355     1   120.3300516 514.129920
    347    348    349     1   123.2000528 847.343680
    347    348    350     1   112.4100480 657.557440
    344    347    348     1   115.8200499 748.350240
    397    400    403     1   107.6200464 648.017920
    394    397    400     1   112.6300483 500.992160
    391    394    397     1   112.6300483 500.992160
    390    391    394     1   107.6200464 648.017920
    389    388    390     1   123.2000528 847.343680
    388    390    391     1   115.8200499 748.350240
    387    388    389     1   122.6000525 652.369280
    387    388    390     1   112.4100480 657.557440
    385    387    388     1   120.3300516 514.129920
    383    385    387     1   120.0200517 532.790560
    380    387    385     1   120.0200517 532.790560
    380    387    388     1   120.3300516 514.129920
    379    378    383     1   120.0200517 532.790560
    379    380    387     1   120.0200517 532.790560
    378    379    380     1   120.0200517 532.790560
    378    383    385     1   120.0200517 532.790560
    377    376    378     1   122.6000525 652.369280
    376    378    379     1   120.3300516 514.129920
    376    378    383     1   120.3300516 514.129920
    375    376    377     1   123.2000528 847.343680
    375    376    378     1   112.4100480 657.557440
    372    375    376     1   115.8200499 748.350240
    425    428    431     1   107.6200464 648.017920
    422    425    428     1   112.6300483 500.992160
    419    422    425     1   112.6300483 500.992160
    418    419    422     1   107.6200464 648.017920
    417    416    418     1   123.2000528 847.343680
    416    418    419     1   115.8200499 748.350240
    415    416    417     1   122.6000525 652.369280
    415    416    418     1   112.4100480 657.557440
    413    415    416     1   120.3300516 514.129920
    411    413    415     1   120.0200517 532.790560
    408    415    413     1   120.0200517 532.790560
    408    415    416     1   120.3300516 514.129920
    407    406    411     1   120.0200517 532.790560
    407    408    415     1   120.0200517 532.790560
    406    407    408     1   120.0200517 532.790560
    406    411    413     1   120.0200517 532.790560
    405    404    406     1   122.6000525 652.369280
    404    406    407     1   120.3300516 514.129920
    404    406    411     1   120.3300516 514.129920
    403    404    405     1   123.2000528 847.343680
    403    404    406     1   112.4100480 657.557440
    400    403    404     1   115.8200499 748.350240
    453    456    459     1   107.6200464 648.017920
    450    453    456     1   112.6300483 500.992160
    447    450    453     1   112.6300483 500.992160
    446    447    450     1   107.6200464 648.017920
    445    444    446     1   123.2000528 847.343680
    444    446    447     1   115.8200499 748.350240
    443    444    445     1   122.6000525 652.369280
    443    444    446     1   112.4100480 657.557440
    441    443    444     1   120.3300516 514.129920
    439    441    443     1   120.0200517 532.790560
    436    443    441     1   120.0200517 532.790560
    436    443    444     1   120.3300516 514.129920
    435    434    439     1   120.0200517 532.790560
    435    436    443     1   120.0200517 532.790560
    434    435    436     1   120.0200517 532.790560
    434    439    441     1   120.0200517 532.790560
    433    432    434     1   122.6000525 652.369280
    432    434    435     1   120.3300516 514.129920
    432    434    439     1   120.3300516 514.129920
    431    432    433     1   123.2000528 847.343680
    431    432    434     1   112.4100480 657.557440
    428    431    432     1   115.8200499 748.350240
    488    491    494     1   107.6200464 648.017920
    487    488    491     1   107.6200464 648.017920
    484    487    488     1   113.6000487 739.145440
    481    484    487     1   107.6200464 648.017920
    480    481    484     1   107.6200464 648.017920
    477    480    481     1   113.6000487 739.145440
    474    477    480     1   107.6200464 648.017920
    473    474    477     1   107.6200464 648.017920
    470    473    474     1   113.6000487 739.145440
    467    470    473     1   107.6200464 648.017920
    466    467    470     1   107.6200464 648.017920
    463    466    467     1   113.6000487 739.145440
    460    463    466     1   107.6200464 648.017920
    459    460    463     1   107.6200464 648.017920
    456    459    460     1   113.6000487 739.145440
    516    519    522     1   107.6200464 648.017920
    513    516    519     1   112.6300483 500.992160
    510    513    516     1   112.6300483 500.992160
    509    510    513     1   107.6200464 648.017920
    508    507    509     1   123.2000528 847.343680
    507    509    510     1   115.8200499 748.350240
    506    507    508     1   122.6000525 652.369280
    506    507    509     1   112.4100480 657.557440
    504    506    507     1   120.3300516 514.129920
    502    504    506     1   120.0200517 532.790560
    499    506    504     1   120.0200517 532.790560
    499    506    507     1   120.3300516 514.129920
    498    497    502     1   120.0200517 532.790560
    498    499    506     1   120.0200517 532.790560
    497    498    499     1   120.0200517 532.790560
    497    502    504     1   120.0200517 532.790560
    496    495    497     1   122.6000525 652.369280
    495    497    498     1   120.3300516 514.129920
    495    497    502     1   120.3300516 514.129920
    494    495    496     1   123.2000528 847.343680
    494    495    497     1   112.4100480 657.557440
    491    494    495     1   115.8200499 748.350240
    544    547    550     1   107.6200464 648.017920
    541    544    547     1   112.6300483 500.992160
    538    541    544     1   112.6300483 500.992160
    537    538    541     1   107.6200464 648.017920
    536    535    537     1   123.2000528 847.343680
    535    537    538     1   115.8200499 748.350240
    534    535    536     1   122.6000525 652.369280
    534    535    537     1   112.4100480 657.557440
    532    534    535     1   120.3300516 514.129920
    530    532    534     1   120.0200517 532.790560
    527    534    532     1   120.0200517 532.790560
    527    534    535     1   120.3300516 514.129920
    526    525    530     1   120.0200517 532.790560
    526    527    534     1   120.0200517 532.790560
    525    526    527     1   120.0200517 532.790560
    525    530    532     1   120.0200517 532.790560
    524    523    525     1   122.6000525 652.369280
    523    525    526     1   120.3300516 514.129920
    523    525    530     1   120.3300516 514.129920
    522    523    524     1   123.2000528 847.343680
    522    523    525     1   112.4100480 657.557440
    519    522    523     1   115.8200499 748.350240
    572    575    578     1   107.6200464 648.017920
    569    572    575     1   112.6300483 500.992160
    566    569    572     1   112.6300483 500.992160
    565    566    569     1   107.6200464 648.017920
    564    563    565     1   123.2000528 847.343680
    563    565    566     1   115.8200499 748.350240
    562    563    564     1   122.6000525 652.369280
    562    563    565     1   112.4100480 657.557440
    560    562    563     1   120.3300516 514.129920
    558    560    562     1   120.0200517 532.790560
    555    562    560     1   120.0200517 532.790560
    555    562    563     1   120.3300516 514.129920
    554    553    558     1   120.0200517 532.790560
    554    555    562     1   120.0200517 532.790560
    553    554    555     1   120.0200517 532.790560
    553    558    560     1   120.0200517 532.790560
    552    551    553     1   122.6000525 652.369280
    551    553    554     1   120.3300516 514.129920
    551    553    558     1   120.3300516 514.129920
    550    551    552     1   123.2000528 847.343680
    550    551    553     1   112.4100480 657.557440
    547    550    551     1   115.8200499 748.350240
    600    603    606     1   107.6200464 648.017920
    597    600    603     1   112.6300483 500.992160
    594    597    600     1   112.6300483 500.992160
    593    594    597     1   107.6200464 648.017920
    592    591    593     1   123.2000528 847.343680
    591    593    594     1   115.8200499 748.350240
    590    591    592     1   122.6000525 652.369280
    590    591    593     1   112.4100480 657.557440
    588    590    591     1   120.3300516 514.129920
    586    588    590     1   120.0200517 532.790560
    583    590    588     1   120.0200517 532.790560
    583    590    591     1   120.3300516 514.129920
    582    581    586     1   120.0200517 532.790560
    582    583    590     1   120.0200517 532.790560
    581    582    583     1   120.0200517 532.790560
    581    586    588     1   120.0200517 532.790560
    580    579    581     1   122.6000525 652.369280
    579    581    582     1   120.3300516 514.129920
    579    581    586     1   120.3300516 514.129920
    578    579    580     1   123.2000528 847.343680
    578    579    581     1   112.4100480 657.557440
    575    578    579     1   115.8200499 748.350240
    628    631    634     1   107.6200464 648.017920
    625    628    631     1   112.6300483 500.992160
    622    625    628     1   112.6300483 500.992160
    621    622    625     1   107.6200464 648.017920
    620    619    621     1   123.2000528 847.343680
    619    621    622     1   115.8200499 748.350240
    618    619    620     1   122.6000525 652.369280
    618    619    621     1   112.4100480 657.557440
    616    618    619     1   120.3300516 514.129920
    614    616    618     1   120.0200517 532.790560
    611    618    616     1   120.0200517 532.790560
    611    618    619     1   120.3300516 514.129920
    610    609    614     1   120.0200517 532.790560
    610    611    618     1   120.0200517 532.790560
    609    610    611     1   120.0200517 532.790560
    609    614    616     1   120.0200517 532.790560
    608    607    609     1   122.6000525 652.369280
    607    609    610     1   120.3300516 514.129920
    607    609    614     1   120.3300516 514.129920
    606    607    608     1   123.2000528 847.343680
    606    607    609     1   112.4100480 657.557440
    603    606    607     1   115.8200499 748.350240
    663    666    669     1   107.6200464 648.017920
    662    663    666     1   107.6200464 648.017920
    659    662    663     1   113.6000487 739.145440
    656    659    662     1   107.6200464 648.017920
    655    656    659     1   107.6200464 648.017920
    652    655    656     1   113.6000487 739.145440
    649    652    655     1   107.6200464 648.017920
    648    649    652     1   107.6200464 648.017920
    645    648    649     1   113.6000487 739.145440
    642    645    648     1   107.6200464 648.017920
    641    642    645     1   107.6200464 648.017920
    638    641    642     1   113.6000487 739.145440
    635    638    641     1   107.6200464 648.017920
    634    635    638     1   107.6200464 648.017920
    631    634    635     1   113.6000487 739.145440
    691    694    697     1   107.6200464 648.017920
    688    691    694     1   112.6300483 500.992160
    685    688    691     1   112.6300483 500.992160
    684    685    688     1   107.6200464 648.017920
    683    682    684     1   123.2000528 847.343680
    682    684    685     1   115.8200499 748.350240
    681    682    683     1   122.6000525 652.369280
    681    682    684     1   112.4100480 657.557440
    679    681    682     1   120.3300516 514.129920
    677    679    681     1   120.0200517 532.790560
    674    681    679     1   120.0200517 532.790560
    674    681    682     1   120.3300516 514.129920
    673    672    677     1   120.0200517 532.790560
    673    674    681     1   120.0200517 532.790560
    672    673    674     1   120.0200517 532.790560
    672    677    679     1   120.0200517 532.790560
    671    670    672     1   122.6000525 652.369280
    670    672    673     1   120.3300516 514.129920
    670    672    677     1   120.3300516 514.129920
    669    670    671     1   123.2000528 847.343680
    669    670    672     1   112.4100480 657.557440
    666    669    670     1   115.8200499 748.350240
    719    722    725     1   107.6200464 648.017920
    716    719    722     1   112.6300483 500.992160
    713    716    719     1   112.6300483 500.992160
    712    713    716     1   107.6200464 648.017920
    711    710    712     1   123.2000528 847.343680
    710    712    713     1   115.8200499 748.350240
    709    710    711     1   122.6000525 652.369280
    709    710    712     1   112.4100480 657.557440
    707    709    710     1   120.3300516 514.129920
    705    707    709     1   120.0200517 532.790560
    702    709    707     1   120.0200517 532.790560
    702    709    710     1   120.3300516 514.129920
    701    700    705     1   120.0200517 532.790560
    701    702    709     1   120.0200517 532.790560
    700    701    702     1   120.0200517 532.790560
    700    705    707     1   120.0200517 532.790560
    699    698    700     1   122.6000525 652.369280
    698    700    701     1   120.3300516 514.129920
    698    700    705     1   120.3300516 514.129920
    697    698    699     1   123.2000528 847.343680
    697    698    700     1   112.4100480 657.557440
    694    697    698     1   115.8200499 748.350240
    747    750    753     1   107.6200464 648.017920
    744    747    750     1   112.6300483 500.992160
    741    744    747     1   112.6300483 500.992160
    740    741    744     1   107.6200464 648.017920
    739    738    740     1   123.2000528 847.343680
    738    740    741     1   115.8200499 748.350240
    737    738    739     1   122.6000525 652.369280
    737    738    740     1   112.4100480 657.557440
    735    737    738     1   120.3300516 514.129920
    733    735    737     1   120.0200517 532.790560
    730    737    735     1   120.0200517 532.790560
    730    737    738     1   120.3300516 514.129920
    729    728    733     1   120.0200517 532.790560
    729    730    737     1   120.0200517 532.790560
    728    729    730     1   120.0200517 532.790560
    728    733    735     1   120.0200517 532.790560
    727    726    728     1   122.6000525 652.369280
    726    728    729     1   120.3300516 514.129920
    726    728    733     1   120.3300516 514.129920
    725    726    727     1   123.2000528 847.343680
    725    726    728     1   112.4100480 657.557440
    722    725    726     1   115.8200499 748.350240
    775    778    781     1   107.6200464 648.017920
    772    775    778     1   112.6300483 500.992160
    769    772    775     1   112.6300483 500.992160
    768    769    772     1   107.6200464 648.017920
    767    766    768     1   123.2000528 847.343680
    766    768    769     1   115.8200499 748.350240
    765    766    767     1   122.6000525 652.369280
    765    766    768     1   112.4100480 657.557440
    763    765    766     1   120.3300516 514.129920
    761    763    765     1   120.0200517 532.790560
    758    765    763     1   120.0200517 532.790560
    758    765    766     1   120.3300516 514.129920
    757    756    761     1   120.0200517 532.790560
    757    758    765     1   120.0200517 532.790560
    756    757    758     1   120.0200517 532.790560
    756    761    763     1   120.0200517 532.790560
    755    754    756     1   122.6000525 652.369280
    754    756    757     1   120.3300516 514.129920
    754    756    761     1   120.3300516 514.129920
    753    754    755     1   123.2000528 847.343680
    753    754    756     1   112.4100480 657.557440
    750    753    754     1   115.8200499 748.350240
    810    813    816     1   107.6200464 648.017920
    809    810    813     1   107.6200464 648.017920
    806    809    810     1   113.6000487 739.145440
    803    806    809     1   107.6200464 648.017920
    802    803    806     1   107.6200464 648.017920
    799    802    803     1   113.6000487 739.145440
    796    799    802     1   107.6200464 648.017920
    795    796    799     1   107.6200464 648.017920
    792    795    796     1   113.6000487 739.145440
    789    792    795     1   107.6200464 648.017920
    788    789    792     1   107.6200464 648.017920
    785    788    789     1   113.6000487 739.145440
    782    785    788     1   107.6200464 648.017920
    781    782    785     1   107.6200464 648.017920
    778    781    782     1   113.6000487 739.145440
    845    848    851     1   107.6200464 648.017920
    844    845    848     1   107.6200464 648.017920
    841    844    845     1   113.6000487 739.145440
    838    841    844     1   107.6200464 648.017920
    837    838    841     1   107.6200464 648.017920
    834    837    838     1   113.6000487 739.145440
    831    834    837     1   107.6200464 648.017920
    830    831    834     1   107.6200464 648.017920
    827    830    831     1   113.6000487 739.145440
    824    827    830     1   107.6200464 648.017920
    823    824    827     1   107.6200464 648.017920
    820    823    824     1   113.6000487 739.145440
    817    820    823     1   107.6200464 648.017920
    816    817    820     1   107.6200464 648.017920
    813    816    817     1   113.6000487 739.145440
    867    870    873     1   112.6300483 500.992160
    866    867    870     1   107.6200464 648.017920
    865    864    866     1   123.2000528 847.343680
    864    866    867     1   115.8200499 748.350240
    863    864    865     1   122.6000525 652.369280
    863    864    866     1   112.4100480 657.557440
    861    863    864     1   120.3300516 514.129920
    859    861    863     1   120.0200517 532.790560
    856    863    861     1   120.0200517 532.790560
    856    863    864     1   120.3300516 514.129920
    855    854    859     1   120.0200517 532.790560
    855    856    863     1   120.0200517 532.790560
    854    855    856     1   120.0200517 532.790560
    854    859    861     1   120.0200517 532.790560
    853    852    854     1   122.6000525 652.369280
    852    854    855     1   120.3300516 514.129920
    852    854    859     1   120.3300516 514.129920
    851    852    853     1   123.2000528 847.343680
    851    852    854     1   112.4100480 657.557440
    848    851    852     1   115.8200499 748.350240
     28     26     29     1   109.6800468 362.083360
     27     26     28     1   107.7300462 299.574400
     27     26     29     1   109.6800468 362.083360
     26     29     30     1   109.5900471 362.167040
     26     29     31     1   109.5900471 362.167040
     25     23     26     1   109.6800468 362.083360
     24     23     25     1   107.7300462 299.574400
     24     23     26     1   109.6800468 362.083360
     23     26     27     1   109.6800468 362.083360
     23     26     28     1   109.6800468 362.083360
     22     20     23     1   109.5900471 362.167040
     21     20     22     1   108.5500468 298.235520
     21     20     23     1   109.5900471 362.167040
     20     23     24     1   109.6800468 362.083360
     20     23     25     1   109.6800468 362.083360
     19     20     21     1   110.3400472 470.281600
     19     20     22     1   110.3400472 470.281600
     15     14     16     1   119.8800511 375.723200
     13     12     14     1   119.8800511 375.723200
     12     14     15     1   119.8800511 375.723200
     10      9     16     1   119.8800511 375.723200
      9      8     11     1   119.8800511 375.723200
      8      9     10     1   119.8800511 375.723200
      7      8     11     1   119.8800511 375.723200
      7     12     13     1   119.8800511 375.723200
      3      1      4     1   110.3400472 470.281600
      2      1      3     1   108.5500468 298.235520
      2      1      4     1   110.3400472 470.281600
     56     54     57     1   109.6800468 362.083360
     55     54     56     1   107.7300462 299.574400
     55     54     57     1   109.6800468 362.083360
     54     57     58     1   109.5900471 362.167040
     54     57     59     1   109.5900471 362.167040
     53     51     54     1   109.6800468 362.083360
     52     51     53     1   107.7300462 299.574400
     52     51     54     1   109.6800468 362.083360
     51     54     55     1   109.6800468 362.083360
     51     54     56     1   109.6800468 362.083360
     50     48     51     1   109.5900471 362.167040
     49     48     50     1   108.5500468 298.235520
     49     48     51     1   109.5900471 362.167040
     48     51     52     1   109.6800468 362.083360
     48     51     53     1   109.6800468 362.083360
     47     48     49     1   110.3400472 470.281600
     47     48     50     1   110.3400472 470.281600
     43     42     44     1   119.8800511 375.723200
     41     40     42     1   119.8800511 375.723200
     40     42     43     1   119.8800511 375.723200
     38     37     44     1   119.8800511 375.723200
     37     36     39     1   119.8800511 375.723200
     36     37     38     1   119.8800511 375.723200
     35     36     39     1   119.8800511 375.723200
     35     40     41     1   119.8800511 375.723200
     31     29     32     1   110.3400472 470.281600
     30     29     31     1   108.5500468 298.235520
     30     29     32     1   110.3400472 470.281600
     84     82     85     1   109.6800468 362.083360
     83     82     84     1   107.7300462 299.574400
     83     82     85     1   109.6800468 362.083360
     82     85     86     1   109.5900471 362.167040
     82     85     87     1   109.5900471 362.167040
     81     79     82     1   109.6800468 362.083360
     80     79     81     1   107.7300462 299.574400
     80     79     82     1   109.6800468 362.083360
     79     82     83     1   109.6800468 362.083360
     79     82     84     1   109.6800468 362.083360
     78     76     79     1   109.5900471 362.167040
     77     76     78     1   108.5500468 298.235520
     77     76     79     1   109.5900471 362.167040
     76     79     80     1   109.6800468 362.083360
     76     79     81     1   109.6800468 362.083360
     75     76     77     1   110.3400472 470.281600
     75     76     78     1   110.3400472 470.281600
     71     70     72     1   119.8800511 375.723200
     69     68     70     1   119.8800511 375.723200
     68     70     71     1   119.8800511 375.723200
     66     65     72     1   119.8800511 375.723200
     65     64     67     1   119.8800511 375.723200
     64     65     66     1   119.8800511 375.723200
     63     64     67     1   119.8800511 375.723200
     63     68     69     1   119.8800511 375.723200
     59     57     60     1   110.3400472 470.281600
     58     57     59     1   108.5500468 298.235520
     58     57     60     1   110.3400472 470.281600
    112    110    113     1   109.6800468 362.083360
    111    110    112     1   107.7300462 299.574400
    111    110    113     1   109.6800468 362.083360
    110    113    114     1   109.5900471 362.167040
    110    113    115     1   109.5900471 362.167040
    109    107    110     1   109.6800468 362.083360
    108    107    109     1   107.7300462 299.574400
    108    107    110     1   109.6800468 362.083360
    107    110    111     1   109.6800468 362.083360
    107    110    112     1   109.6800468 362.083360
    106    104    107     1   109.5900471 362.167040
    105    104    106     1   108.5500468 298.235520
    105    104    107     1   109.5900471 362.167040
    104    107    108     1   109.6800468 362.083360
    104    107    109     1   109.6800468 362.083360
    103    104    105     1   110.3400472 470.281600
    103    104    106     1   110.3400472 470.281600
     99     98    100     1   119.8800511 375.723200
     97     96     98     1   119.8800511 375.723200
     96     98     99     1   119.8800511 375.723200
     94     93    100     1   119.8800511 375.723200
     93     92     95     1   119.8800511 375.723200
     92     93     94     1   119.8800511 375.723200
     91     92     95     1   119.8800511 375.723200
     91     96     97     1   119.8800511 375.723200
     87     85     88     1   110.3400472 470.281600
     86     85     87     1   108.5500468 298.235520
     86     85     88     1   110.3400472 470.281600
    140    138    141     1   109.6800468 362.083360
    139    138    140     1   107.7300462 299.574400
    139    138    141     1   109.6800468 362.083360
    138    141    142     1   109.5900471 362.167040
    138    141    143     1   109.5900471 362.167040
    137    135    138     1   109.6800468 362.083360
    136    135    137     1   107.7300462 299.574400
    136    135    138     1   109.6800468 362.083360
    135    138    139     1   109.6800468 362.083360
    135    138    140     1   109.6800468 362.083360
    134    132    135     1   109.5900471 362.167040
    133    132    134     1   108.5500468 298.235520
    133    132    135     1   109.5900471 362.167040
    132    135    136     1   109.6800468 362.083360
    132    135    137     1   109.6800468 362.083360
    131    132    133     1   110.3400472 470.281600
    131    132    134     1   110.3400472 470.281600
    127    126    128     1   119.8800511 375.723200
    125    124    126     1   119.8800511 375.723200
    124    126    127     1   119.8800511 375.723200
    122    121    128     1   119.8800511 375.723200
    121    120    123     1   119.8800511 375.723200
    120    121    122     1   119.8800511 375.723200
    119    120    123     1   119.8800511 375.723200
    119    124    125     1   119.8800511 375.723200
    115    113    116     1   110.3400472 470.281600
    114    113    115     1   108.5500468 298.235520
    114    113    116     1   110.3400472 470.281600
    168    166    169     1   109.6800468 362.083360
    167    166    168     1   107.7300462 299.574400
    167    166    169     1   109.6800468 362.083360
    166    169    170     1   109.5900471 362.167040
    166    169    171     1   109.5900471 362.167040
    165    163    166     1   109.6800468 362.083360
    164    163    165     1   107.7300462 299.574400
    164    163    166     1   109.6800468 362.083360
    163    166    167     1   109.6800468 362.083360
    163    166    168     1   109.6800468 362.083360
    162    160    163     1   109.5900471 362.167040
    161    160    162     1   108.5500468 298.235520
    161    160    163     1   109.5900471 362.167040
    160    163    164     1   109.6800468 362.083360
    160    163    165     1   109.6800468 362.083360
    159    160    161     1   110.3400472 470.281600
    159    160    162     1   110.3400472 470.281600
    155    154    156     1   119.8800511 375.723200
    153    152    154     1   119.8800511 375.723200
    152    154    155     1   119.8800511 375.723200
    150    149    156     1   119.8800511 375.723200
    149    148    151     1   119.8800511 375.723200
    148    149    150     1   119.8800511 375.723200
    147    148    151     1   119.8800511 375.723200
    147    152    153     1   119.8800511 375.723200
    143    141    144     1   110.3400472 470.281600
    142    141    143     1   108.5500468 298.235520
    142    141    144     1   110.3400472 470.281600
    203    201    204     1   109.5900471 362.167040
    202    201    203     1   108.5500468 298.235520
    202    201    204     1   109.5900471 362.167040
    201    204    205     1   109.5900471 362.167040
    201    204    206     1   109.5900471 362.167040
    200    201    202     1   110.3400472 470.281600
    200    201    203     1   110.3400472 470.281600
    199    197    200     1   110.3400472 470.281600
    198    197    199     1   108.5500468 298.235520
    198    197    200     1   110.3400472 470.281600
    196    194    197     1   109.5900471 362.167040
    195    194    196     1   108.5500468 298.235520
    195    194    197     1   109.5900471 362.167040
    194    197    198     1   109.5900471 362.167040
    194    197    199     1   109.5900471 362.167040
    193    194    195     1   110.3400472 470.281600
    193    194    196     1   110.3400472 470.281600
    192    190    193     1   110.3400472 470.281600
    191    190    192     1   108.5500468 298.235520
    191    190    193     1   110.3400472 470.281600
    189    187    190     1   109.5900471 362.167040
    188    187    189     1   108.5500468 298.235520
    188    187    190     1   109.5900471 362.167040
    187    190    191     1   109.5900471 362.167040
    187    190    192     1   109.5900471 362.167040
    186    187    188     1   110.3400472 470.281600
    186    187    189     1   110.3400472 470.281600
    185    183    186     1   110.3400472 470.281600
    184    183    185     1   108.5500468 298.235520
    184    183    186     1   110.3400472 470.281600
    182    180    183     1   109.5900471 362.167040
    181    180    182     1   108.5500468 298.235520
    181    180    183     1   109.5900471 362.167040
    180    183    184     1   109.5900471 362.167040
    180    183    185     1   109.5900471 362.167040
    179    180    181     1   110.3400472 470.281600
    179    180    182     1   110.3400472 470.281600
    178    176    179     1   110.3400472 470.281600
    177    176    178     1   108.5500468 298.235520
    177    176    179     1   110.3400472 470.281600
    175    173    176     1   109.5900471 362.167040
    174    173    175     1   108.5500468 298.235520
    174    173    176     1   109.5900471 362.167040
    173    176    177     1   109.5900471 362.167040
    173    176    178     1   109.5900471 362.167040
    172    173    174     1   110.3400472 470.281600
    172    173    175     1   110.3400472 470.281600
    171    169    172     1   110.3400472 470.281600
    170    169    171     1   108.5500468 298.235520
    170    169    172     1   110.3400472 470.281600
    231    229    232     1   109.6800468 362.083360
    230    229    231     1   107.7300462 299.574400
    230    229    232     1   109.6800468 362.083360
    229    232    233     1   109.5900471 362.167040
    229    232    234     1   109.5900471 362.167040
    228    226    229     1   109.6800468 362.083360
    227    226    228     1   107.7300462 299.574400
    227    226    229     1   109.6800468 362.083360
    226    229    230     1   109.6800468 362.083360
    226    229    231     1   109.6800468 362.083360
    225    223    226     1   109.5900471 362.167040
    224    223    225     1   108.5500468 298.235520
    224    223    226     1   109.5900471 362.167040
    223    226    227     1   109.6800468 362.083360
    223    226    228     1   109.6800468 362.083360
    222    223    224     1   110.3400472 470.281600
    222    223    225     1   110.3400472 470.281600
    218    217    219     1   119.8800511 375.723200
    216    215    217     1   119.8800511 375.723200
    215    217    218     1   119.8800511 375.723200
    213    212    219     1   119.8800511 375.723200
    212    211    214     1   119.8800511 375.723200
    211    212    213     1   119.8800511 375.723200
    210    211    214     1   119.8800511 375.723200
    210    215    216     1   119.8800511 375.723200
    206    204    207     1   110.3400472 470.281600
    205    204    206     1   108.5500468 298.235520
    205    204    207     1   110.3400472 470.281600
    259    257    260     1   109.6800468 362.083360
    258    257    259     1   107.7300462 299.574400
    258    257    260     1   109.6800468 362.083360
    257    260    261     1   109.5900471 362.167040
    257    260    262     1   109.5900471 362.167040
    256    254    257     1   109.6800468 362.083360
    255    254    256     1   107.7300462 299.574400
    255    254    257     1   109.6800468 362.083360
    254    257    258     1   109.6800468 362.083360
    254    257    259     1   109.6800468 362.083360
    253    251    254     1   109.5900471 362.167040
    252    251    253     1   108.5500468 298.235520
    252    251    254     1   109.5900471 362.167040
    251    254    255     1   109.6800468 362.083360
    251    254    256     1   109.6800468 362.083360
    250    251    252     1   110.3400472 470.281600
    250    251    253     1   110.3400472 470.281600
    246    245    247     1   119.8800511 375.723200
    244    243    245     1   119.8800511 375.723200
    243    245    246     1   119.8800511 375.723200
    241    240    247     1   119.8800511 375.723200
    240    239    242     1   119.8800511 375.723200
    239    240    241     1   119.8800511 375.723200
    238    239    242     1   119.8800511 375.723200
    238    243    244     1   119.8800511 375.723200
    234    232    235     1   110.3400472 470.281600
    233    232    234     1   108.5500468 298.235520
    233    232    235     1   110.3400472 470.281600
    287    285    288     1   109.6800468 362.083360
    286    285    287     1   107.7300462 299.574400
    286    285    288     1   109.6800468 362.083360
    285    288    289     1   109.5900471 362.167040
    285    288    290     1   109.5900471 362.167040
    284    282    285     1   109.6800468 362.083360
    283    282    284     1   107.7300462 299.574400
    283    282    285     1   109.6800468 362.083360
    282    285    286     1   109.6800468 362.083360
    282    285    287     1   109.6800468 362.083360
    281    279    282     1   109.5900471 362.167040
    280    279    281     1   108.5500468 298.235520
    280    279    282     1   109.5900471 362.167040
    279    282    283     1   109.6800468 362.083360
    279    282    284     1   109.6800468 362.083360
    278    279    280     1   110.3400472 470.281600
    278    279    281     1   110.3400472 470.281600
    274    273    275     1   119.8800511 375.723200
    272    271    273     1   119.8800511 375.723200
    271    273    274     1   119.8800511 375.723200
    269    268    275     1   119.8800511 375.723200
    268    267    270     1   119.8800511 375.723200
    267    268    269     1   119.8800511 375.723200
    266    267    270     1   119.8800511 375.723200
    266    271    272     1   119.8800511 375.723200
    262    260    263     1   110.3400472 470.281600
    261    260    262     1   108.5500468 298.235520
    261    260    263     1   110.3400472 470.281600
    315    313    316     1   109.6800468 362.083360
    314    313    315     1   107.7300462 299.574400
    314    313    316     1   109.6800468 362.083360
    313    316    317     1   109.5900471 362.167040
    313    316    318     1   109.5900471 362.167040
    312    310    313     1   109.6800468 362.083360
    311    310    312     1   107.7300462 299.574400
    311    310    313     1   109.6800468 362.083360
    310    313    314     1   109.6800468 362.083360
    310    313    315     1   109.6800468 362.083360
    309    307    310     1   109.5900471 362.167040
    308    307    309     1   108.5500468 298.235520
    308    307    310     1   109.5900471 362.167040
    307    310    311     1   109.6800468 362.083360
    307    310    312     1   109.6800468 362.083360
    306    307    308     1   110.3400472 470.281600
    306    307    309     1   110.3400472 470.281600
    302    301    303     1   119.8800511 375.723200
    300    299    301     1   119.8800511 375.723200
    299    301    302     1   119.8800511 375.723200
    297    296    303     1   119.8800511 375.723200
    296    295    298     1   119.8800511 375.723200
    295    296    297     1   119.8800511 375.723200
    294    295    298     1   119.8800511 375.723200
    294    299    300     1   119.8800511 375.723200
    290    288    291     1   110.3400472 470.281600
    289    288    290     1   108.5500468 298.235520
    289    288    291     1   110.3400472 470.281600
    343    341    344     1   109.6800468 362.083360
    342    341    343     1   107.7300462 299.574400
    342    341    344     1   109.6800468 362.083360
    341    344    345     1   109.5900471 362.167040
    341    344    346     1   109.5900471 362.167040
    340    338    341     1   109.6800468 362.083360
    339    338    340     1   107.7300462 299.574400
    339    338    341     1   109.6800468 362.083360
    338    341    342     1   109.6800468 362.083360
    338    341    343     1   109.6800468 362.083360
    337    335    338     1   109.5900471 362.167040
    336    335    337     1   108.5500468 298.235520
    336    335    338     1   109.5900471 362.167040
    335    338    339     1   109.6800468 362.083360
    335    338    340     1   109.6800468 362.083360
    334    335    336     1   110.3400472 470.281600
    334    335    337     1   110.3400472 470.281600
    330    329    331     1   119.8800511 375.723200
    328    327    329     1   119.8800511 375.723200
    327    329    330     1   119.8800511 375.723200
    325    324    331     1   119.8800511 375.723200
    324    323    326     1   119.8800511 375.723200
    323    324    325     1   119.8800511 375.723200
    322    323    326     1   119.8800511 375.723200
    322    327    328     1   119.8800511 375.723200
    318    316    319     1   110.3400472 470.281600
    317    316    318     1   108.5500468 298.235520
    317    316    319     1   110.3400472 470.281600
    371    369    372     1   109.6800468 362.083360
    370    369    371     1   107.7300462 299.574400
    370    369    372     1   109.6800468 362.083360
    369    372    373     1   109.5900471 362.167040
    369    372    374     1   109.5900471 362.167040
    368    366    369     1   109.6800468 362.083360
    367    366    368     1   107.7300462 299.574400
    367    366    369     1   109.6800468 362.083360
    366    369    370     1   109.6800468 362.083360
    366    369    371     1   109.6800468 362.083360
    365    363    366     1   109.5900471 362.167040
    364    363    365     1   108.5500468 298.235520
    364    363    366     1   109.5900471 362.167040
    363    366    367     1   109.6800468 362.083360
    363    366    368     1   109.6800468 362.083360
    362    363    364     1   110.3400472 470.281600
    362    363    365     1   110.3400472 470.281600
    358    357    359     1   119.8800511 375.723200
    356    355    357     1   119.8800511 375.723200
    355    357    358     1   119.8800511 375.723200
    353    352    359     1   119.8800511 375.723200
    352    351    354     1   119.8800511 375.723200
    351    352    353     1   119.8800511 375.723200
    350    351    354     1   119.8800511 375.723200
    350    355    356     1   119.8800511 375.723200
    346    344    347     1   110.3400472 470.281600
    345    344    346     1   108.5500468 298.235520
    345    344    347     1   110.3400472 470.281600
    399    397    400     1   109.6800468 362.083360
    398    397    399     1   107.7300462 299.574400
    398    397    400     1   109.6800468 362.083360
    397    400    401     1   109.5900471 362.167040
    397    400    402     1   109.5900471 362.167040
    396    394    397     1   109.6800468 362.083360
    395    394    396     1   107.7300462 299.574400
    395    394    397     1   109.6800468 362.083360
    394    397    398     1   109.6800468 362.083360
    394    397    399     1   109.6800468 362.083360
    393    391    394     1   109.5900471 362.167040
    392    391    393     1   108.5500468 298.235520
    392    391    394     1   109.5900471 362.167040
    391    394    395     1   109.6800468 362.083360
    391    394    396     1   109.6800468 362.083360
    390    391    392     1   110.3400472 470.281600
    390    391    393     1   110.3400472 470.281600
    386    385    387     1   119.8800511 375.723200
    384    383    385     1   119.8800511 375.723200
    383    385    386     1   119.8800511 375.723200
    381    380    387     1   119.8800511 375.723200
    380    379    382     1   119.8800511 375.723200
    379    380    381     1   119.8800511 375.723200
    378    379    382     1   119.8800511 375.723200
    378    383    384     1   119.8800511 375.723200
    374    372    375     1   110.3400472 470.281600
    373    372    374     1   108.5500468 298.235520
    373    372    375     1   110.3400472 470.281600
    427    425    428     1   109.6800468 362.083360
    426    425    427     1   107.7300462 299.574400
    426    425    428     1   109.6800468 362.083360
    425    428    429     1   109.5900471 362.167040
    425    428    430     1   109.5900471 362.167040
    424    422    425     1   109.6800468 362.083360
    423    422    424     1   107.7300462 299.574400
    423    422    425     1   109.6800468 362.083360
    422    425    426     1   109.6800468 362.083360
    422    425    427     1   109.6800468 362.083360
    421    419    422     1   109.5900471 362.167040
    420    419    421     1   108.5500468 298.235520
    420    419    422     1   109.5900471 362.167040
    419    422    423     1   109.6800468 362.083360
    419    422    424     1   109.6800468 362.083360
    418    419    420     1   110.3400472 470.281600
    418    419    421     1   110.3400472 470.281600
    414    413    415     1   119.8800511 375.723200
    412    411    413     1   119.8800511 375.723200
    411    413    414     1   119.8800511 375.723200
    409    408    415     1   119.8800511 375.723200
    408    407    410     1   119.8800511 375.723200
    407    408    409     1   119.8800511 375.723200
    406    407    410     1   119.8800511 375.723200
    406    411    412     1   119.8800511 375.723200
    402    400    403     1   110.3400472 470.281600
    401    400    402     1   108.5500468 298.235520
    401    400    403     1   110.3400472 470.281600
    455    453    456     1   109.6800468 362.083360
    454    453    455     1   107.7300462 299.574400
    454    453    456     1   109.6800468 362.083360
    453    456    457     1   109.5900471 362.167040
    453    456    458     1   109.5900471 362.167040
    452    450    453     1   109.6800468 362.083360
    451    450    452     1   107.7300462 299.574400
    451    450    453     1   109.6800468 362.083360
    450    453    454     1   109.6800468 362.083360
    450    453    455     1   109.6800468 362.083360
    449    447    450     1   109.5900471 362.167040
    448    447    449     1   108.5500468 298.235520
    448    447    450     1   109.5900471 362.167040
    447    450    451     1   109.6800468 362.083360
    447    450    452     1   109.6800468 362.083360
    446    447    448     1   110.3400472 470.281600
    446    447    449     1   110.3400472 470.281600
    442    441    443     1   119.8800511 375.723200
    440    439    441     1   119.8800511 375.723200
    439    441    442     1   119.8800511 375.723200
    437    436    443     1   119.8800511 375.723200
    436    435    438     1   119.8800511 375.723200
    435    436    437     1   119.8800511 375.723200
    434    435    438     1   119.8800511 375.723200
    434    439    440     1   119.8800511 375.723200
    430    428    431     1   110.3400472 470.281600
    429    428    430     1   108.5500468 298.235520
    429    428    431     1   110.3400472 470.281600
    490    488    491     1   109.5900471 362.167040
    489    488    490     1   108.5500468 298.235520
    489    488    491     1   109.5900471 362.167040
    488    491    492     1   109.5900471 362.167040
    488    491    493     1   109.5900471 362.167040
    487    488    489     1   110.3400472 470.281600
    487    488    490     1   110.3400472 470.281600
    486    484    487     1   110.3400472 470.281600
    485    484    486     1   108.5500468 298.235520
    485    484    487     1   110.3400472 470.281600
    483    481    484     1   109.5900471 362.167040
    482    481    483     1   108.5500468 298.235520
    482    481    484     1   109.5900471 362.167040
    481    484    485     1   109.5900471 362.167040
    481    484    486     1   109.5900471 362.167040
    480    481    482     1   110.3400472 470.281600
    480    481    483     1   110.3400472 470.281600
    479    477    480     1   110.3400472 470.281600
    478    477    479     1   108.5500468 298.235520
    478    477    480     1   110.3400472 470.281600
    476    474    477     1   109.5900471 362.167040
    475    474    476     1   108.5500468 298.235520
    475    474    477     1   109.5900471 362.167040
    474    477    478     1   109.5900471 362.167040
    474    477    479     1   109.5900471 362.167040
    473    474    475     1   110.3400472 470.281600
    473    474    476     1   110.3400472 470.281600
    472    470    473     1   110.3400472 470.281600
    471    470    472     1   108.5500468 298.235520
    471    470    473     1   110.3400472 470.281600
    469    467    470     1   109.5900471 362.167040
    468    467    469     1   108.5500468 298.235520
    468    467    470     1   109.5900471 362.167040
    467    470    471     1   109.5900471 362.167040
    467    470    472     1   109.5900471 362.167040
    466    467    468     1   110.3400472 470.281600
    466    467    469     1   110.3400472 470.281600
    465    463    466     1   110.3400472 470.281600
    464    463    465     1   108.5500468 298.235520
    464    463    466     1   110.3400472 470.281600
    462    460    463     1   109.5900471 362.167040
    461    460    462     1   108.5500468 298.235520
    461    460    463     1   109.5900471 362.167040
    460    463    464     1   109.5900471 362.167040
    460    463    465     1   109.5900471 362.167040
    459    460    461     1   110.3400472 470.281600
    459    460    462     1   110.3400472 470.281600
    458    456    459     1   110.3400472 470.281600
    457    456    458     1   108.5500468 298.235520
    457    456    459     1   110.3400472 470.281600
    518    516    519     1   109.6800468 362.083360
    517    516    518     1   107.7300462 299.574400
    517    516    519     1   109.6800468 362.083360
    516    519    520     1   109.5900471 362.167040
    516    519    521     1   109.5900471 362.167040
    515    513    516     1   109.6800468 362.083360
    514    513    515     1   107.7300462 299.574400
    514    513    516     1   109.6800468 362.083360
    513    516    517     1   109.6800468 362.083360
    513    516    518     1   109.6800468 362.083360
    512    510    513     1   109.5900471 362.167040
    511    510    512     1   108.5500468 298.235520
    511    510    513     1   109.5900471 362.167040
    510    513    514     1   109.6800468 362.083360
    510    513    515     1   109.6800468 362.083360
    509    510    511     1   110.3400472 470.281600
    509    510    512     1   110.3400472 470.281600
    505    504    506     1   119.8800511 375.723200
    503    502    504     1   119.8800511 375.723200
    502    504    505     1   119.8800511 375.723200
    500    499    506     1   119.8800511 375.723200
    499    498    501     1   119.8800511 375.723200
    498    499    500     1   119.8800511 375.723200
    497    498    501     1   119.8800511 375.723200
    497    502    503     1   119.8800511 375.723200
    493    491    494     1   110.3400472 470.281600
    492    491    493     1   108.5500468 298.235520
    492    491    494     1   110.3400472 470.281600
    546    544    547     1   109.6800468 362.083360
    545    544    546     1   107.7300462 299.574400
    545    544    547     1   109.6800468 362.083360
    544    547    548     1   109.5900471 362.167040
    544    547    549     1   109.5900471 362.167040
    543    541    544     1   109.6800468 362.083360
    542    541    543     1   107.7300462 299.574400
    542    541    544     1   109.6800468 362.083360
    541    544    545     1   109.6800468 362.083360
    541    544    546     1   109.6800468 362.083360
    540    538    541     1   109.5900471 362.167040
    539    538    540     1   108.5500468 298.235520
    539    538    541     1   109.5900471 362.167040
    538    541    542     1   109.6800468 362.083360
    538    541    543     1   109.6800468 362.083360
    537    538    539     1   110.3400472 470.281600
    537    538    540     1   110.3400472 470.281600
    533    532    534     1   119.8800511 375.723200
    531    530    532     1   119.8800511 375.723200
    530    532    533     1   119.8800511 375.723200
    528    527    534     1   119.8800511 375.723200
    527    526    529     1   119.8800511 375.723200
    526    527    528     1   119.8800511 375.723200
    525    526    529     1   119.8800511 375.723200
    525    530    531     1   119.8800511 375.723200
    521    519    522     1   110.3400472 470.281600
    520    519    521     1   108.5500468 298.235520
    520    519    522     1   110.3400472 470.281600
    574    572    575     1   109.6800468 362.083360
    573    572    574     1   107.7300462 299.574400
    573    572    575     1   109.6800468 362.083360
    572    575    576     1   109.5900471 362.167040
    572    575    577     1   109.5900471 362.167040
    571    569    572     1   109.6800468 362.083360
    570    569    571     1   107.7300462 299.574400
    570    569    572     1   109.6800468 362.083360
    569    572    573     1   109.6800468 362.083360
    569    572    574     1   109.6800468 362.083360
    568    566    569     1   109.5900471 362.167040
    567    566    568     1   108.5500468 298.235520
    567    566    569     1   109.5900471 362.167040
    566    569    570     1   109.6800468 362.083360
    566    569    571     1   109.6800468 362.083360
    565    566    567     1   110.3400472 470.281600
    565    566    568     1   110.3400472 470.281600
    561    560    562     1   119.8800511 375.723200
    559    558    560     1   119.8800511 375.723200
    558    560    561     1   119.8800511 375.723200
    556    555    562     1   119.8800511 375.723200
    555    554    557     1   119.8800511 375.723200
    554    555    556     1   119.8800511 375.723200
    553    554    557     1   119.8800511 375.723200
    553    558    559     1   119.8800511 375.723200
    549    547    550     1   110.3400472 470.281600
    548    547    549     1   108.5500468 298.235520
    548    547    550     1   110.3400472 470.281600
    602    600    603     1   109.6800468 362.083360
    601    600    602     1   107.7300462 299.574400
    601    600    603     1   109.6800468 362.083360
    600    603    604     1   109.5900471 362.167040
    600    603    605     1   109.5900471 362.167040
    599    597    600     1   109.6800468 362.083360
    598    597    599     1   107.7300462 299.574400
    598    597    600     1   109.6800468 362.083360
    597    600    601     1   109.6800468 362.083360
    597    600    602     1   109.6800468 362.083360
    596    594    597     1   109.5900471 362.167040
    595    594    596     1   108.5500468 298.235520
    595    594    597     1   109.5900471 362.167040
    594    597    598     1   109.6800468 362.083360
    594    597    599     1   109.6800468 362.083360
    593    594    595     1   110.3400472 470.281600
    593    594    596     1   110.3400472 470.281600
    589    588    590     1   119.8800511 375.723200
    587    586    588     1   119.8800511 375.723200
    586    588    589     1   119.8800511 375.723200
    584    583    590     1   119.8800511 375.723200
    583    582    585     1   119.8800511 375.723200
    582    583    584     1   119.8800511 375.723200
    581    582    585     1   119.8800511 375.723200
    581    586    587     1   119.8800511 375.723200
    577    575    578     1   110.3400472 470.281600
    576    575    577     1   108.5500468 298.235520
    576    575    578     1   110.3400472 470.281600
    630    628    631     1   109.6800468 362.083360
    629    628    630     1   107.7300462 299.574400
    629    628    631     1   109.6800468 362.083360
    628    631    632     1   109.5900471 362.167040
    628    631    633     1   109.5900471 362.167040
    627    625    628     1   109.6800468 362.083360
    626    625    627     1   107.7300462 299.574400
    626    625    628     1   109.6800468 362.083360
    625    628    629     1   109.6800468 362.083360
    625    628    630     1   109.6800468 362.083360
    624    622    625     1   109.5900471 362.167040
    623    622    624     1   108.5500468 298.235520
    623    622    625     1   109.5900471 362.167040
    622    625    626     1   109.6800468 362.083360
    622    625    627     1   109.6800468 362.083360
    621    622    623     1   110.3400472 470.281600
    621    622    624     1   110.3400472 470.281600
    617    616    618     1   119.8800511 375.723200
    615    614    616     1   119.8800511 375.723200
    614    616    617     1   119.8800511 375.723200
    612    611    618     1   119.8800511 375.723200
    611    610    613     1   119.8800511 375.723200
    610    611    612     1   119.8800511 375.723200
    609    610    613     1   119.8800511 375.723200
    609    614    615     1   119.8800511 375.723200
    605    603    606     1   110.3400472 470.281600
    604    603    605     1   108.5500468 298.235520
    604    603    606     1   110.3400472 470.281600
    665    663    666     1   109.5900471 362.167040
    664    663    665     1   108.5500468 298.235520
    664    663    666     1   109.5900471 362.167040
    663    666    667     1   109.5900471 362.167040
    663    666    668     1   109.5900471 362.167040
    662    663    664     1   110.3400472 470.281600
    662    663    665     1   110.3400472 470.281600
    661    659    662     1   110.3400472 470.281600
    660    659    661     1   108.5500468 298.235520
    660    659    662     1   110.3400472 470.281600
    658    656    659     1   109.5900471 362.167040
    657    656    658     1   108.5500468 298.235520
    657    656    659     1   109.5900471 362.167040
    656    659    660     1   109.5900471 362.167040
    656    659    661     1   109.5900471 362.167040
    655    656    657     1   110.3400472 470.281600
    655    656    658     1   110.3400472 470.281600
    654    652    655     1   110.3400472 470.281600
    653    652    654     1   108.5500468 298.235520
    653    652    655     1   110.3400472 470.281600
    651    649    652     1   109.5900471 362.167040
    650    649    651     1   108.5500468 298.235520
    650    649    652     1   109.5900471 362.167040
    649    652    653     1   109.5900471 362.167040
    649    652    654     1   109.5900471 362.167040
    648    649    650     1   110.3400472 470.281600
    648    649    651     1   110.3400472 470.281600
    647    645    648     1   110.3400472 470.281600
    646    645    647     1   108.5500468 298.235520
    646    645    648     1   110.3400472 470.281600
    644    642    645     1   109.5900471 362.167040
    643    642    644     1   108.5500468 298.235520
    643    642    645     1   109.5900471 362.167040
    642    645    646     1   109.5900471 362.167040
    642    645    647     1   109.5900471 362.167040
    641    642    643     1   110.3400472 470.281600
    641    642    644     1   110.3400472 470.281600
    640    638    641     1   110.3400472 470.281600
    639    638    640     1   108.5500468 298.235520
    639    638    641     1   110.3400472 470.281600
    637    635    638     1   109.5900471 362.167040
    636    635    637     1   108.5500468 298.235520
    636    635    638     1   109.5900471 362.167040
    635    638    639     1   109.5900471 362.167040
    635    638    640     1   109.5900471 362.167040
    634    635    636     1   110.3400472 470.281600
    634    635    637     1   110.3400472 470.281600
    633    631    634     1   110.3400472 470.281600
    632    631    633     1   108.5500468 298.235520
    632    631    634     1   110.3400472 470.281600
    693    691    694     1   109.6800468 362.083360
    692    691    693     1   107.7300462 299.574400
    692    691    694     1   109.6800468 362.083360
    691    694    695     1   109.5900471 362.167040
    691    694    696     1   109.5900471 362.167040
    690    688    691     1   109.6800468 362.083360
    689    688    690     1   107.7300462 299.574400
    689    688    691     1   109.6800468 362.083360
    688    691    692     1   109.6800468 362.083360
    688    691    693     1   109.6800468 362.083360
    687    685    688     1   109.5900471 362.167040
    686    685    687     1   108.5500468 298.235520
    686    685    688     1   109.5900471 362.167040
    685    688    689     1   109.6800468 362.083360
    685    688    690     1   109.6800468 362.083360
    684    685    686     1   110.3400472 470.281600
    684    685    687     1   110.3400472 470.281600
    680    679    681     1   119.8800511 375.723200
    678    677    679     1   119.8800511 375.723200
    677    679    680     1   119.8800511 375.723200
    675    674    681     1   119.8800511 375.723200
    674    673    676     1   119.8800511 375.723200
    673    674    675     1   119.8800511 375.723200
    672    673    676     1   119.8800511 375.723200
    672    677    678     1   119.8800511 375.723200
    668    666    669     1   110.3400472 470.281600
    667    666    668     1   108.5500468 298.235520
    667    666    669     1   110.3400472 470.281600
    721    719    722     1   109.6800468 362.083360
    720    719    721     1   107.7300462 299.574400
    720    719    722     1   109.6800468 362.083360
    719    722    723     1   109.5900471 362.167040
    719    722    724     1   109.5900471 362.167040
    718    716    719     1   109.6800468 362.083360
    717    716    718     1   107.7300462 299.574400
    717    716    719     1   109.6800468 362.083360
    716    719    720     1   109.6800468 362.083360
    716    719    721     1   109.6800468 362.083360
    715    713    716     1   109.5900471 362.167040
    714    713    715     1   108.5500468 298.235520
    714    713    716     1   109.5900471 362.167040
    713    716    717     1   109.6800468 362.083360
    713    716    718     1   109.6800468 362.083360
    712    713    714     1   110.3400472 470.281600
    712    713    715     1   110.3400472 470.281600
    708    707    709     1   119.8800511 375.723200
    706    705    707     1   119.8800511 375.723200
    705    707    708     1   119.8800511 375.723200
    703    702    709     1   119.8800511 375.723200
    702    701    704     1   119.8800511 375.723200
    701    702    703     1   119.8800511 375.723200
    700    701    704     1   119.8800511 375.723200
    700    705    706     1   119.8800511 375.723200
    696    694    697     1   110.3400472 470.281600
    695    694    696     1   108.5500468 298.235520
    695    694    697     1   110.3400472 470.281600
    749    747    750     1   109.6800468 362.083360
    748    747    749     1   107.7300462 299.574400
    748    747    750     1   109.6800468 362.083360
    747    750    751     1   109.5900471 362.167040
    747    750    752     1   109.5900471 362.167040
    746    744    747     1   109.6800468 362.083360
    745    744    746     1   107.7300462 299.574400
    745    744    747     1   109.6800468 362.083360
    744    747    748     1   109.6800468 362.083360
    744    747    749     1   109.6800468 362.083360
    743    741    744     1   109.5900471 362.167040
    742    741    743     1   108.5500468 298.235520
    742    741    744     1   109.5900471 362.167040
    741    744    745     1   109.6800468 362.083360
    741    744    746     1   109.6800468 362.083360
    740    741    742     1   110.3400472 470.281600
    740    741    743     1   110.3400472 470.281600
    736    735    737     1   119.8800511 375.723200
    734    733    735     1   119.8800511 375.723200
    733    735    736     1   119.8800511 375.723200
    731    730    737     1   119.8800511 375.723200
    730    729    732     1   119.8800511 375.723200
    729    730    731     1   119.8800511 375.723200
    728    729    732     1   119.8800511 375.723200
    728    733    734     1   119.8800511 375.723200
    724    722    725     1   110.3400472 470.281600
    723    722    724     1   108.5500468 298.235520
    723    722    725     1   110.3400472 470.281600
    777    775    778     1   109.6800468 362.083360
    776    775    777     1   107.7300462 299.574400
    776    775    778     1   109.6800468 362.083360
    775    778    779     1   109.5900471 362.167040
    775    778    780     1   109.5900471 362.167040
    774    772    775     1   109.6800468 362.083360
    773    772    774     1   107.7300462 299.574400
    773    772    775     1   109.6800468 362.083360
    772    775    776     1   109.6800468 362.083360
    772    775    777     1   109.6800468 362.083360
    771    769    772     1   109.5900471 362.167040
    770    769    771     1   108.5500468 298.235520
    770    769    772     1   109.5900471 362.167040
    769    772    773     1   109.6800468 362.083360
    769    772    774     1   109.6800468 362.083360
    768    769    770     1   110.3400472 470.281600
    768    769    771     1   110.3400472 470.281600
    764    763    765     1   119.8800511 375.723200
    762    761    763     1   119.8800511 375.723200
    761    763    764     1   119.8800511 375.723200
    759    758    765     1   119.8800511 375.723200
    758    757    760     1   119.8800511 375.723200
    757    758    759     1   119.8800511 375.723200
    756    757    760     1   119.8800511 375.723200
    756    761    762     1   119.8800511 375.723200
    752    750    753     1   110.3400472 470.281600
    751    750    752     1   108.5500468 298.235520
    751    750    753     1   110.3400472 470.281600
    812    810    813     1   109.5900471 362.167040
    811    810    812     1   108.5500468 298.235520
    811    810    813     1   109.5900471 362.167040
    810    813    814     1   109.5900471 362.167040
    810    813    815     1   109.5900471 362.167040
    809    810    811     1   110.3400472 470.281600
    809    810    812     1   110.3400472 470.281600
    808    806    809     1   110.3400472 470.281600
    807    806    808     1   108.5500468 298.235520
    807    806    809     1   110.3400472 470.281600
    805    803    806     1   109.5900471 362.167040
    804    803    805     1   108.5500468 298.235520
    804    803    806     1   109.5900471 362.167040
    803    806    807     1   109.5900471 362.167040
    803    806    808     1   109.5900471 362.167040
    802    803    804     1   110.3400472 470.281600
    802    803    805     1   110.3400472 470.281600
    801    799    802     1   110.3400472 470.281600
    800    799    801     1   108.5500468 298.235520
    800    799    802     1   110.3400472 470.281600
    798    796    799     1   109.5900471 362.167040
    797    796    798     1   108.5500468 298.235520
    797    796    799     1   109.5900471 362.167040
    796    799    800     1   109.5900471 362.167040
    796    799    801     1   109.5900471 362.167040
    795    796    797     1   110.3400472 470.281600
    795    796    798     1   110.3400472 470.281600
    794    792    795     1   110.3400472 470.281600
    793    792    794     1   108.5500468 298.235520
    793    792    795     1   110.3400472 470.281600
    791    789    792     1   109.5900471 362.167040
    790    789    791     1   108.5500468 298.235520
    790    789    792     1   109.5900471 362.167040
    789    792    793     1   109.5900471 362.167040
    789    792    794     1   109.5900471 362.167040
    788    789    790     1   110.3400472 470.281600
    788    789    791     1   110.3400472 470.281600
    787    785    788     1   110.3400472 470.281600
    786    785    787     1   108.5500468 298.235520
    786    785    788     1   110.3400472 470.281600
    784    782    785     1   109.5900471 362.167040
    783    782    784     1   108.5500468 298.235520
    783    782    785     1   109.5900471 362.167040
    782    785    786     1   109.5900471 362.167040
    782    785    787     1   109.5900471 362.167040
    781    782    783     1   110.3400472 470.281600
    781    782    784     1   110.3400472 470.281600
    780    778    781     1   110.3400472 470.281600
    779    778    780     1   108.5500468 298.235520
    779    778    781     1   110.3400472 470.281600
    847    845    848     1   109.5900471 362.167040
    846    845    847     1   108.5500468 298.235520
    846    845    848     1   109.5900471 362.167040
    845    848    849     1   109.5900471 362.167040
    845    848    850     1   109.5900471 362.167040
    844    845    846     1   110.3400472 470.281600
    844    845    847     1   110.3400472 470.281600
    843    841    844     1   110.3400472 470.281600
    842    841    843     1   108.5500468 298.235520
    842    841    844     1   110.3400472 470.281600
    840    838    841     1   109.5900471 362.167040
    839    838    840     1   108.5500468 298.235520
    839    838    841     1   109.5900471 362.167040
    838    841    842     1   109.5900471 362.167040
    838    841    843     1   109.5900471 362.167040
    837    838    839     1   110.3400472 470.281600
    837    838    840     1   110.3400472 470.281600
    836    834    837     1   110.3400472 470.281600
    835    834    836     1   108.5500468 298.235520
    835    834    837     1   110.3400472 470.281600
    833    831    834     1   109.5900471 362.167040
    832    831    833     1   108.5500468 298.235520
    832    831    834     1   109.5900471 362.167040
    831    834    835     1   109.5900471 362.167040
    831    834    836     1   109.5900471 362.167040
    830    831    832     1   110.3400472 470.281600
    830    831    833     1   110.3400472 470.281600
    829    827    830     1   110.3400472 470.281600
    828    827    829     1   108.5500468 298.235520
    828    827    830     1   110.3400472 470.281600
    826    824    827     1   109.5900471 362.167040
    825    824    826     1   108.5500468 298.235520
    825    824    827     1   109.5900471 362.167040
    824    827    828     1   109.5900471 362.167040
    824    827    829     1   109.5900471 362.167040
    823    824    825     1   110.3400472 470.281600
    823    824    826     1   110.3400472 470.281600
    822    820    823     1   110.3400472 470.281600
    821    820    822     1   108.5500468 298.235520
    821    820    823     1   110.3400472 470.281600
    819    817    820     1   109.5900471 362.167040
    818    817    819     1   108.5500468 298.235520
    818    817    820     1   109.5900471 362.167040
    817    820    821     1   109.5900471 362.167040
    817    820    822     1   109.5900471 362.167040
    816    817    818     1   110.3400472 470.281600
    816    817    819     1   110.3400472 470.281600
    815    813    816     1   110.3400472 470.281600
    814    813    815     1   108.5500468 298.235520
    814    813    816     1   110.3400472 470.281600
    874    873    875     1   107.7300462 299.574400
    872    870    873     1   109.6800468 362.083360
    871    870    872     1   107.7300462 299.574400
    871    870    873     1   109.6800468 362.083360
    870    873    874     1   109.6800468 362.083360
    870    873    875     1   109.6800468 362.083360
    869    867    870     1   109.5900471 362.167040
    868    867    869     1   108.5500468 298.235520
    868    867    870     1   109.5900471 362.167040
    867    870    871     1   109.6800468 362.083360
    867    870    872     1   109.6800468 362.083360
    866    867    868     1   110.3400472 470.281600
    866    867    869     1   110.3400472 470.281600
    862    861    863     1   119.8800511 375.723200
    860    859    861     1   119.8800511 375.723200
    859    861    862     1   119.8800511 375.723200
    857    856    863     1   119.8800511 375.723200
    856    855    858     1   119.8800511 375.723200
    855    856    857     1   119.8800511 375.723200
    854    855    858     1   119.8800511 375.723200
    854    859    860     1   119.8800511 375.723200
    850    848    851     1   110.3400472 470.281600
    849    848    850     1   108.5500468 298.235520
    849    848    851     1   110.3400472 470.281600

[ dihedrals ]
;    ai     aj     ak     al funct         c0         c1         c2         c3         c4         c5
     26     29     32     33     1  180.0000771  3.3472000  1
     26     29     32     33     1  0.0000000  1.6024720  3
     23     26     29     32     1  0.0000000  0.6508444  3
     20     23     26     29     1  0.0000000  2.1756800  3
     19     20     23     26     1  0.0000000  0.6508444  3
     18     17     19     20     1  180.0000771  5.8576000  1
     18     17     19     20     1  180.0000771  11.2968000  2
     17     19     20     23     1  180.0000771  3.3472000  1
     17     19     20     23     1  0.0000000  1.6024720  3
     16     17     19     20     1  180.0000771  6.6944000  1
     16     17     19     20     1  180.0000771  15.3552800  2
     16     17     19     20     1  0.0000000  1.2970400  3
     14     16     17     18     1  180.0000771  2.4267200  2
     14     16     17     19     1  180.0000771  4.1840000  2
     12     14     16     17     1  180.0000771  15.1670000  2
      9      8      7     12     1  180.0000771  15.1670000  2
      9     16     14     12     1  180.0000771  15.1670000  2
      9     16     17     18     1  180.0000771  2.4267200  2
      9     16     17     19     1  180.0000771  4.1840000  2
      8      7     12     14     1  180.0000771  15.1670000  2
      8      9     16     14     1  180.0000771  15.1670000  2
      8      9     16     17     1  180.0000771  15.1670000  2
      7      8      9     16     1  180.0000771  15.1670000  2
      7     12     14     16     1  180.0000771  15.1670000  2
      6      5      7      8     1  180.0000771  2.4267200  2
      6      5      7     12     1  180.0000771  2.4267200  2
      5      7      8      9     1  180.0000771  15.1670000  2
      5      7     12     14     1  180.0000771  15.1670000  2
      4      5      7      8     1  180.0000771  4.1840000  2
      4      5      7     12     1  180.0000771  4.1840000  2
      1      4      5      6     1  180.0000771  5.8576000  1
      1      4      5      6     1  180.0000771  11.2968000  2
      1      4      5      7     1  180.0000771  6.6944000  1
      1      4      5      7     1  180.0000771  15.3552800  2
      1      4      5      7     1  0.0000000  1.2970400  3
     54     57     60     61     1  180.0000771  3.3472000  1
     54     57     60     61     1  0.0000000  1.6024720  3
     51     54     57     60     1  0.0000000  0.6508444  3
     48     51     54     57     1  0.0000000  2.1756800  3
     47     48     51     54     1  0.0000000  0.6508444  3
     46     45     47     48     1  180.0000771  5.8576000  1
     46     45     47     48     1  180.0000771  11.2968000  2
     45     47     48     51     1  180.0000771  3.3472000  1
     45     47     48     51     1  0.0000000  1.6024720  3
     44     45     47     48     1  180.0000771  6.6944000  1
     44     45     47     48     1  180.0000771  15.3552800  2
     44     45     47     48     1  0.0000000  1.2970400  3
     42     44     45     46     1  180.0000771  2.4267200  2
     42     44     45     47     1  180.0000771  4.1840000  2
     40     42     44     45     1  180.0000771  15.1670000  2
     37     36     35     40     1  180.0000771  15.1670000  2
     37     44     42     40     1  180.0000771  15.1670000  2
     37     44     45     46     1  180.0000771  2.4267200  2
     37     44     45     47     1  180.0000771  4.1840000  2
     36     35     40     42     1  180.0000771  15.1670000  2
     36     37     44     42     1  180.0000771  15.1670000  2
     36     37     44     45     1  180.0000771  15.1670000  2
     35     36     37     44     1  180.0000771  15.1670000  2
     35     40     42     44     1  180.0000771  15.1670000  2
     34     33     35     36     1  180.0000771  2.4267200  2
     34     33     35     40     1  180.0000771  2.4267200  2
     33     35     36     37     1  180.0000771  15.1670000  2
     33     35     40     42     1  180.0000771  15.1670000  2
     32     33     35     36     1  180.0000771  4.1840000  2
     32     33     35     40     1  180.0000771  4.1840000  2
     29     32     33     34     1  180.0000771  5.8576000  1
     29     32     33     34     1  180.0000771  11.2968000  2
     29     32     33     35     1  180.0000771  6.6944000  1
     29     32     33     35     1  180.0000771  15.3552800  2
     29     32     33     35     1  0.0000000  1.2970400  3
     82     85     88     89     1  180.0000771  3.3472000  1
     82     85     88     89     1  0.0000000  1.6024720  3
     79     82     85     88     1  0.0000000  0.6508444  3
     76     79     82     85     1  0.0000000  2.1756800  3
     75     76     79     82     1  0.0000000  0.6508444  3
     74     73     75     76     1  180.0000771  5.8576000  1
     74     73     75     76     1  180.0000771  11.2968000  2
     73     75     76     79     1  180.0000771  3.3472000  1
     73     75     76     79     1  0.0000000  1.6024720  3
     72     73     75     76     1  180.0000771  6.6944000  1
     72     73     75     76     1  180.0000771  15.3552800  2
     72     73     75     76     1  0.0000000  1.2970400  3
     70     72     73     74     1  180.0000771  2.4267200  2
     70     72     73     75     1  180.0000771  4.1840000  2
     68     70     72     73     1  180.0000771  15.1670000  2
     65     64     63     68     1  180.0000771  15.1670000  2
     65     72     70     68     1  180.0000771  15.1670000  2
     65     72     73     74     1  180.0000771  2.4267200  2
     65     72     73     75     1  180.0000771  4.1840000  2
     64     63     68     70     1  180.0000771  15.1670000  2
     64     65     72     70     1  180.0000771  15.1670000  2
     64     65     72     73     1  180.0000771  15.1670000  2
     63     64     65     72     1  180.0000771  15.1670000  2
     63     68     70     72     1  180.0000771  15.1670000  2
     62     61     63     64     1  180.0000771  2.4267200  2
     62     61     63     68     1  180.0000771  2.4267200  2
     61     63     64     65     1  180.0000771  15.1670000  2
     61     63     68     70     1  180.0000771  15.1670000  2
     60     61     63     64     1  180.0000771  4.1840000  2
     60     61     63     68     1  180.0000771  4.1840000  2
     57     60     61     62     1  180.0000771  5.8576000  1
     57     60     61     62     1  180.0000771  11.2968000  2
     57     60     61     63     1  180.0000771  6.6944000  1
     57     60     61     63     1  180.0000771  15.3552800  2
     57     60     61     63     1  0.0000000  1.2970400  3
    110    113    116    117     1  180.0000771  3.3472000  1
    110    113    116    117     1  0.0000000  1.6024720  3
    107    110    113    116     1  0.0000000  0.6508444  3
    104    107    110    113     1  0.0000000  2.1756800  3
    103    104    107    110     1  0.0000000  0.6508444  3
    102    101    103    104     1  180.0000771  5.8576000  1
    102    101    103    104     1  180.0000771  11.2968000  2
    101    103    104    107     1  180.0000771  3.3472000  1
    101    103    104    107     1  0.0000000  1.6024720  3
    100    101    103    104     1  180.0000771  6.6944000  1
    100    101    103    104     1  180.0000771  15.3552800  2
    100    101    103    104     1  0.0000000  1.2970400  3
     98    100    101    102     1  180.0000771  2.4267200  2
     98    100    101    103     1  180.0000771  4.1840000  2
     96     98    100    101     1  180.0000771  15.1670000  2
     93     92     91     96     1  180.0000771  15.1670000  2
     93    100     98     96     1  180.0000771  15.1670000  2
     93    100    101    102     1  180.0000771  2.4267200  2
     93    100    101    103     1  180.0000771  4.1840000  2
     92     91     96     98     1  180.0000771  15.1670000  2
     92     93    100     98     1  180.0000771  15.1670000  2
     92     93    100    101     1  180.0000771  15.1670000  2
     91     92     93    100     1  180.0000771  15.1670000  2
     91     96     98    100     1  180.0000771  15.1670000  2
     90     89     91     92     1  180.0000771  2.4267200  2
     90     89     91     96     1  180.0000771  2.4267200  2
     89     91     92     93     1  180.0000771  15.1670000  2
     89     91     96     98     1  180.0000771  15.1670000  2
     88     89     91     92     1  180.0000771  4.1840000  2
     88     89     91     96     1  180.0000771  4.1840000  2
     85     88     89     90     1  180.0000771  5.8576000  1
     85     88     89     90     1  180.0000771  11.2968000  2
     85     88     89     91     1  180.0000771  6.6944000  1
     85     88     89     91     1  180.0000771  15.3552800  2
     85     88     89     91     1  0.0000000  1.2970400  3
    138    141    144    145     1  180.0000771  3.3472000  1
    138    141    144    145     1  0.0000000  1.6024720  3
    135    138    141    144     1  0.0000000  0.6508444  3
    132    135    138    141     1  0.0000000  2.1756800  3
    131    132    135    138     1  0.0000000  0.6508444  3
    130    129    131    132     1  180.0000771  5.8576000  1
    130    129    131    132     1  180.0000771  11.2968000  2
    129    131    132    135     1  180.0000771  3.3472000  1
    129    131    132    135     1  0.0000000  1.6024720  3
    128    129    131    132     1  180.0000771  6.6944000  1
    128    129    131    132     1  180.0000771  15.3552800  2
    128    129    131    132     1  0.0000000  1.2970400  3
    126    128    129    130     1  180.0000771  2.4267200  2
    126    128    129    131     1  180.0000771  4.1840000  2
    124    126    128    129     1  180.0000771  15.1670000  2
    121    120    119    124     1  180.0000771  15.1670000  2
    121    128    126    124     1  180.0000771  15.1670000  2
    121    128    129    130     1  180.0000771  2.4267200  2
    121    128    129    131     1  180.0000771  4.1840000  2
    120    119    124    126     1  180.0000771  15.1670000  2
    120    121    128    126     1  180.0000771  15.1670000  2
    120    121    128    129     1  180.0000771  15.1670000  2
    119    120    121    128     1  180.0000771  15.1670000  2
    119    124    126    128     1  180.0000771  15.1670000  2
    118    117    119    120     1  180.0000771  2.4267200  2
    118    117    119    124     1  180.0000771  2.4267200  2
    117    119    120    121     1  180.0000771  15.1670000  2
    117    119    124    126     1  180.0000771  15.1670000  2
    116    117    119    120     1  180.0000771  4.1840000  2
    116    117    119    124     1  180.0000771  4.1840000  2
    113    116    117    118     1  180.0000771  5.8576000  1
    113    116    117    118     1  180.0000771  11.2968000  2
    113    116    117    119     1  180.0000771  6.6944000  1
    113    116    117    119     1  180.0000771  15.3552800  2
    113    116    117    119     1  0.0000000  1.2970400  3
    166    169    172    173     1  180.0000771  3.6819200  1
    166    169    172    173     1  0.0000000  0.3347200  2
    166    169    172    173     1  0.0000000  3.1380000  3
    163    166    169    172     1  0.0000000  0.6508444  3
    160    163    166    169     1  0.0000000  2.1756800  3
    159    160    163    166     1  0.0000000  0.6508444  3
    158    157    159    160     1  180.0000771  5.8576000  1
    158    157    159    160     1  180.0000771  11.2968000  2
    157    159    160    163     1  180.0000771  3.3472000  1
    157    159    160    163     1  0.0000000  1.6024720  3
    156    157    159    160     1  180.0000771  6.6944000  1
    156    157    159    160     1  180.0000771  15.3552800  2
    156    157    159    160     1  0.0000000  1.2970400  3
    154    156    157    158     1  180.0000771  2.4267200  2
    154    156    157    159     1  180.0000771  4.1840000  2
    152    154    156    157     1  180.0000771  15.1670000  2
    149    148    147    152     1  180.0000771  15.1670000  2
    149    156    154    152     1  180.0000771  15.1670000  2
    149    156    157    158     1  180.0000771  2.4267200  2
    149    156    157    159     1  180.0000771  4.1840000  2
    148    147    152    154     1  180.0000771  15.1670000  2
    148    149    156    154     1  180.0000771  15.1670000  2
    148    149    156    157     1  180.0000771  15.1670000  2
    147    148    149    156     1  180.0000771  15.1670000  2
    147    152    154    156     1  180.0000771  15.1670000  2
    146    145    147    148     1  180.0000771  2.4267200  2
    146    145    147    152     1  180.0000771  2.4267200  2
    145    147    148    149     1  180.0000771  15.1670000  2
    145    147    152    154     1  180.0000771  15.1670000  2
    144    145    147    148     1  180.0000771  4.1840000  2
    144    145    147    152     1  180.0000771  4.1840000  2
    141    144    145    146     1  180.0000771  5.8576000  1
    141    144    145    146     1  180.0000771  11.2968000  2
    141    144    145    147     1  180.0000771  6.6944000  1
    141    144    145    147     1  180.0000771  15.3552800  2
    141    144    145    147     1  0.0000000  1.2970400  3
    201    204    207    208     1  180.0000771  3.3472000  1
    201    204    207    208     1  0.0000000  1.6024720  3
    200    201    204    207     1  0.0000000  0.7531200  1
    200    201    204    207     1  0.0000000  3.7656000  2
    200    201    204    207     1  0.0000000  2.0920000  3
    197    200    201    204     1  180.0000771  3.6819200  1
    197    200    201    204     1  0.0000000  0.3347200  2
    197    200    201    204     1  0.0000000  3.1380000  3
    194    197    200    201     1  180.0000771  3.6819200  1
    194    197    200    201     1  0.0000000  0.3347200  2
    194    197    200    201     1  0.0000000  3.1380000  3
    193    194    197    200     1  0.0000000  0.7531200  1
    193    194    197    200     1  0.0000000  3.7656000  2
    193    194    197    200     1  0.0000000  2.0920000  3
    190    193    194    197     1  180.0000771  3.6819200  1
    190    193    194    197     1  0.0000000  0.3347200  2
    190    193    194    197     1  0.0000000  3.1380000  3
    187    190    193    194     1  180.0000771  3.6819200  1
    187    190    193    194     1  0.0000000  0.3347200  2
    187    190    193    194     1  0.0000000  3.1380000  3
    186    187    190    193     1  0.0000000  0.7531200  1
    186    187    190    193     1  0.0000000  3.7656000  2
    186    187    190    193     1  0.0000000  2.0920000  3
    183    186    187    190     1  180.0000771  3.6819200  1
    183    186    187    190     1  0.0000000  0.3347200  2
    183    186    187    190     1  0.0000000  3.1380000  3
    180    183    186    187     1  180.0000771  3.6819200  1
    180    183    186    187     1  0.0000000  0.3347200  2
    180    183    186    187     1  0.0000000  3.1380000  3
    179    180    183    186     1  0.0000000  0.7531200  1
    179    180    183    186     1  0.0000000  3.7656000  2
    179    180    183    186     1  0.0000000  2.0920000  3
    176    179    180    183     1  180.0000771  3.6819200  1
    176    179    180    183     1  0.0000000  0.3347200  2
    176    179    180    183     1  0.0000000  3.1380000  3
    173    176    179    180     1  180.0000771  3.6819200  1
    173    176    179    180     1  0.0000000  0.3347200  2
    173    176    179    180     1  0.0000000  3.1380000  3
    172    173    176    179     1  0.0000000  0.7531200  1
    172    173    176    179     1  0.0000000  3.7656000  2
    172    173    176    179     1  0.0000000  2.0920000  3
    169    172    173    176     1  180.0000771  3.6819200  1
    169    172    173    176     1  0.0000000  0.3347200  2
    169    172    173    176     1  0.0000000  3.1380000  3
    229    232    235    236     1  180.0000771  3.3472000  1
    229    232    235    236     1  0.0000000  1.6024720  3
    226    229    232    235     1  0.0000000  0.6508444  3
    223    226    229    232     1  0.0000000  2.1756800  3
    222    223    226    229     1  0.0000000  0.6508444  3
    221    220    222    223     1  180.0000771  5.8576000  1
    221    220    222    223     1  180.0000771  11.2968000  2
    220    222    223    226     1  180.0000771  3.3472000  1
    220    222    223    226     1  0.0000000  1.6024720  3
    219    220    222    223     1  180.0000771  6.6944000  1
    219    220    222    223     1  180.0000771  15.3552800  2
    219    220    222    223     1  0.0000000  1.2970400  3
    217    219    220    221     1  180.0000771  2.4267200  2
    217    219    220    222     1  180.0000771  4.1840000  2
    215    217    219    220     1  180.0000771  15.1670000  2
    212    211    210    215     1  180.0000771  15.1670000  2
    212    219    217    215     1  180.0000771  15.1670000  2
    212    219    220    221     1  180.0000771  2.4267200  2
    212    219    220    222     1  180.0000771  4.1840000  2
    211    210    215    217     1  180.0000771  15.1670000  2
    211    212    219    217     1  180.0000771  15.1670000  2
    211    212    219    220     1  180.0000771  15.1670000  2
    210    211    212    219     1  180.0000771  15.1670000  2
    210    215    217    219     1  180.0000771  15.1670000  2
    209    208    210    211     1  180.0000771  2.4267200  2
    209    208    210    215     1  180.0000771  2.4267200  2
    208    210    211    212     1  180.0000771  15.1670000  2
    208    210    215    217     1  180.0000771  15.1670000  2
    207    208    210    211     1  180.0000771  4.1840000  2
    207    208    210    215     1  180.0000771  4.1840000  2
    204    207    208    209     1  180.0000771  5.8576000  1
    204    207    208    209     1  180.0000771  11.2968000  2
    204    207    208    210     1  180.0000771  6.6944000  1
    204    207    208    210     1  180.0000771  15.3552800  2
    204    207    208    210     1  0.0000000  1.2970400  3
    257    260    263    264     1  180.0000771  3.3472000  1
    257    260    263    264     1  0.0000000  1.6024720  3
    254    257    260    263     1  0.0000000  0.6508444  3
    251    254    257    260     1  0.0000000  2.1756800  3
    250    251    254    257     1  0.0000000  0.6508444  3
    249    248    250    251     1  180.0000771  5.8576000  1
    249    248    250    251     1  180.0000771  11.2968000  2
    248    250    251    254     1  180.0000771  3.3472000  1
    248    250    251    254     1  0.0000000  1.6024720  3
    247    248    250    251     1  180.0000771  6.6944000  1
    247    248    250    251     1  180.0000771  15.3552800  2
    247    248    250    251     1  0.0000000  1.2970400  3
    245    247    248    249     1  180.0000771  2.4267200  2
    245    247    248    250     1  180.0000771  4.1840000  2
    243    245    247    248     1  180.0000771  15.1670000  2
    240    239    238    243     1  180.0000771  15.1670000  2
    240    247    245    243     1  180.0000771  15.1670000  2
    240    247    248    249     1  180.0000771  2.4267200  2
    240    247    248    250     1  180.0000771  4.1840000  2
    239    238    243    245     1  180.0000771  15.1670000  2
    239    240    247    245     1  180.0000771  15.1670000  2
    239    240    247    248     1  180.0000771  15.1670000  2
    238    239    240    247     1  180.0000771  15.1670000  2
    238    243    245    247     1  180.0000771  15.1670000  2
    237    236    238    239     1  180.0000771  2.4267200  2
    237    236    238    243     1  180.0000771  2.4267200  2
    236    238    239    240     1  180.0000771  15.1670000  2
    236    238    243    245     1  180.0000771  15.1670000  2
    235    236    238    239     1  180.0000771  4.1840000  2
    235    236    238    243     1  180.0000771  4.1840000  2
    232    235    236    237     1  180.0000771  5.8576000  1
    232    235    236    237     1  180.0000771  11.2968000  2
    232    235    236    238     1  180.0000771  6.6944000  1
    232    235    236    238     1  180.0000771  15.3552800  2
    232    235    236    238     1  0.0000000  1.2970400  3
    285    288    291    292     1  180.0000771  3.3472000  1
    285    288    291    292     1  0.0000000  1.6024720  3
    282    285    288    291     1  0.0000000  0.6508444  3
    279    282    285    288     1  0.0000000  2.1756800  3
    278    279    282    285     1  0.0000000  0.6508444  3
    277    276    278    279     1  180.0000771  5.8576000  1
    277    276    278    279     1  180.0000771  11.2968000  2
    276    278    279    282     1  180.0000771  3.3472000  1
    276    278    279    282     1  0.0000000  1.6024720  3
    275    276    278    279     1  180.0000771  6.6944000  1
    275    276    278    279     1  180.0000771  15.3552800  2
    275    276    278    279     1  0.0000000  1.2970400  3
    273    275    276    277     1  180.0000771  2.4267200  2
    273    275    276    278     1  180.0000771  4.1840000  2
    271    273    275    276     1  180.0000771  15.1670000  2
    268    267    266    271     1  180.0000771  15.1670000  2
    268    275    273    271     1  180.0000771  15.1670000  2
    268    275    276    277     1  180.0000771  2.4267200  2
    268    275    276    278     1  180.0000771  4.1840000  2
    267    266    271    273     1  180.0000771  15.1670000  2
    267    268    275    273     1  180.0000771  15.1670000  2
    267    268    275    276     1  180.0000771  15.1670000  2
    266    267    268    275     1  180.0000771  15.1670000  2
    266    271    273    275     1  180.0000771  15.1670000  2
    265    264    266    267     1  180.0000771  2.4267200  2
    265    264    266    271     1  180.0000771  2.4267200  2
    264    266    267    268     1  180.0000771  15.1670000  2
    264    266    271    273     1  180.0000771  15.1670000  2
    263    264    266    267     1  180.0000771  4.1840000  2
    263    264    266    271     1  180.0000771  4.1840000  2
    260    263    264    265     1  180.0000771  5.8576000  1
    260    263    264    265     1  180.0000771  11.2968000  2
    260    263    264    266     1  180.0000771  6.6944000  1
    260    263    264    266     1  180.0000771  15.3552800  2
    260    263    264    266     1  0.0000000  1.2970400  3
    313    316    319    320     1  180.0000771  3.3472000  1
    313    316    319    320     1  0.0000000  1.6024720  3
    310    313    316    319     1  0.0000000  0.6508444  3
    307    310    313    316     1  0.0000000  2.1756800  3
    306    307    310    313     1  0.0000000  0.6508444  3
    305    304    306    307     1  180.0000771  5.8576000  1
    305    304    306    307     1  180.0000771  11.2968000  2
    304    306    307    310     1  180.0000771  3.3472000  1
    304    306    307    310     1  0.0000000  1.6024720  3
    303    304    306    307     1  180.0000771  6.6944000  1
    303    304    306    307     1  180.0000771  15.3552800  2
    303    304    306    307     1  0.0000000  1.2970400  3
    301    303    304    305     1  180.0000771  2.4267200  2
    301    303    304    306     1  180.0000771  4.1840000  2
    299    301    303    304     1  180.0000771  15.1670000  2
    296    295    294    299     1  180.0000771  15.1670000  2
    296    303    301    299     1  180.0000771  15.1670000  2
    296    303    304    305     1  180.0000771  2.4267200  2
    296    303    304    306     1  180.0000771  4.1840000  2
    295    294    299    301     1  180.0000771  15.1670000  2
    295    296    303    301     1  180.0000771  15.1670000  2
    295    296    303    304     1  180.0000771  15.1670000  2
    294    295    296    303     1  180.0000771  15.1670000  2
    294    299    301    303     1  180.0000771  15.1670000  2
    293    292    294    295     1  180.0000771  2.4267200  2
    293    292    294    299     1  180.0000771  2.4267200  2
    292    294    295    296     1  180.0000771  15.1670000  2
    292    294    299    301     1  180.0000771  15.1670000  2
    291    292    294    295     1  180.0000771  4.1840000  2
    291    292    294    299     1  180.0000771  4.1840000  2
    288    291    292    293     1  180.0000771  5.8576000  1
    288    291    292    293     1  180.0000771  11.2968000  2
    288    291    292    294     1  180.0000771  6.6944000  1
    288    291    292    294     1  180.0000771  15.3552800  2
    288    291    292    294     1  0.0000000  1.2970400  3
    341    344    347    348     1  180.0000771  3.3472000  1
    341    344    347    348     1  0.0000000  1.6024720  3
    338    341    344    347     1  0.0000000  0.6508444  3
    335    338    341    344     1  0.0000000  2.1756800  3
    334    335    338    341     1  0.0000000  0.6508444  3
    333    332    334    335     1  180.0000771  5.8576000  1
    333    332    334    335     1  180.0000771  11.2968000  2
    332    334    335    338     1  180.0000771  3.3472000  1
    332    334    335    338     1  0.0000000  1.6024720  3
    331    332    334    335     1  180.0000771  6.6944000  1
    331    332    334    335     1  180.0000771  15.3552800  2
    331    332    334    335     1  0.0000000  1.2970400  3
    329    331    332    333     1  180.0000771  2.4267200  2
    329    331    332    334     1  180.0000771  4.1840000  2
    327    329    331    332     1  180.0000771  15.1670000  2
    324    323    322    327     1  180.0000771  15.1670000  2
    324    331    329    327     1  180.0000771  15.1670000  2
    324    331    332    333     1  180.0000771  2.4267200  2
    324    331    332    334     1  180.0000771  4.1840000  2
    323    322    327    329     1  180.0000771  15.1670000  2
    323    324    331    329     1  180.0000771  15.1670000  2
    323    324    331    332     1  180.0000771  15.1670000  2
    322    323    324    331     1  180.0000771  15.1670000  2
    322    327    329    331     1  180.0000771  15.1670000  2
    321    320    322    323     1  180.0000771  2.4267200  2
    321    320    322    327     1  180.0000771  2.4267200  2
    320    322    323    324     1  180.0000771  15.1670000  2
    320    322    327    329     1  180.0000771  15.1670000  2
    319    320    322    323     1  180.0000771  4.1840000  2
    319    320    322    327     1  180.0000771  4.1840000  2
    316    319    320    321     1  180.0000771  5.8576000  1
    316    319    320    321     1  180.0000771  11.2968000  2
    316    319    320    322     1  180.0000771  6.6944000  1
    316    319    320    322     1  180.0000771  15.3552800  2
    316    319    320    322     1  0.0000000  1.2970400  3
    369    372    375    376     1  180.0000771  3.3472000  1
    369    372    375    376     1  0.0000000  1.6024720  3
    366    369    372    375     1  0.0000000  0.6508444  3
    363    366    369    372     1  0.0000000  2.1756800  3
    362    363    366    369     1  0.0000000  0.6508444  3
    361    360    362    363     1  180.0000771  5.8576000  1
    361    360    362    363     1  180.0000771  11.2968000  2
    360    362    363    366     1  180.0000771  3.3472000  1
    360    362    363    366     1  0.0000000  1.6024720  3
    359    360    362    363     1  180.0000771  6.6944000  1
    359    360    362    363     1  180.0000771  15.3552800  2
    359    360    362    363     1  0.0000000  1.2970400  3
    357    359    360    361     1  180.0000771  2.4267200  2
    357    359    360    362     1  180.0000771  4.1840000  2
    355    357    359    360     1  180.0000771  15.1670000  2
    352    351    350    355     1  180.0000771  15.1670000  2
    352    359    357    355     1  180.0000771  15.1670000  2
    352    359    360    361     1  180.0000771  2.4267200  2
    352    359    360    362     1  180.0000771  4.1840000  2
    351    350    355    357     1  180.0000771  15.1670000  2
    351    352    359    357     1  180.0000771  15.1670000  2
    351    352    359    360     1  180.0000771  15.1670000  2
    350    351    352    359     1  180.0000771  15.1670000  2
    350    355    357    359     1  180.0000771  15.1670000  2
    349    348    350    351     1  180.0000771  2.4267200  2
    349    348    350    355     1  180.0000771  2.4267200  2
    348    350    351    352     1  180.0000771  15.1670000  2
    348    350    355    357     1  180.0000771  15.1670000  2
    347    348    350    351     1  180.0000771  4.1840000  2
    347    348    350    355     1  180.0000771  4.1840000  2
    344    347    348    349     1  180.0000771  5.8576000  1
    344    347    348    349     1  180.0000771  11.2968000  2
    344    347    348    350     1  180.0000771  6.6944000  1
    344    347    348    350     1  180.0000771  15.3552800  2
    344    347    348    350     1  0.0000000  1.2970400  3
    397    400    403    404     1  180.0000771  3.3472000  1
    397    400    403    404     1  0.0000000  1.6024720  3
    394    397    400    403     1  0.0000000  0.6508444  3
    391    394    397    400     1  0.0000000  2.1756800  3
    390    391    394    397     1  0.0000000  0.6508444  3
    389    388    390    391     1  180.0000771  5.8576000  1
    389    388    390    391     1  180.0000771  11.2968000  2
    388    390    391    394     1  180.0000771  3.3472000  1
    388    390    391    394     1  0.0000000  1.6024720  3
    387    388    390    391     1  180.0000771  6.6944000  1
    387    388    390    391     1  180.0000771  15.3552800  2
    387    388    390    391     1  0.0000000  1.2970400  3
    385    387    388    389     1  180.0000771  2.4267200  2
    385    387    388    390     1  180.0000771  4.1840000  2
    383    385    387    388     1  180.0000771  15.1670000  2
    380    379    378    383     1  180.0000771  15.1670000  2
    380    387    385    383     1  180.0000771  15.1670000  2
    380    387    388    389     1  180.0000771  2.4267200  2
    380    387    388    390     1  180.0000771  4.1840000  2
    379    378    383    385     1  180.0000771  15.1670000  2
    379    380    387    385     1  180.0000771  15.1670000  2
    379    380    387    388     1  180.0000771  15.1670000  2
    378    379    380    387     1  180.0000771  15.1670000  2
    378    383    385    387     1  180.0000771  15.1670000  2
    377    376    378    379     1  180.0000771  2.4267200  2
    377    376    378    383     1  180.0000771  2.4267200  2
    376    378    379    380     1  180.0000771  15.1670000  2
    376    378    383    385     1  180.0000771  15.1670000  2
    375    376    378    379     1  180.0000771  4.1840000  2
    375    376    378    383     1  180.0000771  4.1840000  2
    372    375    376    377     1  180.0000771  5.8576000  1
    372    375    376    377     1  180.0000771  11.2968000  2
    372    375    376    378     1  180.0000771  6.6944000  1
    372    375    376    378     1  180.0000771  15.3552800  2
    372    375    376    378     1  0.0000000  1.2970400  3
    425    428    431    432     1  180.0000771  3.3472000  1
    425    428    431    432     1  0.0000000  1.6024720  3
    422    425    428    431     1  0.0000000  0.6508444  3
    419    422    425    428     1  0.0000000  2.1756800  3
    418    419    422    425     1  0.0000000  0.6508444  3
    417    416    418    419     1  180.0000771  5.8576000  1
    417    416    418    419     1  180.0000771  11.2968000  2
    416    418    419    422     1  180.0000771  3.3472000  1
    416    418    419    422     1  0.0000000  1.6024720  3
    415    416    418    419     1  180.0000771  6.6944000  1
    415    416    418    419     1  180.0000771  15.3552800  2
    415    416    418    419     1  0.0000000  1.2970400  3
    413    415    416    417     1  180.0000771  2.4267200  2
    413    415    416    418     1  180.0000771  4.1840000  2
    411    413    415    416     1  180.0000771  15.1670000  2
    408    407    406    411     1  180.0000771  15.1670000  2
    408    415    413    411     1  180.0000771  15.1670000  2
    408    415    416    417     1  180.0000771  2.4267200  2
    408    415    416    418     1  180.0000771  4.1840000  2
    407    406    411    413     1  180.0000771  15.1670000  2
    407    408    415    413     1  180.0000771  15.1670000  2
    407    408    415    416     1  180.0000771  15.1670000  2
    406    407    408    415     1  180.0000771  15.1670000  2
    406    411    413    415     1  180.0000771  15.1670000  2
    405    404    406    407     1  180.0000771  2.4267200  2
    405    404    406    411     1  180.0000771  2.4267200  2
    404    406    407    408     1  180.0000771  15.1670000  2
    404    406    411    413     1  180.0000771  15.1670000  2
    403    404    406    407     1  180.0000771  4.1840000  2
    403    404    406    411     1  180.0000771  4.1840000  2
    400    403    404    405     1  180.0000771  5.8576000  1
    400    403    404    405     1  180.0000771  11.2968000  2
    400    403    404    406     1  180.0000771  6.6944000  1
    400    403    404    406     1  180.0000771  15.3552800  2
    400    403    404    406     1  0.0000000  1.2970400  3
    453    456    459    460     1  180.0000771  3.6819200  1
    453    456    459    460     1  0.0000000  0.3347200  2
    453    456    459    460     1  0.0000000  3.1380000  3
    450    453    456    459     1  0.0000000  0.6508444  3
    447    450    453    456     1  0.0000000  2.1756800  3
    446    447    450    453     1  0.0000000  0.6508444  3
    445    444    446    447     1  180.0000771  5.8576000  1
    445    444    446    447     1  180.0000771  11.2968000  2
    444    446    447    450     1  180.0000771  3.3472000  1
    444    446    447    450     1  0.0000000  1.6024720  3
    443    444    446    447     1  180.0000771  6.6944000  1
    443    444    446    447     1  180.0000771  15.3552800  2
    443    444    446    447     1  0.0000000  1.2970400  3
    441    443    444    445     1  180.0000771  2.4267200  2
    441    443    444    446     1  180.0000771  4.1840000  2
    439    441    443    444     1  180.0000771  15.1670000  2
    436    435    434    439     1  180.0000771  15.1670000  2
    436    443    441    439     1  180.0000771  15.1670000  2
    436    443    444    445     1  180.0000771  2.4267200  2
    436    443    444    446     1  180.0000771  4.1840000  2
    435    434    439    441     1  180.0000771  15.1670000  2
    435    436    443    441     1  180.0000771  15.1670000  2
    435    436    443    444     1  180.0000771  15.1670000  2
    434    435    436    443     1  180.0000771  15.1670000  2
    434    439    441    443     1  180.0000771  15.1670000  2
    433    432    434    435     1  180.0000771  2.4267200  2
    433    432    434    439     1  180.0000771  2.4267200  2
    432    434    435    436     1  180.0000771  15.1670000  2
    432    434    439    441     1  180.0000771  15.1670000  2
    431    432    434    435     1  180.0000771  4.1840000  2
    431    432    434    439     1  180.0000771  4.1840000  2
    428    431    432    433     1  180.0000771  5.8576000  1
    428    431    432    433     1  180.0000771  11.2968000  2
    428    431    432    434     1  180.0000771  6.6944000  1
    428    431    432    434     1  180.0000771  15.3552800  2
    428    431    432    434     1  0.0000000  1.2970400  3
    488    491    494    495     1  180.0000771  3.3472000  1
    488    491    494    495     1  0.0000000  1.6024720  3
    487    488    491    494     1  0.0000000  0.7531200  1
    487    488    491    494     1  0.0000000  3.7656000  2
    487    488    491    494     1  0.0000000  2.0920000  3
    484    487    488    491     1  180.0000771  3.6819200  1
    484    487    488    491     1  0.0000000  0.3347200  2
    484    487    488    491     1  0.0000000  3.1380000  3
    481    484    487    488     1  180.0000771  3.6819200  1
    481    484    487    488     1  0.0000000  0.3347200  2
    481    484    487    488     1  0.0000000  3.1380000  3
    480    481    484    487     1  0.0000000  0.7531200  1
    480    481    484    487     1  0.0000000  3.7656000  2
    480    481    484    487     1  0.0000000  2.0920000  3
    477    480    481    484     1  180.0000771  3.6819200  1
    477    480    481    484     1  0.0000000  0.3347200  2
    477    480    481    484     1  0.0000000  3.1380000  3
    474    477    480    481     1  180.0000771  3.6819200  1
    474    477    480    481     1  0.0000000  0.3347200  2
    474    477    480    481     1  0.0000000  3.1380000  3
    473    474    477    480     1  0.0000000  0.7531200  1
    473    474    477    480     1  0.0000000  3.7656000  2
    473    474    477    480     1  0.0000000  2.0920000  3
    470    473    474    477     1  180.0000771  3.6819200  1
    470    473    474    477     1  0.0000000  0.3347200  2
    470    473    474    477     1  0.0000000  3.1380000  3
    467    470    473    474     1  180.0000771  3.6819200  1
    467    470    473    474     1  0.0000000  0.3347200  2
    467    470    473    474     1  0.0000000  3.1380000  3
    466    467    470    473     1  0.0000000  0.7531200  1
    466    467    470    473     1  0.0000000  3.7656000  2
    466    467    470    473     1  0.0000000  2.0920000  3
    463    466    467    470     1  180.0000771  3.6819200  1
    463    466    467    470     1  0.0000000  0.3347200  2
    463    466    467    470     1  0.0000000  3.1380000  3
    460    463    466    467     1  180.0000771  3.6819200  1
    460    463    466    467     1  0.0000000  0.3347200  2
    460    463    466    467     1  0.0000000  3.1380000  3
    459    460    463    466     1  0.0000000  0.7531200  1
    459    460    463    466     1  0.0000000  3.7656000  2
    459    460    463    466     1  0.0000000  2.0920000  3
    456    459    460    463     1  180.0000771  3.6819200  1
    456    459    460    463     1  0.0000000  0.3347200  2
    456    459    460    463     1  0.0000000  3.1380000  3
    516    519    522    523     1  180.0000771  3.3472000  1
    516    519    522    523     1  0.0000000  1.6024720  3
    513    516    519    522     1  0.0000000  0.6508444  3
    510    513    516    519     1  0.0000000  2.1756800  3
    509    510    513    516     1  0.0000000  0.6508444  3
    508    507    509    510     1  180.0000771  5.8576000  1
    508    507    509    510     1  180.0000771  11.2968000  2
    507    509    510    513     1  180.0000771  3.3472000  1
    507    509    510    513     1  0.0000000  1.6024720  3
    506    507    509    510     1  180.0000771  6.6944000  1
    506    507    509    510     1  180.0000771  15.3552800  2
    506    507    509    510     1  0.0000000  1.2970400  3
    504    506    507    508     1  180.0000771  2.4267200  2
    504    506    507    509     1  180.0000771  4.1840000  2
    502    504    506    507     1  180.0000771  15.1670000  2
    499    498    497    502     1  180.0000771  15.1670000  2
    499    506    504    502     1  180.0000771  15.1670000  2
    499    506    507    508     1  180.0000771  2.4267200  2
    499    506    507    509     1  180.0000771  4.1840000  2
    498    497    502    504     1  180.0000771  15.1670000  2
    498    499    506    504     1  180.0000771  15.1670000  2
    498    499    506    507     1  180.0000771  15.1670000  2
    497    498    499    506     1  180.0000771  15.1670000  2
    497    502    504    506     1  180.0000771  15.1670000  2
    496    495    497    498     1  180.0000771  2.4267200  2
    496    495    497    502     1  180.0000771  2.4267200  2
    495    497    498    499     1  180.0000771  15.1670000  2
    495    497    502    504     1  180.0000771  15.1670000  2
    494    495    497    498     1  180.0000771  4.1840000  2
    494    495    497    502     1  180.0000771  4.1840000  2
    491    494    495    496     1  180.0000771  5.8576000  1
    491    494    495    496     1  180.0000771  11.2968000  2
    491    494    495    497     1  180.0000771  6.6944000  1
    491    494    495    497     1  180.0000771  15.3552800  2
    491    494    495    497     1  0.0000000  1.2970400  3
    544    547    550    551     1  180.0000771  3.3472000  1
    544    547    550    551     1  0.0000000  1.6024720  3
    541    544    547    550     1  0.0000000  0.6508444  3
    538    541    544    547     1  0.0000000  2.1756800  3
    537    538    541    544     1  0.0000000  0.6508444  3
    536    535    537    538     1  180.0000771  5.8576000  1
    536    535    537    538     1  180.0000771  11.2968000  2
    535    537    538    541     1  180.0000771  3.3472000  1
    535    537    538    541     1  0.0000000  1.6024720  3
    534    535    537    538     1  180.0000771  6.6944000  1
    534    535    537    538     1  180.0000771  15.3552800  2
    534    535    537    538     1  0.0000000  1.2970400  3
    532    534    535    536     1  180.0000771  2.4267200  2
    532    534    535    537     1  180.0000771  4.1840000  2
    530    532    534    535     1  180.0000771  15.1670000  2
    527    526    525    530     1  180.0000771  15.1670000  2
    527    534    532    530     1  180.0000771  15.1670000  2
    527    534    535    536     1  180.0000771  2.4267200  2
    527    534    535    537     1  180.0000771  4.1840000  2
    526    525    530    532     1  180.0000771  15.1670000  2
    526    527    534    532     1  180.0000771  15.1670000  2
    526    527    534    535     1  180.0000771  15.1670000  2
    525    526    527    534     1  180.0000771  15.1670000  2
    525    530    532    534     1  180.0000771  15.1670000  2
    524    523    525    526     1  180.0000771  2.4267200  2
    524    523    525    530     1  180.0000771  2.4267200  2
    523    525    526    527     1  180.0000771  15.1670000  2
    523    525    530    532     1  180.0000771  15.1670000  2
    522    523    525    526     1  180.0000771  4.1840000  2
    522    523    525    530     1  180.0000771  4.1840000  2
    519    522    523    524     1  180.0000771  5.8576000  1
    519    522    523    524     1  180.0000771  11.2968000  2
    519    522    523    525     1  180.0000771  6.6944000  1
    519    522    523    525     1  180.0000771  15.3552800  2
    519    522    523    525     1  0.0000000  1.2970400  3
    572    575    578    579     1  180.0000771  3.3472000  1
    572    575    578    579     1  0.0000000  1.6024720  3
    569    572    575    578     1  0.0000000  0.6508444  3
    566    569    572    575     1  0.0000000  2.1756800  3
    565    566    569    572     1  0.0000000  0.6508444  3
    564    563    565    566     1  180.0000771  5.8576000  1
    564    563    565    566     1  180.0000771  11.2968000  2
    563    565    566    569     1  180.0000771  3.3472000  1
    563    565    566    569     1  0.0000000  1.6024720  3
    562    563    565    566     1  180.0000771  6.6944000  1
    562    563    565    566     1  180.0000771  15.3552800  2
    562    563    565    566     1  0.0000000  1.2970400  3
    560    562    563    564     1  180.0000771  2.4267200  2
    560    562    563    565     1  180.0000771  4.1840000  2
    558    560    562    563     1  180.0000771  15.1670000  2
    555    554    553    558     1  180.0000771  15.1670000  2
    555    562    560    558     1  180.0000771  15.1670000  2
    555    562    563    564     1  180.0000771  2.4267200  2
    555    562    563    565     1  180.0000771  4.1840000  2
    554    553    558    560     1  180.0000771  15.1670000  2
    554    555    562    560     1  180.0000771  15.1670000  2
    554    555    562    563     1  180.0000771  15.1670000  2
    553    554    555    562     1  180.0000771  15.1670000  2
    553    558    560    562     1  180.0000771  15.1670000  2
    552    551    553    554     1  180.0000771  2.4267200  2
    552    551    553    558     1  180.0000771  2.4267200  2
    551    553    554    555     1  180.0000771  15.1670000  2
    551    553    558    560     1  180.0000771  15.1670000  2
    550    551    553    554     1  180.0000771  4.1840000  2
    550    551    553    558     1  180.0000771  4.1840000  2
    547    550    551    552     1  180.0000771  5.8576000  1
    547    550    551    552     1  180.0000771  11.2968000  2
    547    550    551    553     1  180.0000771  6.6944000  1
    547    550    551    553     1  180.0000771  15.3552800  2
    547    550    551    553     1  0.0000000  1.2970400  3
    600    603    606    607     1  180.0000771  3.3472000  1
    600    603    606    607     1  0.0000000  1.6024720  3
    597    600    603    606     1  0.0000000  0.6508444  3
    594    597    600    603     1  0.0000000  2.1756800  3
    593    594    597    600     1  0.0000000  0.6508444  3
    592    591    593    594     1  180.0000771  5.8576000  1
    592    591    593    594     1  180.0000771  11.2968000  2
    591    593    594    597     1  180.0000771  3.3472000  1
    591    593    594    597     1  0.0000000  1.6024720  3
    590    591    593    594     1  180.0000771  6.6944000  1
    590    591    593    594     1  180.0000771  15.3552800  2
    590    591    593    594     1  0.0000000  1.2970400  3
    588    590    591    592     1  180.0000771  2.4267200  2
    588    590    591    593     1  180.0000771  4.1840000  2
    586    588    590    591     1  180.0000771  15.1670000  2
    583    582    581    586     1  180.0000771  15.1670000  2
    583    590    588    586     1  180.0000771  15.1670000  2
    583    590    591    592     1  180.0000771  2.4267200  2
    583    590    591    593     1  180.0000771  4.1840000  2
    582    581    586    588     1  180.0000771  15.1670000  2
    582    583    590    588     1  180.0000771  15.1670000  2
    582    583    590    591     1  180.0000771  15.1670000  2
    581    582    583    590     1  180.0000771  15.1670000  2
    581    586    588    590     1  180.0000771  15.1670000  2
    580    579    581    582     1  180.0000771  2.4267200  2
    580    579    581    586     1  180.0000771  2.4267200  2
    579    581    582    583     1  180.0000771  15.1670000  2
    579    581    586    588     1  180.0000771  15.1670000  2
    578    579    581    582     1  180.0000771  4.1840000  2
    578    579    581    586     1  180.0000771  4.1840000  2
    575    578    579    580     1  180.0000771  5.8576000  1
    575    578    579    580     1  180.0000771  11.2968000  2
    575    578    579    581     1  180.0000771  6.6944000  1
    575    578    579    581     1  180.0000771  15.3552800  2
    575    578    579    581     1  0.0000000  1.2970400  3
    628    631    634    635     1  180.0000771  3.6819200  1
    628    631    634    635     1  0.0000000  0.3347200  2
    628    631    634    635     1  0.0000000  3.1380000  3
    625    628    631    634     1  0.0000000  0.6508444  3
    622    625    628    631     1  0.0000000  2.1756800  3
    621    622    625    628     1  0.0000000  0.6508444  3
    620    619    621    622     1  180.0000771  5.8576000  1
    620    619    621    622     1  180.0000771  11.2968000  2
    619    621    622    625     1  180.0000771  3.3472000  1
    619    621    622    625     1  0.0000000  1.6024720  3
    618    619    621    622     1  180.0000771  6.6944000  1
    618    619    621    622     1  180.0000771  15.3552800  2
    618    619    621    622     1  0.0000000  1.2970400  3
    616    618    619    620     1  180.0000771  2.4267200  2
    616    618    619    621     1  180.0000771  4.1840000  2
    614    616    618    619     1  180.0000771  15.1670000  2
    611    610    609    614     1  180.0000771  15.1670000  2
    611    618    616    614     1  180.0000771  15.1670000  2
    611    618    619    620     1  180.0000771  2.4267200  2
    611    618    619    621     1  180.0000771  4.1840000  2
    610    609    614    616     1  180.0000771  15.1670000  2
    610    611    618    616     1  180.0000771  15.1670000  2
    610    611    618    619     1  180.0000771  15.1670000  2
    609    610    611    618     1  180.0000771  15.1670000  2
    609    614    616    618     1  180.0000771  15.1670000  2
    608    607    609    610     1  180.0000771  2.4267200  2
    608    607    609    614     1  180.0000771  2.4267200  2
    607    609    610    611     1  180.0000771  15.1670000  2
    607    609    614    616     1  180.0000771  15.1670000  2
    606    607    609    610     1  180.0000771  4.1840000  2
    606    607    609    614     1  180.0000771  4.1840000  2
    603    606    607    608     1  180.0000771  5.8576000  1
    603    606    607    608     1  180.0000771  11.2968000  2
    603    606    607    609     1  180.0000771  6.6944000  1
    603    606    607    609     1  180.0000771  15.3552800  2
    603    606    607    609     1  0.0000000  1.2970400  3
    663    666    669    670     1  180.0000771  3.3472000  1
    663    666    669    670     1  0.0000000  1.6024720  3
    662    663    666    669     1  0.0000000  0.7531200  1
    662    663    666    669     1  0.0000000  3.7656000  2
    662    663    666    669     1  0.0000000  2.0920000  3
    659    662    663    666     1  180.0000771  3.6819200  1
    659    662    663    666     1  0.0000000  0.3347200  2
    659    662    663    666     1  0.0000000  3.1380000  3
    656    659    662    663     1  180.0000771  3.6819200  1
    656    659    662    663     1  0.0000000  0.3347200  2
    656    659    662    663     1  0.0000000  3.1380000  3
    655    656    659    662     1  0.0000000  0.7531200  1
    655    656    659    662     1  0.0000000  3.7656000  2
    655    656    659    662     1  0.0000000  2.0920000  3
    652    655    656    659     1  180.0000771  3.6819200  1
    652    655    656    659     1  0.0000000  0.3347200  2
    652    655    656    659     1  0.0000000  3.1380000  3
    649    652    655    656     1  180.0000771  3.6819200  1
    649    652    655    656     1  0.0000000  0.3347200  2
    649    652    655    656     1  0.0000000  3.1380000  3
    648    649    652    655     1  0.0000000  0.7531200  1
    648    649    652    655     1  0.0000000  3.7656000  2
    648    649    652    655     1  0.0000000  2.0920000  3
    645    648    649    652     1  180.0000771  3.6819200  1
    645    648    649    652     1  0.0000000  0.3347200  2
    645    648    649    652     1  0.0000000  3.1380000  3
    642    645    648    649     1  180.0000771  3.6819200  1
    642    645    648    649     1  0.0000000  0.3347200  2
    642    645    648    649     1  0.0000000  3.1380000  3
    641    642    645    648     1  0.0000000  0.7531200  1
    641    642    645    648     1  0.0000000  3.7656000  2
    641    642    645    648     1  0.0000000  2.0920000  3
    638    641    642    645     1  180.0000771  3.6819200  1
    638    641    642    645     1  0.0000000  0.3347200  2
    638    641    642    645     1  0.0000000  3.1380000  3
    635    638    641    642     1  180.0000771  3.6819200  1
    635    638    641    642     1  0.0000000  0.3347200  2
    635    638    641    642     1  0.0000000  3.1380000  3
    634    635    638    641     1  0.0000000  0.7531200  1
    634    635    638    641     1  0.0000000  3.7656000  2
    634    635    638    641     1  0.0000000  2.0920000  3
    631    634    635    638     1  180.0000771  3.6819200  1
    631    634    635    638     1  0.0000000  0.3347200  2
    631    634    635    638     1  0.0000000  3.1380000  3
    691    694    697    698     1  180.0000771  3.3472000  1
    691    694    697    698     1  0.0000000  1.6024720  3
    688    691    694    697     1  0.0000000  0.6508444  3
    685    688    691    694     1  0.0000000  2.1756800  3
    684    685    688    691     1  0.0000000  0.6508444  3
    683    682    684    685     1  180.0000771  5.8576000  1
    683    682    684    685     1  180.0000771  11.2968000  2
    682    684    685    688     1  180.0000771  3.3472000  1
    682    684    685    688     1  0.0000000  1.6024720  3
    681    682    684    685     1  180.0000771  6.6944000  1
    681    682    684    685     1  180.0000771  15.3552800  2
    681    682    684    685     1  0.0000000  1.2970400  3
    679    681    682    683     1  180.0000771  2.4267200  2
    679    681    682    684     1  180.0000771  4.1840000  2
    677    679    681    682     1  180.0000771  15.1670000  2
    674    673    672    677     1  180.0000771  15.1670000  2
    674    681    679    677     1  180.0000771  15.1670000  2
    674    681    682    683     1  180.0000771  2.4267200  2
    674    681    682    684     1  180.0000771  4.1840000  2
    673    672    677    679     1  180.0000771  15.1670000  2
    673    674    681    679     1  180.0000771  15.1670000  2
    673    674    681    682     1  180.0000771  15.1670000  2
    672    673    674    681     1  180.0000771  15.1670000  2
    672    677    679    681     1  180.0000771  15.1670000  2
    671    670    672    673     1  180.0000771  2.4267200  2
    671    670    672    677     1  180.0000771  2.4267200  2
    670    672    673    674     1  180.0000771  15.1670000  2
    670    672    677    679     1  180.0000771  15.1670000  2
    669    670    672    673     1  180.0000771  4.1840000  2
    669    670    672    677     1  180.0000771  4.1840000  2
    666    669    670    671     1  180.0000771  5.8576000  1
    666    669    670    671     1  180.0000771  11.2968000  2
    666    669    670    672     1  180.0000771  6.6944000  1
    666    669    670    672     1  180.0000771  15.3552800  2
    666    669    670    672     1  0.0000000  1.2970400  3
    719    722    725    726     1  180.0000771  3.3472000  1
    719    722    725    726     1  0.0000000  1.6024720  3
    716    719    722    725     1  0.0000000  0.6508444  3
    713    716    719    722     1  0.0000000  2.1756800  3
    712    713    716    719     1  0.0000000  0.6508444  3
    711    710    712    713     1  180.0000771  5.8576000  1
    711    710    712    713     1  180.0000771  11.2968000  2
    710    712    713    716     1  180.0000771  3.3472000  1
    710    712    713    716     1  0.0000000  1.6024720  3
    709    710    712    713     1  180.0000771  6.6944000  1
    709    710    712    713     1  180.0000771  15.3552800  2
    709    710    712    713     1  0.0000000  1.2970400  3
    707    709    710    711     1  180.0000771  2.4267200  2
    707    709    710    712     1  180.0000771  4.1840000  2
    705    707    709    710     1  180.0000771  15.1670000  2
    702    701    700    705     1  180.0000771  15.1670000  2
    702    709    707    705     1  180.0000771  15.1670000  2
    702    709    710    711     1  180.0000771  2.4267200  2
    702    709    710    712     1  180.0000771  4.1840000  2
    701    700    705    707     1  180.0000771  15.1670000  2
    701    702    709    707     1  180.0000771  15.1670000  2
    701    702    709    710     1  180.0000771  15.1670000  2
    700    701    702    709     1  180.0000771  15.1670000  2
    700    705    707    709     1  180.0000771  15.1670000  2
    699    698    700    701     1  180.0000771  2.4267200  2
    699    698    700    705     1  180.0000771  2.4267200  2
    698    700    701    702     1  180.0000771  15.1670000  2
    698    700    705    707     1  180.0000771  15.1670000  2
    697    698    700    701     1  180.0000771  4.1840000  2
    697    698    700    705     1  180.0000771  4.1840000  2
    694    697    698    699     1  180.0000771  5.8576000  1
    694    697    698    699     1  180.0000771  11.2968000  2
    694    697    698    700     1  180.0000771  6.6944000  1
    694    697    698    700     1  180.0000771  15.3552800  2
    694    697    698    700     1  0.0000000  1.2970400  3
    747    750    753    754     1  180.0000771  3.3472000  1
    747    750    753    754     1  0.0000000  1.6024720  3
    744    747    750    753     1  0.0000000  0.6508444  3
    741    744    747    750     1  0.0000000  2.1756800  3
    740    741    744    747     1  0.0000000  0.6508444  3
    739    738    740    741     1  180.0000771  5.8576000  1
    739    738    740    741     1  180.0000771  11.2968000  2
    738    740    741    744     1  180.0000771  3.3472000  1
    738    740    741    744     1  0.0000000  1.6024720  3
    737    738    740    741     1  180.0000771  6.6944000  1
    737    738    740    741     1  180.0000771  15.3552800  2
    737    738    740    741     1  0.0000000  1.2970400  3
    735    737    738    739     1  180.0000771  2.4267200  2
    735    737    738    740     1  180.0000771  4.1840000  2
    733    735    737    738     1  180.0000771  15.1670000  2
    730    729    728    733     1  180.0000771  15.1670000  2
    730    737    735    733     1  180.0000771  15.1670000  2
    730    737    738    739     1  180.0000771  2.4267200  2
    730    737    738    740     1  180.0000771  4.1840000  2
    729    728    733    735     1  180.0000771  15.1670000  2
    729    730    737    735     1  180.0000771  15.1670000  2
    729    730    737    738     1  180.0000771  15.1670000  2
    728    729    730    737     1  180.0000771  15.1670000  2
    728    733    735    737     1  180.0000771  15.1670000  2
    727    726    728    729     1  180.0000771  2.4267200  2
    727    726    728    733     1  180.0000771  2.4267200  2
    726    728    729    730     1  180.0000771  15.1670000  2
    726    728    733    735     1  180.0000771  15.1670000  2
    725    726    728    729     1  180.0000771  4.1840000  2
    725    726    728    733     1  180.0000771  4.1840000  2
    722    725    726    727     1  180.0000771  5.8576000  1
    722    725    726    727     1  180.0000771  11.2968000  2
    722    725    726    728     1  180.0000771  6.6944000  1
    722    725    726    728     1  180.0000771  15.3552800  2
    722    725    726    728     1  0.0000000  1.2970400  3
    775    778    781    782     1  180.0000771  3.6819200  1
    775    778    781    782     1  0.0000000  0.3347200  2
    775    778    781    782     1  0.0000000  3.1380000  3
    772    775    778    781     1  0.0000000  0.6508444  3
    769    772    775    778     1  0.0000000  2.1756800  3
    768    769    772    775     1  0.0000000  0.6508444  3
    767    766    768    769     1  180.0000771  5.8576000  1
    767    766    768    769     1  180.0000771  11.2968000  2
    766    768    769    772     1  180.0000771  3.3472000  1
    766    768    769    772     1  0.0000000  1.6024720  3
    765    766    768    769     1  180.0000771  6.6944000  1
    765    766    768    769     1  180.0000771  15.3552800  2
    765    766    768    769     1  0.0000000  1.2970400  3
    763    765    766    767     1  180.0000771  2.4267200  2
    763    765    766    768     1  180.0000771  4.1840000  2
    761    763    765    766     1  180.0000771  15.1670000  2
    758    757    756    761     1  180.0000771  15.1670000  2
    758    765    763    761     1  180.0000771  15.1670000  2
    758    765    766    767     1  180.0000771  2.4267200  2
    758    765    766    768     1  180.0000771  4.1840000  2
    757    756    761    763     1  180.0000771  15.1670000  2
    757    758    765    763     1  180.0000771  15.1670000  2
    757    758    765    766     1  180.0000771  15.1670000  2
    756    757    758    765     1  180.0000771  15.1670000  2
    756    761    763    765     1  180.0000771  15.1670000  2
    755    754    756    757     1  180.0000771  2.4267200  2
    755    754    756    761     1  180.0000771  2.4267200  2
    754    756    757    758     1  180.0000771  15.1670000  2
    754    756    761    763     1  180.0000771  15.1670000  2
    753    754    756    757     1  180.0000771  4.1840000  2
    753    754    756    761     1  180.0000771  4.1840000  2
    750    753    754    755     1  180.0000771  5.8576000  1
    750    753    754    755     1  180.0000771  11.2968000  2
    750    753    754    756     1  180.0000771  6.6944000  1
    750    753    754    756     1  180.0000771  15.3552800  2
    750    753    754    756     1  0.0000000  1.2970400  3
    810    813    816    817     1  180.0000771  3.6819200  1
    810    813    816    817     1  0.0000000  0.3347200  2
    810    813    816    817     1  0.0000000  3.1380000  3
    809    810    813    816     1  0.0000000  0.7531200  1
    809    810    813    816     1  0.0000000  3.7656000  2
    809    810    813    816     1  0.0000000  2.0920000  3
    806    809    810    813     1  180.0000771  3.6819200  1
    806    809    810    813     1  0.0000000  0.3347200  2
    806    809    810    813     1  0.0000000  3.1380000  3
    803    806    809    810     1  180.0000771  3.6819200  1
    803    806    809    810     1  0.0000000  0.3347200  2
    803    806    809    810     1  0.0000000  3.1380000  3
    802    803    806    809     1  0.0000000  0.7531200  1
    802    803    806    809     1  0.0000000  3.7656000  2
    802    803    806    809     1  0.0000000  2.0920000  3
    799    802    803    806     1  180.0000771  3.6819200  1
    799    802    803    806     1  0.0000000  0.3347200  2
    799    802    803    806     1  0.0000000  3.1380000  3
    796    799    802    803     1  180.0000771  3.6819200  1
    796    799    802    803     1  0.0000000  0.3347200  2
    796    799    802    803     1  0.0000000  3.1380000  3
    795    796    799    802     1  0.0000000  0.7531200  1
    795    796    799    802     1  0.0000000  3.7656000  2
    795    796    799    802     1  0.0000000  2.0920000  3
    792    795    796    799     1  180.0000771  3.6819200  1
    792    795    796    799     1  0.0000000  0.3347200  2
    792    795    796    799     1  0.0000000  3.1380000  3
    789    792    795    796     1  180.0000771  3.6819200  1
    789    792    795    796     1  0.0000000  0.3347200  2
    789    792    795    796     1  0.0000000  3.1380000  3
    788    789    792    795     1  0.0000000  0.7531200  1
    788    789    792    795     1  0.0000000  3.7656000  2
    788    789    792    795     1  0.0000000  2.0920000  3
    785    788    789    792     1  180.0000771  3.6819200  1
    785    788    789    792     1  0.0000000  0.3347200  2
    785    788    789    792     1  0.0000000  3.1380000  3
    782    785    788    789     1  180.0000771  3.6819200  1
    782    785    788    789     1  0.0000000  0.3347200  2
    782    785    788    789     1  0.0000000  3.1380000  3
    781    782    785    788     1  0.0000000  0.7531200  1
    781    782    785    788     1  0.0000000  3.7656000  2
    781    782    785    788     1  0.0000000  2.0920000  3
    778    781    782    785     1  180.0000771  3.6819200  1
    778    781    782    785     1  0.0000000  0.3347200  2
    778    781    782    785     1  0.0000000  3.1380000  3
    845    848    851    852     1  180.0000771  3.3472000  1
    845    848    851    852     1  0.0000000  1.6024720  3
    844    845    848    851     1  0.0000000  0.7531200  1
    844    845    848    851     1  0.0000000  3.7656000  2
    844    845    848    851     1  0.0000000  2.0920000  3
    841    844    845    848     1  180.0000771  3.6819200  1
    841    844    845    848     1  0.0000000  0.3347200  2
    841    844    845    848     1  0.0000000  3.1380000  3
    838    841    844    845     1  180.0000771  3.6819200  1
    838    841    844    845     1  0.0000000  0.3347200  2
    838    841    844    845     1  0.0000000  3.1380000  3
    837    838    841    844     1  0.0000000  0.7531200  1
    837    838    841    844     1  0.0000000  3.7656000  2
    837    838    841    844     1  0.0000000  2.0920000  3
    834    837    838    841     1  180.0000771  3.6819200  1
    834    837    838    841     1  0.0000000  0.3347200  2
    834    837    838    841     1  0.0000000  3.1380000  3
    831    834    837    838     1  180.0000771  3.6819200  1
    831    834    837    838     1  0.0000000  0.3347200  2
    831    834    837    838     1  0.0000000  3.1380000  3
    830    831    834    837     1  0.0000000  0.7531200  1
    830    831    834    837     1  0.0000000  3.7656000  2
    830    831    834    837     1  0.0000000  2.0920000  3
    827    830    831    834     1  180.0000771  3.6819200  1
    827    830    831    834     1  0.0000000  0.3347200  2
    827    830    831    834     1  0.0000000  3.1380000  3
    824    827    830    831     1  180.0000771  3.6819200  1
    824    827    830    831     1  0.0000000  0.3347200  2
    824    827    830    831     1  0.0000000  3.1380000  3
    823    824    827    830     1  0.0000000  0.7531200  1
    823    824    827    830     1  0.0000000  3.7656000  2
    823    824    827    830     1  0.0000000  2.0920000  3
    820    823    824    827     1  180.0000771  3.6819200  1
    820    823    824    827     1  0.0000000  0.3347200  2
    820    823    824    827     1  0.0000000  3.1380000  3
    817    820    823    824     1  180.0000771  3.6819200  1
    817    820    823    824     1  0.0000000  0.3347200  2
    817    820    823    824     1  0.0000000  3.1380000  3
    816    817    820    823     1  0.0000000  0.7531200  1
    816    817    820    823     1  0.0000000  3.7656000  2
    816    817    820    823     1  0.0000000  2.0920000  3
    813    816    817    820     1  180.0000771  3.6819200  1
    813    816    817    820     1  0.0000000  0.3347200  2
    813    816    817    820     1  0.0000000  3.1380000  3
    866    867    870    873     1  0.0000000  0.6508444  3
    865    864    866    867     1  180.0000771  5.8576000  1
    865    864    866    867     1  180.0000771  11.2968000  2
    864    866    867    870     1  180.0000771  3.3472000  1
    864    866    867    870     1  0.0000000  1.6024720  3
    863    864    866    867     1  180.0000771  6.6944000  1
    863    864    866    867     1  180.0000771  15.3552800  2
    863    864    866    867     1  0.0000000  1.2970400  3
    861    863    864    865     1  180.0000771  2.4267200  2
    861    863    864    866     1  180.0000771  4.1840000  2
    859    861    863    864     1  180.0000771  15.1670000  2
    856    855    854    859     1  180.0000771  15.1670000  2
    856    863    861    859     1  180.0000771  15.1670000  2
    856    863    864    865     1  180.0000771  2.4267200  2
    856    863    864    866     1  180.0000771  4.1840000  2
    855    854    859    861     1  180.0000771  15.1670000  2
    855    856    863    861     1  180.0000771  15.1670000  2
    855    856    863    864     1  180.0000771  15.1670000  2
    854    855    856    863     1  180.0000771  15.1670000  2
    854    859    861    863     1  180.0000771  15.1670000  2
    853    852    854    855     1  180.0000771  2.4267200  2
    853    852    854    859     1  180.0000771  2.4267200  2
    852    854    855    856     1  180.0000771  15.1670000  2
    852    854    859    861     1  180.0000771  15.1670000  2
    851    852    854    855     1  180.0000771  4.1840000  2
    851    852    854    859     1  180.0000771  4.1840000  2
    848    851    852    853     1  180.0000771  5.8576000  1
    848    851    852    853     1  180.0000771  11.2968000  2
    848    851    852    854     1  180.0000771  6.6944000  1
    848    851    852    854     1  180.0000771  15.3552800  2
    848    851    852    854     1  0.0000000  1.2970400  3
     16     19     17     18     4  180.0000771  43.9320000  2
      4      7      5      6     4  180.0000771  43.9320000  2
     44     47     45     46     4  180.0000771  43.9320000  2
     32     35     33     34     4  180.0000771  43.9320000  2
     72     75     73     74     4  180.0000771  43.9320000  2
     60     63     61     62     4  180.0000771  43.9320000  2
    100    103    101    102     4  180.0000771  43.9320000  2
     88     91     89     90     4  180.0000771  43.9320000  2
    128    131    129    130     4  180.0000771  43.9320000  2
    116    119    117    118     4  180.0000771  43.9320000  2
    156    159    157    158     4  180.0000771  43.9320000  2
    144    147    145    146     4  180.0000771  43.9320000  2
    219    222    220    221     4  180.0000771  43.9320000  2
    207    210    208    209     4  180.0000771  43.9320000  2
    247    250    248    249     4  180.0000771  43.9320000  2
    235    238    236    237     4  180.0000771  43.9320000  2
    275    278    276    277     4  180.0000771  43.9320000  2
    263    266    264    265     4  180.0000771  43.9320000  2
    303    306    304    305     4  180.0000771  43.9320000  2
    291    294    292    293     4  180.0000771  43.9320000  2
    331    334    332    333     4  180.0000771  43.9320000  2
    319    322    320    321     4  180.0000771  43.9320000  2
    359    362    360    361     4  180.0000771  43.9320000  2
    347    350    348    349     4  180.0000771  43.9320000  2
    387    390    388    389     4  180.0000771  43.9320000  2
    375    378    376    377     4  180.0000771  43.9320000  2
    415    418    416    417     4  180.0000771  43.9320000  2
    403    406    404    405     4  180.0000771  43.9320000  2
    443    446    444    445     4  180.0000771  43.9320000  2
    431    434    432    433     4  180.0000771  43.9320000  2
    506    509    507    508     4  180.0000771  43.9320000  2
    494    497    495    496     4  180.0000771  43.9320000  2
    534    537    535    536     4  180.0000771  43.9320000  2
    522    525    523    524     4  180.0000771  43.9320000  2
    562    565    563    564     4  180.0000771  43.9320000  2
    550    553    551    552     4  180.0000771  43.9320000  2
    590    593    591    592     4  180.0000771  43.9320000  2
    578    581    579    580     4  180.0000771  43.9320000  2
    618    621    619    620     4  180.0000771  43.9320000  2
    606    609    607    608     4  180.0000771  43.9320000  2
    681    684    682    683     4  180.0000771  43.9320000  2
    669    672    670    671     4  180.0000771  43.9320000  2
    709    712    710    711     4  180.0000771  43.9320000  2
    697    700    698    699     4  180.0000771  43.9320000  2
    737    740    738    739     4  180.0000771  43.9320000  2
    725    728    726    727     4  180.0000771  43.9320000  2
    765    768    766    767     4  180.0000771  43.9320000  2
    753    756    754    755     4  180.0000771  43.9320000  2
    863    866    864    865     4  180.0000771  43.9320000  2
    851    854    852    853     4  180.0000771  43.9320000  2
     28     26     29     30     1  0.0000000  0.6508444  3
     28     26     29     31     1  0.0000000  0.6508444  3
     28     26     29     32     1  0.0000000  1.0460000  1
     28     26     29     32     1  0.0000000  0.0000000  3
     27     26     29     30     1  0.0000000  0.6508444  3
     27     26     29     31     1  0.0000000  0.6508444  3
     27     26     29     32     1  0.0000000  1.0460000  1
     27     26     29     32     1  0.0000000  0.0000000  3
     25     23     26     27     1  0.0000000  0.5020800  3
     25     23     26     28     1  0.0000000  0.5020800  3
     25     23     26     29     1  0.0000000  0.5439200  3
     24     23     26     27     1  0.0000000  0.5020800  3
     24     23     26     28     1  0.0000000  0.5020800  3
     24     23     26     29     1  0.0000000  0.5439200  3
     23     26     29     30     1  0.0000000  0.6508444  3
     23     26     29     31     1  0.0000000  0.6508444  3
     22     20     23     24     1  0.0000000  0.6508444  3
     22     20     23     25     1  0.0000000  0.6508444  3
     22     20     23     26     1  0.0000000  0.6508444  3
     21     20     23     24     1  0.0000000  0.6508444  3
     21     20     23     25     1  0.0000000  0.6508444  3
     21     20     23     26     1  0.0000000  0.6508444  3
     20     23     26     27     1  0.0000000  0.5439200  3
     20     23     26     28     1  0.0000000  0.5439200  3
     19     20     23     24     1  0.0000000  1.0460000  1
     19     20     23     24     1  0.0000000  0.0000000  3
     19     20     23     25     1  0.0000000  1.0460000  1
     19     20     23     25     1  0.0000000  0.0000000  3
     17     19     20     21     1  0.0000000  1.6038667  3
     17     19     20     22     1  0.0000000  1.6038667  3
     15     14     16     17     1  180.0000771  15.1670000  2
     13     12     14     15     1  180.0000771  15.1670000  2
     13     12     14     16     1  180.0000771  15.1670000  2
     11      8      7     12     1  180.0000771  15.1670000  2
     11      8      9     16     1  180.0000771  15.1670000  2
     10      9      8     11     1  180.0000771  15.1670000  2
     10      9     16     14     1  180.0000771  15.1670000  2
     10      9     16     17     1  180.0000771  15.1670000  2
      9     16     14     15     1  180.0000771  15.1670000  2
      8      7     12     13     1  180.0000771  15.1670000  2
      7      8      9     10     1  180.0000771  15.1670000  2
      7     12     14     15     1  180.0000771  15.1670000  2
      5      7      8     11     1  180.0000771  15.1670000  2
      5      7     12     13     1  180.0000771  15.1670000  2
      3      1      4      5     1  0.0000000  1.6038667  3
      2      1      4      5     1  0.0000000  1.6038667  3
     56     54     57     58     1  0.0000000  0.6508444  3
     56     54     57     59     1  0.0000000  0.6508444  3
     56     54     57     60     1  0.0000000  1.0460000  1
     56     54     57     60     1  0.0000000  0.0000000  3
     55     54     57     58     1  0.0000000  0.6508444  3
     55     54     57     59     1  0.0000000  0.6508444  3
     55     54     57     60     1  0.0000000  1.0460000  1
     55     54     57     60     1  0.0000000  0.0000000  3
     53     51     54     55     1  0.0000000  0.5020800  3
     53     51     54     56     1  0.0000000  0.5020800  3
     53     51     54     57     1  0.0000000  0.5439200  3
     52     51     54     55     1  0.0000000  0.5020800  3
     52     51     54     56     1  0.0000000  0.5020800  3
     52     51     54     57     1  0.0000000  0.5439200  3
     51     54     57     58     1  0.0000000  0.6508444  3
     51     54     57     59     1  0.0000000  0.6508444  3
     50     48     51     52     1  0.0000000  0.6508444  3
     50     48     51     53     1  0.0000000  0.6508444  3
     50     48     51     54     1  0.0000000  0.6508444  3
     49     48     51     52     1  0.0000000  0.6508444  3
     49     48     51     53     1  0.0000000  0.6508444  3
     49     48     51     54     1  0.0000000  0.6508444  3
     48     51     54     55     1  0.0000000  0.5439200  3
     48     51     54     56     1  0.0000000  0.5439200  3
     47     48     51     52     1  0.0000000  1.0460000  1
     47     48     51     52     1  0.0000000  0.0000000  3
     47     48     51     53     1  0.0000000  1.0460000  1
     47     48     51     53     1  0.0000000  0.0000000  3
     45     47     48     49     1  0.0000000  1.6038667  3
     45     47     48     50     1  0.0000000  1.6038667  3
     43     42     44     45     1  180.0000771  15.1670000  2
     41     40     42     43     1  180.0000771  15.1670000  2
     41     40     42     44     1  180.0000771  15.1670000  2
     39     36     35     40     1  180.0000771  15.1670000  2
     39     36     37     44     1  180.0000771  15.1670000  2
     38     37     36     39     1  180.0000771  15.1670000  2
     38     37     44     42     1  180.0000771  15.1670000  2
     38     37     44     45     1  180.0000771  15.1670000  2
     37     44     42     43     1  180.0000771  15.1670000  2
     36     35     40     41     1  180.0000771  15.1670000  2
     35     36     37     38     1  180.0000771  15.1670000  2
     35     40     42     43     1  180.0000771  15.1670000  2
     33     35     36     39     1  180.0000771  15.1670000  2
     33     35     40     41     1  180.0000771  15.1670000  2
     31     29     32     33     1  0.0000000  1.6038667  3
     30     29     32     33     1  0.0000000  1.6038667  3
     84     82     85     86     1  0.0000000  0.6508444  3
     84     82     85     87     1  0.0000000  0.6508444  3
     84     82     85     88     1  0.0000000  1.0460000  1
     84     82     85     88     1  0.0000000  0.0000000  3
     83     82     85     86     1  0.0000000  0.6508444  3
     83     82     85     87     1  0.0000000  0.6508444  3
     83     82     85     88     1  0.0000000  1.0460000  1
     83     82     85     88     1  0.0000000  0.0000000  3
     81     79     82     83     1  0.0000000  0.5020800  3
     81     79     82     84     1  0.0000000  0.5020800  3
     81     79     82     85     1  0.0000000  0.5439200  3
     80     79     82     83     1  0.0000000  0.5020800  3
     80     79     82     84     1  0.0000000  0.5020800  3
     80     79     82     85     1  0.0000000  0.5439200  3
     79     82     85     86     1  0.0000000  0.6508444  3
     79     82     85     87     1  0.0000000  0.6508444  3
     78     76     79     80     1  0.0000000  0.6508444  3
     78     76     79     81     1  0.0000000  0.6508444  3
     78     76     79     82     1  0.0000000  0.6508444  3
     77     76     79     80     1  0.0000000  0.6508444  3
     77     76     79     81     1  0.0000000  0.6508444  3
     77     76     79     82     1  0.0000000  0.6508444  3
     76     79     82     83     1  0.0000000  0.5439200  3
     76     79     82     84     1  0.0000000  0.5439200  3
     75     76     79     80     1  0.0000000  1.0460000  1
     75     76     79     80     1  0.0000000  0.0000000  3
     75     76     79     81     1  0.0000000  1.0460000  1
     75     76     79     81     1  0.0000000  0.0000000  3
     73     75     76     77     1  0.0000000  1.6038667  3
     73     75     76     78     1  0.0000000  1.6038667  3
     71     70     72     73     1  180.0000771  15.1670000  2
     69     68     70     71     1  180.0000771  15.1670000  2
     69     68     70     72     1  180.0000771  15.1670000  2
     67     64     63     68     1  180.0000771  15.1670000  2
     67     64     65     72     1  180.0000771  15.1670000  2
     66     65     64     67     1  180.0000771  15.1670000  2
     66     65     72     70     1  180.0000771  15.1670000  2
     66     65     72     73     1  180.0000771  15.1670000  2
     65     72     70     71     1  180.0000771  15.1670000  2
     64     63     68     69     1  180.0000771  15.1670000  2
     63     64     65     66     1  180.0000771  15.1670000  2
     63     68     70     71     1  180.0000771  15.1670000  2
     61     63     64     67     1  180.0000771  15.1670000  2
     61     63     68     69     1  180.0000771  15.1670000  2
     59     57     60     61     1  0.0000000  1.6038667  3
     58     57     60     61     1  0.0000000  1.6038667  3
    112    110    113    114     1  0.0000000  0.6508444  3
    112    110    113    115     1  0.0000000  0.6508444  3
    112    110    113    116     1  0.0000000  1.0460000  1
    112    110    113    116     1  0.0000000  0.0000000  3
    111    110    113    114     1  0.0000000  0.6508444  3
    111    110    113    115     1  0.0000000  0.6508444  3
    111    110    113    116     1  0.0000000  1.0460000  1
    111    110    113    116     1  0.0000000  0.0000000  3
    109    107    110    111     1  0.0000000  0.5020800  3
    109    107    110    112     1  0.0000000  0.5020800  3
    109    107    110    113     1  0.0000000  0.5439200  3
    108    107    110    111     1  0.0000000  0.5020800  3
    108    107    110    112     1  0.0000000  0.5020800  3
    108    107    110    113     1  0.0000000  0.5439200  3
    107    110    113    114     1  0.0000000  0.6508444  3
    107    110    113    115     1  0.0000000  0.6508444  3
    106    104    107    108     1  0.0000000  0.6508444  3
    106    104    107    109     1  0.0000000  0.6508444  3
    106    104    107    110     1  0.0000000  0.6508444  3
    105    104    107    108     1  0.0000000  0.6508444  3
    105    104    107    109     1  0.0000000  0.6508444  3
    105    104    107    110     1  0.0000000  0.6508444  3
    104    107    110    111     1  0.0000000  0.5439200  3
    104    107    110    112     1  0.0000000  0.5439200  3
    103    104    107    108     1  0.0000000  1.0460000  1
    103    104    107    108     1  0.0000000  0.0000000  3
    103    104    107    109     1  0.0000000  1.0460000  1
    103    104    107    109     1  0.0000000  0.0000000  3
    101    103    104    105     1  0.0000000  1.6038667  3
    101    103    104    106     1  0.0000000  1.6038667  3
     99     98    100    101     1  180.0000771  15.1670000  2
     97     96     98     99     1  180.0000771  15.1670000  2
     97     96     98    100     1  180.0000771  15.1670000  2
     95     92     91     96     1  180.0000771  15.1670000  2
     95     92     93    100     1  180.0000771  15.1670000  2
     94     93     92     95     1  180.0000771  15.1670000  2
     94     93    100     98     1  180.0000771  15.1670000  2
     94     93    100    101     1  180.0000771  15.1670000  2
     93    100     98     99     1  180.0000771  15.1670000  2
     92     91     96     97     1  180.0000771  15.1670000  2
     91     92     93     94     1  180.0000771  15.1670000  2
     91     96     98     99     1  180.0000771  15.1670000  2
     89     91     92     95     1  180.0000771  15.1670000  2
     89     91     96     97     1  180.0000771  15.1670000  2
     87     85     88     89     1  0.0000000  1.6038667  3
     86     85     88     89     1  0.0000000  1.6038667  3
    140    138    141    142     1  0.0000000  0.6508444  3
    140    138    141    143     1  0.0000000  0.6508444  3
    140    138    141    144     1  0.0000000  1.0460000  1
    140    138    141    144     1  0.0000000  0.0000000  3
    139    138    141    142     1  0.0000000  0.6508444  3
    139    138    141    143     1  0.0000000  0.6508444  3
    139    138    141    144     1  0.0000000  1.0460000  1
    139    138    141    144     1  0.0000000  0.0000000  3
    137    135    138    139     1  0.0000000  0.5020800  3
    137    135    138    140     1  0.0000000  0.5020800  3
    137    135    138    141     1  0.0000000  0.5439200  3
    136    135    138    139     1  0.0000000  0.5020800  3
    136    135    138    140     1  0.0000000  0.5020800  3
    136    135    138    141     1  0.0000000  0.5439200  3
    135    138    141    142     1  0.0000000  0.6508444  3
    135    138    141    143     1  0.0000000  0.6508444  3
    134    132    135    136     1  0.0000000  0.6508444  3
    134    132    135    137     1  0.0000000  0.6508444  3
    134    132    135    138     1  0.0000000  0.6508444  3
    133    132    135    136     1  0.0000000  0.6508444  3
    133    132    135    137     1  0.0000000  0.6508444  3
    133    132    135    138     1  0.0000000  0.6508444  3
    132    135    138    139     1  0.0000000  0.5439200  3
    132    135    138    140     1  0.0000000  0.5439200  3
    131    132    135    136     1  0.0000000  1.0460000  1
    131    132    135    136     1  0.0000000  0.0000000  3
    131    132    135    137     1  0.0000000  1.0460000  1
    131    132    135    137     1  0.0000000  0.0000000  3
    129    131    132    133     1  0.0000000  1.6038667  3
    129    131    132    134     1  0.0000000  1.6038667  3
    127    126    128    129     1  180.0000771  15.1670000  2
    125    124    126    127     1  180.0000771  15.1670000  2
    125    124    126    128     1  180.0000771  15.1670000  2
    123    120    119    124     1  180.0000771  15.1670000  2
    123    120    121    128     1  180.0000771  15.1670000  2
    122    121    120    123     1  180.0000771  15.1670000  2
    122    121    128    126     1  180.0000771  15.1670000  2
    122    121    128    129     1  180.0000771  15.1670000  2
    121    128    126    127     1  180.0000771  15.1670000  2
    120    119    124    125     1  180.0000771  15.1670000  2
    119    120    121    122     1  180.0000771  15.1670000  2
    119    124    126    127     1  180.0000771  15.1670000  2
    117    119    120    123     1  180.0000771  15.1670000  2
    117    119    124    125     1  180.0000771  15.1670000  2
    115    113    116    117     1  0.0000000  1.6038667  3
    114    113    116    117     1  0.0000000  1.6038667  3
    168    166    169    170     1  0.0000000  0.6508444  3
    168    166    169    171     1  0.0000000  0.6508444  3
    168    166    169    172     1  0.0000000  1.0460000  1
    168    166    169    172     1  0.0000000  0.0000000  3
    167    166    169    170     1  0.0000000  0.6508444  3
    167    166    169    171     1  0.0000000  0.6508444  3
    167    166    169    172     1  0.0000000  1.0460000  1
    167    166    169    172     1  0.0000000  0.0000000  3
    165    163    166    167     1  0.0000000  0.5020800  3
    165    163    166    168     1  0.0000000  0.5020800  3
    165    163    166    169     1  0.0000000  0.5439200  3
    164    163    166    167     1  0.0000000  0.5020800  3
    164    163    166    168     1  0.0000000  0.5020800  3
    164    163    166    169     1  0.0000000  0.5439200  3
    163    166    169    170     1  0.0000000  0.6508444  3
    163    166    169    171     1  0.0000000  0.6508444  3
    162    160    163    164     1  0.0000000  0.6508444  3
    162    160    163    165     1  0.0000000  0.6508444  3
    162    160    163    166     1  0.0000000  0.6508444  3
    161    160    163    164     1  0.0000000  0.6508444  3
    161    160    163    165     1  0.0000000  0.6508444  3
    161    160    163    166     1  0.0000000  0.6508444  3
    160    163    166    167     1  0.0000000  0.5439200  3
    160    163    166    168     1  0.0000000  0.5439200  3
    159    160    163    164     1  0.0000000  1.0460000  1
    159    160    163    164     1  0.0000000  0.0000000  3
    159    160    163    165     1  0.0000000  1.0460000  1
    159    160    163    165     1  0.0000000  0.0000000  3
    157    159    160    161     1  0.0000000  1.6038667  3
    157    159    160    162     1  0.0000000  1.6038667  3
    155    154    156    157     1  180.0000771  15.1670000  2
    153    152    154    155     1  180.0000771  15.1670000  2
    153    152    154    156     1  180.0000771  15.1670000  2
    151    148    147    152     1  180.0000771  15.1670000  2
    151    148    149    156     1  180.0000771  15.1670000  2
    150    149    148    151     1  180.0000771  15.1670000  2
    150    149    156    154     1  180.0000771  15.1670000  2
    150    149    156    157     1  180.0000771  15.1670000  2
    149    156    154    155     1  180.0000771  15.1670000  2
    148    147    152    153     1  180.0000771  15.1670000  2
    147    148    149    150     1  180.0000771  15.1670000  2
    147    152    154    155     1  180.0000771  15.1670000  2
    145    147    148    151     1  180.0000771  15.1670000  2
    145    147    152    153     1  180.0000771  15.1670000  2
    143    141    144    145     1  0.0000000  1.6038667  3
    142    141    144    145     1  0.0000000  1.6038667  3
    203    201    204    205     1  0.0000000  0.6508444  3
    203    201    204    206     1  0.0000000  0.6508444  3
    203    201    204    207     1  0.0000000  1.0460000  1
    203    201    204    207     1  0.0000000  0.0000000  3
    202    201    204    205     1  0.0000000  0.6508444  3
    202    201    204    206     1  0.0000000  0.6508444  3
    202    201    204    207     1  0.0000000  1.0460000  1
    202    201    204    207     1  0.0000000  0.0000000  3
    200    201    204    205     1  0.0000000  1.0460000  1
    200    201    204    205     1  0.0000000  0.0000000  3
    200    201    204    206     1  0.0000000  1.0460000  1
    200    201    204    206     1  0.0000000  0.0000000  3
    199    197    200    201     1  0.0000000  1.4100080  3
    198    197    200    201     1  0.0000000  1.4100080  3
    197    200    201    202     1  0.0000000  1.4100080  3
    197    200    201    203     1  0.0000000  1.4100080  3
    196    194    197    198     1  0.0000000  0.6508444  3
    196    194    197    199     1  0.0000000  0.6508444  3
    196    194    197    200     1  0.0000000  1.0460000  1
    196    194    197    200     1  0.0000000  0.0000000  3
    195    194    197    198     1  0.0000000  0.6508444  3
    195    194    197    199     1  0.0000000  0.6508444  3
    195    194    197    200     1  0.0000000  1.0460000  1
    195    194    197    200     1  0.0000000  0.0000000  3
    193    194    197    198     1  0.0000000  1.0460000  1
    193    194    197    198     1  0.0000000  0.0000000  3
    193    194    197    199     1  0.0000000  1.0460000  1
    193    194    197    199     1  0.0000000  0.0000000  3
    192    190    193    194     1  0.0000000  1.4100080  3
    191    190    193    194     1  0.0000000  1.4100080  3
    190    193    194    195     1  0.0000000  1.4100080  3
    190    193    194    196     1  0.0000000  1.4100080  3
    189    187    190    191     1  0.0000000  0.6508444  3
    189    187    190    192     1  0.0000000  0.6508444  3
    189    187    190    193     1  0.0000000  1.0460000  1
    189    187    190    193     1  0.0000000  0.0000000  3
    188    187    190    191     1  0.0000000  0.6508444  3
    188    187    190    192     1  0.0000000  0.6508444  3
    188    187    190    193     1  0.0000000  1.0460000  1
    188    187    190    193     1  0.0000000  0.0000000  3
    186    187    190    191     1  0.0000000  1.0460000  1
    186    187    190    191     1  0.0000000  0.0000000  3
    186    187    190    192     1  0.0000000  1.0460000  1
    186    187    190    192     1  0.0000000  0.0000000  3
    185    183    186    187     1  0.0000000  1.4100080  3
    184    183    186    187     1  0.0000000  1.4100080  3
    183    186    187    188     1  0.0000000  1.4100080  3
    183    186    187    189     1  0.0000000  1.4100080  3
    182    180    183    184     1  0.0000000  0.6508444  3
    182    180    183    185     1  0.0000000  0.6508444  3
    182    180    183    186     1  0.0000000  1.0460000  1
    182    180    183    186     1  0.0000000  0.0000000  3
    181    180    183    184     1  0.0000000  0.6508444  3
    181    180    183    185     1  0.0000000  0.6508444  3
    181    180    183    186     1  0.0000000  1.0460000  1
    181    180    183    186     1  0.0000000  0.0000000  3
    179    180    183    184     1  0.0000000  1.0460000  1
    179    180    183    184     1  0.0000000  0.0000000  3
    179    180    183    185     1  0.0000000  1.0460000  1
    179    180    183    185     1  0.0000000  0.0000000  3
    178    176    179    180     1  0.0000000  1.4100080  3
    177    176    179    180     1  0.0000000  1.4100080  3
    176    179    180    181     1  0.0000000  1.4100080  3
    176    179    180    182     1  0.0000000  1.4100080  3
    175    173    176    177     1  0.0000000  0.6508444  3
    175    173    176    178     1  0.0000000  0.6508444  3
    175    173    176    179     1  0.0000000  1.0460000  1
    175    173    176    179     1  0.0000000  0.0000000  3
    174    173    176    177     1  0.0000000  0.6508444  3
    174    173    176    178     1  0.0000000  0.6508444  3
    174    173    176    179     1  0.0000000  1.0460000  1
    174    173    176    179     1  0.0000000  0.0000000  3
    172    173    176    177     1  0.0000000  1.0460000  1
    172    173    176    177     1  0.0000000  0.0000000  3
    172    173    176    178     1  0.0000000  1.0460000  1
    172    173    176    178     1  0.0000000  0.0000000  3
    171    169    172    173     1  0.0000000  1.4100080  3
    170    169    172    173     1  0.0000000  1.4100080  3
    169    172    173    174     1  0.0000000  1.4100080  3
    169    172    173    175     1  0.0000000  1.4100080  3
    231    229    232    233     1  0.0000000  0.6508444  3
    231    229    232    234     1  0.0000000  0.6508444  3
    231    229    232    235     1  0.0000000  1.0460000  1
    231    229    232    235     1  0.0000000  0.0000000  3
    230    229    232    233     1  0.0000000  0.6508444  3
    230    229    232    234     1  0.0000000  0.6508444  3
    230    229    232    235     1  0.0000000  1.0460000  1
    230    229    232    235     1  0.0000000  0.0000000  3
    228    226    229    230     1  0.0000000  0.5020800  3
    228    226    229    231     1  0.0000000  0.5020800  3
    228    226    229    232     1  0.0000000  0.5439200  3
    227    226    229    230     1  0.0000000  0.5020800  3
    227    226    229    231     1  0.0000000  0.5020800  3
    227    226    229    232     1  0.0000000  0.5439200  3
    226    229    232    233     1  0.0000000  0.6508444  3
    226    229    232    234     1  0.0000000  0.6508444  3
    225    223    226    227     1  0.0000000  0.6508444  3
    225    223    226    228     1  0.0000000  0.6508444  3
    225    223    226    229     1  0.0000000  0.6508444  3
    224    223    226    227     1  0.0000000  0.6508444  3
    224    223    226    228     1  0.0000000  0.6508444  3
    224    223    226    229     1  0.0000000  0.6508444  3
    223    226    229    230     1  0.0000000  0.5439200  3
    223    226    229    231     1  0.0000000  0.5439200  3
    222    223    226    227     1  0.0000000  1.0460000  1
    222    223    226    227     1  0.0000000  0.0000000  3
    222    223    226    228     1  0.0000000  1.0460000  1
    222    223    226    228     1  0.0000000  0.0000000  3
    220    222    223    224     1  0.0000000  1.6038667  3
    220    222    223    225     1  0.0000000  1.6038667  3
    218    217    219    220     1  180.0000771  15.1670000  2
    216    215    217    218     1  180.0000771  15.1670000  2
    216    215    217    219     1  180.0000771  15.1670000  2
    214    211    210    215     1  180.0000771  15.1670000  2
    214    211    212    219     1  180.0000771  15.1670000  2
    213    212    211    214     1  180.0000771  15.1670000  2
    213    212    219    217     1  180.0000771  15.1670000  2
    213    212    219    220     1  180.0000771  15.1670000  2
    212    219    217    218     1  180.0000771  15.1670000  2
    211    210    215    216     1  180.0000771  15.1670000  2
    210    211    212    213     1  180.0000771  15.1670000  2
    210    215    217    218     1  180.0000771  15.1670000  2
    208    210    211    214     1  180.0000771  15.1670000  2
    208    210    215    216     1  180.0000771  15.1670000  2
    206    204    207    208     1  0.0000000  1.6038667  3
    205    204    207    208     1  0.0000000  1.6038667  3
    259    257    260    261     1  0.0000000  0.6508444  3
    259    257    260    262     1  0.0000000  0.6508444  3
    259    257    260    263     1  0.0000000  1.0460000  1
    259    257    260    263     1  0.0000000  0.0000000  3
    258    257    260    261     1  0.0000000  0.6508444  3
    258    257    260    262     1  0.0000000  0.6508444  3
    258    257    260    263     1  0.0000000  1.0460000  1
    258    257    260    263     1  0.0000000  0.0000000  3
    256    254    257    258     1  0.0000000  0.5020800  3
    256    254    257    259     1  0.0000000  0.5020800  3
    256    254    257    260     1  0.0000000  0.5439200  3
    255    254    257    258     1  0.0000000  0.5020800  3
    255    254    257    259     1  0.0000000  0.5020800  3
    255    254    257    260     1  0.0000000  0.5439200  3
    254    257    260    261     1  0.0000000  0.6508444  3
    254    257    260    262     1  0.0000000  0.6508444  3
    253    251    254    255     1  0.0000000  0.6508444  3
    253    251    254    256     1  0.0000000  0.6508444  3
    253    251    254    257     1  0.0000000  0.6508444  3
    252    251    254    255     1  0.0000000  0.6508444  3
    252    251    254    256     1  0.0000000  0.6508444  3
    252    251    254    257     1  0.0000000  0.6508444  3
    251    254    257    258     1  0.0000000  0.5439200  3
    251    254    257    259     1  0.0000000  0.5439200  3
    250    251    254    255     1  0.0000000  1.0460000  1
    250    251    254    255     1  0.0000000  0.0000000  3
    250    251    254    256     1  0.0000000  1.0460000  1
    250    251    254    256     1  0.0000000  0.0000000  3
    248    250    251    252     1  0.0000000  1.6038667  3
    248    250    251    253     1  0.0000000  1.6038667  3
    246    245    247    248     1  180.0000771  15.1670000  2
    244    243    245    246     1  180.0000771  15.1670000  2
    244    243    245    247     1  180.0000771  15.1670000  2
    242    239    238    243     1  180.0000771  15.1670000  2
    242    239    240    247     1  180.0000771  15.1670000  2
    241    240    239    242     1  180.0000771  15.1670000  2
    241    240    247    245     1  180.0000771  15.1670000  2
    241    240    247    248     1  180.0000771  15.1670000  2
    240    247    245    246     1  180.0000771  15.1670000  2
    239    238    243    244     1  180.0000771  15.1670000  2
    238    239    240    241     1  180.0000771  15.1670000  2
    238    243    245    246     1  180.0000771  15.1670000  2
    236    238    239    242     1  180.0000771  15.1670000  2
    236    238    243    244     1  180.0000771  15.1670000  2
    234    232    235    236     1  0.0000000  1.6038667  3
    233    232    235    236     1  0.0000000  1.6038667  3
    287    285    288    289     1  0.0000000  0.6508444  3
    287    285    288    290     1  0.0000000  0.6508444  3
    287    285    288    291     1  0.0000000  1.0460000  1
    287    285    288    291     1  0.0000000  0.0000000  3
    286    285    288    289     1  0.0000000  0.6508444  3
    286    285    288    290     1  0.0000000  0.6508444  3
    286    285    288    291     1  0.0000000  1.0460000  1
    286    285    288    291     1  0.0000000  0.0000000  3
    284    282    285    286     1  0.0000000  0.5020800  3
    284    282    285    287     1  0.0000000  0.5020800  3
    284    282    285    288     1  0.0000000  0.5439200  3
    283    282    285    286     1  0.0000000  0.5020800  3
    283    282    285    287     1  0.0000000  0.5020800  3
    283    282    285    288     1  0.0000000  0.5439200  3
    282    285    288    289     1  0.0000000  0.6508444  3
    282    285    288    290     1  0.0000000  0.6508444  3
    281    279    282    283     1  0.0000000  0.6508444  3
    281    279    282    284     1  0.0000000  0.6508444  3
    281    279    282    285     1  0.0000000  0.6508444  3
    280    279    282    283     1  0.0000000  0.6508444  3
    280    279    282    284     1  0.0000000  0.6508444  3
    280    279    282    285     1  0.0000000  0.6508444  3
    279    282    285    286     1  0.0000000  0.5439200  3
    279    282    285    287     1  0.0000000  0.5439200  3
    278    279    282    283     1  0.0000000  1.0460000  1
    278    279    282    283     1  0.0000000  0.0000000  3
    278    279    282    284     1  0.0000000  1.0460000  1
    278    279    282    284     1  0.0000000  0.0000000  3
    276    278    279    280     1  0.0000000  1.6038667  3
    276    278    279    281     1  0.0000000  1.6038667  3
    274    273    275    276     1  180.0000771  15.1670000  2
    272    271    273    274     1  180.0000771  15.1670000  2
    272    271    273    275     1  180.0000771  15.1670000  2
    270    267    266    271     1  180.0000771  15.1670000  2
    270    267    268    275     1  180.0000771  15.1670000  2
    269    268    267    270     1  180.0000771  15.1670000  2
    269    268    275    273     1  180.0000771  15.1670000  2
    269    268    275    276     1  180.0000771  15.1670000  2
    268    275    273    274     1  180.0000771  15.1670000  2
    267    266    271    272     1  180.0000771  15.1670000  2
    266    267    268    269     1  180.0000771  15.1670000  2
    266    271    273    274     1  180.0000771  15.1670000  2
    264    266    267    270     1  180.0000771  15.1670000  2
    264    266    271    272     1  180.0000771  15.1670000  2
    262    260    263    264     1  0.0000000  1.6038667  3
    261    260    263    264     1  0.0000000  1.6038667  3
    315    313    316    317     1  0.0000000  0.6508444  3
    315    313    316    318     1  0.0000000  0.6508444  3
    315    313    316    319     1  0.0000000  1.0460000  1
    315    313    316    319     1  0.0000000  0.0000000  3
    314    313    316    317     1  0.0000000  0.6508444  3
    314    313    316    318     1  0.0000000  0.6508444  3
    314    313    316    319     1  0.0000000  1.0460000  1
    314    313    316    319     1  0.0000000  0.0000000  3
    312    310    313    314     1  0.0000000  0.5020800  3
    312    310    313    315     1  0.0000000  0.5020800  3
    312    310    313    316     1  0.0000000  0.5439200  3
    311    310    313    314     1  0.0000000  0.5020800  3
    311    310    313    315     1  0.0000000  0.5020800  3
    311    310    313    316     1  0.0000000  0.5439200  3
    310    313    316    317     1  0.0000000  0.6508444  3
    310    313    316    318     1  0.0000000  0.6508444  3
    309    307    310    311     1  0.0000000  0.6508444  3
    309    307    310    312     1  0.0000000  0.6508444  3
    309    307    310    313     1  0.0000000  0.6508444  3
    308    307    310    311     1  0.0000000  0.6508444  3
    308    307    310    312     1  0.0000000  0.6508444  3
    308    307    310    313     1  0.0000000  0.6508444  3
    307    310    313    314     1  0.0000000  0.5439200  3
    307    310    313    315     1  0.0000000  0.5439200  3
    306    307    310    311     1  0.0000000  1.0460000  1
    306    307    310    311     1  0.0000000  0.0000000  3
    306    307    310    312     1  0.0000000  1.0460000  1
    306    307    310    312     1  0.0000000  0.0000000  3
    304    306    307    308     1  0.0000000  1.6038667  3
    304    306    307    309     1  0.0000000  1.6038667  3
    302    301    303    304     1  180.0000771  15.1670000  2
    300    299    301    302     1  180.0000771  15.1670000  2
    300    299    301    303     1  180.0000771  15.1670000  2
    298    295    294    299     1  180.0000771  15.1670000  2
    298    295    296    303     1  180.0000771  15.1670000  2
    297    296    295    298     1  180.0000771  15.1670000  2
    297    296    303    301     1  180.0000771  15.1670000  2
    297    296    303    304     1  180.0000771  15.1670000  2
    296    303    301    302     1  180.0000771  15.1670000  2
    295    294    299    300     1  180.0000771  15.1670000  2
    294    295    296    297     1  180.0000771  15.1670000  2
    294    299    301    302     1  180.0000771  15.1670000  2
    292    294    295    298     1  180.0000771  15.1670000  2
    292    294    299    300     1  180.0000771  15.1670000  2
    290    288    291    292     1  0.0000000  1.6038667  3
    289    288    291    292     1  0.0000000  1.6038667  3
    343    341    344    345     1  0.0000000  0.6508444  3
    343    341    344    346     1  0.0000000  0.6508444  3
    343    341    344    347     1  0.0000000  1.0460000  1
    343    341    344    347     1  0.0000000  0.0000000  3
    342    341    344    345     1  0.0000000  0.6508444  3
    342    341    344    346     1  0.0000000  0.6508444  3
    342    341    344    347     1  0.0000000  1.0460000  1
    342    341    344    347     1  0.0000000  0.0000000  3
    340    338    341    342     1  0.0000000  0.5020800  3
    340    338    341    343     1  0.0000000  0.5020800  3
    340    338    341    344     1  0.0000000  0.5439200  3
    339    338    341    342     1  0.0000000  0.5020800  3
    339    338    341    343     1  0.0000000  0.5020800  3
    339    338    341    344     1  0.0000000  0.5439200  3
    338    341    344    345     1  0.0000000  0.6508444  3
    338    341    344    346     1  0.0000000  0.6508444  3
    337    335    338    339     1  0.0000000  0.6508444  3
    337    335    338    340     1  0.0000000  0.6508444  3
    337    335    338    341     1  0.0000000  0.6508444  3
    336    335    338    339     1  0.0000000  0.6508444  3
    336    335    338    340     1  0.0000000  0.6508444  3
    336    335    338    341     1  0.0000000  0.6508444  3
    335    338    341    342     1  0.0000000  0.5439200  3
    335    338    341    343     1  0.0000000  0.5439200  3
    334    335    338    339     1  0.0000000  1.0460000  1
    334    335    338    339     1  0.0000000  0.0000000  3
    334    335    338    340     1  0.0000000  1.0460000  1
    334    335    338    340     1  0.0000000  0.0000000  3
    332    334    335    336     1  0.0000000  1.6038667  3
    332    334    335    337     1  0.0000000  1.6038667  3
    330    329    331    332     1  180.0000771  15.1670000  2
    328    327    329    330     1  180.0000771  15.1670000  2
    328    327    329    331     1  180.0000771  15.1670000  2
    326    323    322    327     1  180.0000771  15.1670000  2
    326    323    324    331     1  180.0000771  15.1670000  2
    325    324    323    326     1  180.0000771  15.1670000  2
    325    324    331    329     1  180.0000771  15.1670000  2
    325    324    331    332     1  180.0000771  15.1670000  2
    324    331    329    330     1  180.0000771  15.1670000  2
    323    322    327    328     1  180.0000771  15.1670000  2
    322    323    324    325     1  180.0000771  15.1670000  2
    322    327    329    330     1  180.0000771  15.1670000  2
    320    322    323    326     1  180.0000771  15.1670000  2
    320    322    327    328     1  180.0000771  15.1670000  2
    318    316    319    320     1  0.0000000  1.6038667  3
    317    316    319    320     1  0.0000000  1.6038667  3
    371    369    372    373     1  0.0000000  0.6508444  3
    371    369    372    374     1  0.0000000  0.6508444  3
    371    369    372    375     1  0.0000000  1.0460000  1
    371    369    372    375     1  0.0000000  0.0000000  3
    370    369    372    373     1  0.0000000  0.6508444  3
    370    369    372    374     1  0.0000000  0.6508444  3
    370    369    372    375     1  0.0000000  1.0460000  1
    370    369    372    375     1  0.0000000  0.0000000  3
    368    366    369    370     1  0.0000000  0.5020800  3
    368    366    369    371     1  0.0000000  0.5020800  3
    368    366    369    372     1  0.0000000  0.5439200  3
    367    366    369    370     1  0.0000000  0.5020800  3
    367    366    369    371     1  0.0000000  0.5020800  3
    367    366    369    372     1  0.0000000  0.5439200  3
    366    369    372    373     1  0.0000000  0.6508444  3
    366    369    372    374     1  0.0000000  0.6508444  3
    365    363    366    367     1  0.0000000  0.6508444  3
    365    363    366    368     1  0.0000000  0.6508444  3
    365    363    366    369     1  0.0000000  0.6508444  3
    364    363    366    367     1  0.0000000  0.6508444  3
    364    363    366    368     1  0.0000000  0.6508444  3
    364    363    366    369     1  0.0000000  0.6508444  3
    363    366    369    370     1  0.0000000  0.5439200  3
    363    366    369    371     1  0.0000000  0.5439200  3
    362    363    366    367     1  0.0000000  1.0460000  1
    362    363    366    367     1  0.0000000  0.0000000  3
    362    363    366    368     1  0.0000000  1.0460000  1
    362    363    366    368     1  0.0000000  0.0000000  3
    360    362    363    364     1  0.0000000  1.6038667  3
    360    362    363    365     1  0.0000000  1.6038667  3
    358    357    359    360     1  180.0000771  15.1670000  2
    356    355    357    358     1  180.0000771  15.1670000  2
    356    355    357    359     1  180.0000771  15.1670000  2
    354    351    350    355     1  180.0000771  15.1670000  2
    354    351    352    359     1  180.0000771  15.1670000  2
    353    352    351    354     1  180.0000771  15.1670000  2
    353    352    359    357     1  180.0000771  15.1670000  2
    353    352    359    360     1  180.0000771  15.1670000  2
    352    359    357    358     1  180.0000771  15.1670000  2
    351    350    355    356     1  180.0000771  15.1670000  2
    350    351    352    353     1  180.0000771  15.1670000  2
    350    355    357    358     1  180.0000771  15.1670000  2
    348    350    351    354     1  180.0000771  15.1670000  2
    348    350    355    356     1  180.0000771  15.1670000  2
    346    344    347    348     1  0.0000000  1.6038667  3
    345    344    347    348     1  0.0000000  1.6038667  3
    399    397    400    401     1  0.0000000  0.6508444  3
    399    397    400    402     1  0.0000000  0.6508444  3
    399    397    400    403     1  0.0000000  1.0460000  1
    399    397    400    403     1  0.0000000  0.0000000  3
    398    397    400    401     1  0.0000000  0.6508444  3
    398    397    400    402     1  0.0000000  0.6508444  3
    398    397    400    403     1  0.0000000  1.0460000  1
    398    397    400    403     1  0.0000000  0.0000000  3
    396    394    397    398     1  0.0000000  0.5020800  3
    396    394    397    399     1  0.0000000  0.5020800  3
    396    394    397    400     1  0.0000000  0.5439200  3
    395    394    397    398     1  0.0000000  0.5020800  3
    395    394    397    399     1  0.0000000  0.5020800  3
    395    394    397    400     1  0.0000000  0.5439200  3
    394    397    400    401     1  0.0000000  0.6508444  3
    394    397    400    402     1  0.0000000  0.6508444  3
    393    391    394    395     1  0.0000000  0.6508444  3
    393    391    394    396     1  0.0000000  0.6508444  3
    393    391    394    397     1  0.0000000  0.6508444  3
    392    391    394    395     1  0.0000000  0.6508444  3
    392    391    394    396     1  0.0000000  0.6508444  3
    392    391    394    397     1  0.0000000  0.6508444  3
    391    394    397    398     1  0.0000000  0.5439200  3
    391    394    397    399     1  0.0000000  0.5439200  3
    390    391    394    395     1  0.0000000  1.0460000  1
    390    391    394    395     1  0.0000000  0.0000000  3
    390    391    394    396     1  0.0000000  1.0460000  1
    390    391    394    396     1  0.0000000  0.0000000  3
    388    390    391    392     1  0.0000000  1.6038667  3
    388    390    391    393     1  0.0000000  1.6038667  3
    386    385    387    388     1  180.0000771  15.1670000  2
    384    383    385    386     1  180.0000771  15.1670000  2
    384    383    385    387     1  180.0000771  15.1670000  2
    382    379    378    383     1  180.0000771  15.1670000  2
    382    379    380    387     1  180.0000771  15.1670000  2
    381    380    379    382     1  180.0000771  15.1670000  2
    381    380    387    385     1  180.0000771  15.1670000  2
    381    380    387    388     1  180.0000771  15.1670000  2
    380    387    385    386     1  180.0000771  15.1670000  2
    379    378    383    384     1  180.0000771  15.1670000  2
    378    379    380    381     1  180.0000771  15.1670000  2
    378    383    385    386     1  180.0000771  15.1670000  2
    376    378    379    382     1  180.0000771  15.1670000  2
    376    378    383    384     1  180.0000771  15.1670000  2
    374    372    375    376     1  0.0000000  1.6038667  3
    373    372    375    376     1  0.0000000  1.6038667  3
    427    425    428    429     1  0.0000000  0.6508444  3
    427    425    428    430     1  0.0000000  0.6508444  3
    427    425    428    431     1  0.0000000  1.0460000  1
    427    425    428    431     1  0.0000000  0.0000000  3
    426    425    428    429     1  0.0000000  0.6508444  3
    426    425    428    430     1  0.0000000  0.6508444  3
    426    425    428    431     1  0.0000000  1.0460000  1
    426    425    428    431     1  0.0000000  0.0000000  3
    424    422    425    426     1  0.0000000  0.5020800  3
    424    422    425    427     1  0.0000000  0.5020800  3
    424    422    425    428     1  0.0000000  0.5439200  3
    423    422    425    426     1  0.0000000  0.5020800  3
    423    422    425    427     1  0.0000000  0.5020800  3
    423    422    425    428     1  0.0000000  0.5439200  3
    422    425    428    429     1  0.0000000  0.6508444  3
    422    425    428    430     1  0.0000000  0.6508444  3
    421    419    422    423     1  0.0000000  0.6508444  3
    421    419    422    424     1  0.0000000  0.6508444  3
    421    419    422    425     1  0.0000000  0.6508444  3
    420    419    422    423     1  0.0000000  0.6508444  3
    420    419    422    424     1  0.0000000  0.6508444  3
    420    419    422    425     1  0.0000000  0.6508444  3
    419    422    425    426     1  0.0000000  0.5439200  3
    419    422    425    427     1  0.0000000  0.5439200  3
    418    419    422    423     1  0.0000000  1.0460000  1
    418    419    422    423     1  0.0000000  0.0000000  3
    418    419    422    424     1  0.0000000  1.0460000  1
    418    419    422    424     1  0.0000000  0.0000000  3
    416    418    419    420     1  0.0000000  1.6038667  3
    416    418    419    421     1  0.0000000  1.6038667  3
    414    413    415    416     1  180.0000771  15.1670000  2
    412    411    413    414     1  180.0000771  15.1670000  2
    412    411    413    415     1  180.0000771  15.1670000  2
    410    407    406    411     1  180.0000771  15.1670000  2
    410    407    408    415     1  180.0000771  15.1670000  2
    409    408    407    410     1  180.0000771  15.1670000  2
    409    408    415    413     1  180.0000771  15.1670000  2
    409    408    415    416     1  180.0000771  15.1670000  2
    408    415    413    414     1  180.0000771  15.1670000  2
    407    406    411    412     1  180.0000771  15.1670000  2
    406    407    408    409     1  180.0000771  15.1670000  2
    406    411    413    414     1  180.0000771  15.1670000  2
    404    406    407    410     1  180.0000771  15.1670000  2
    404    406    411    412     1  180.0000771  15.1670000  2
    402    400    403    404     1  0.0000000  1.6038667  3
    401    400    403    404     1  0.0000000  1.6038667  3
    455    453    456    457     1  0.0000000  0.6508444  3
    455    453    456    458     1  0.0000000  0.6508444  3
    455    453    456    459     1  0.0000000  1.0460000  1
    455    453    456    459     1  0.0000000  0.0000000  3
    454    453    456    457     1  0.0000000  0.6508444  3
    454    453    456    458     1  0.0000000  0.6508444  3
    454    453    456    459     1  0.0000000  1.0460000  1
    454    453    456    459     1  0.0000000  0.0000000  3
    452    450    453    454     1  0.0000000  0.5020800  3
    452    450    453    455     1  0.0000000  0.5020800  3
    452    450    453    456     1  0.0000000  0.5439200  3
    451    450    453    454     1  0.0000000  0.5020800  3
    451    450    453    455     1  0.0000000  0.5020800  3
    451    450    453    456     1  0.0000000  0.5439200  3
    450    453    456    457     1  0.0000000  0.6508444  3
    450    453    456    458     1  0.0000000  0.6508444  3
    449    447    450    451     1  0.0000000  0.6508444  3
    449    447    450    452     1  0.0000000  0.6508444  3
    449    447    450    453     1  0.0000000  0.6508444  3
    448    447    450    451     1  0.0000000  0.6508444  3
    448    447    450    452     1  0.0000000  0.6508444  3
    448    447    450    453     1  0.0000000  0.6508444  3
    447    450    453    454     1  0.0000000  0.5439200  3
    447    450    453    455     1  0.0000000  0.5439200  3
    446    447    450    451     1  0.0000000  1.0460000  1
    446    447    450    451     1  0.0000000  0.0000000  3
    446    447    450    452     1  0.0000000  1.0460000  1
    446    447    450    452     1  0.0000000  0.0000000  3
    444    446    447    448     1  0.0000000  1.6038667  3
    444    446    447    449     1  0.0000000  1.6038667  3
    442    441    443    444     1  180.0000771  15.1670000  2
    440    439    441    442     1  180.0000771  15.1670000  2
    440    439    441    443     1  180.0000771  15.1670000  2
    438    435    434    439     1  180.0000771  15.1670000  2
    438    435    436    443     1  180.0000771  15.1670000  2
    437    436    435    438     1  180.0000771  15.1670000  2
    437    436    443    441     1  180.0000771  15.1670000  2
    437    436    443    444     1  180.0000771  15.1670000  2
    436    443    441    442     1  180.0000771  15.1670000  2
    435    434    439    440     1  180.0000771  15.1670000  2
    434    435    436    437     1  180.0000771  15.1670000  2
    434    439    441    442     1  180.0000771  15.1670000  2
    432    434    435    438     1  180.0000771  15.1670000  2
    432    434    439    440     1  180.0000771  15.1670000  2
    430    428    431    432     1  0.0000000  1.6038667  3
    429    428    431    432     1  0.0000000  1.6038667  3
    490    488    491    492     1  0.0000000  0.6508444  3
    490    488    491    493     1  0.0000000  0.6508444  3
    490    488    491    494     1  0.0000000  1.0460000  1
    490    488    491    494     1  0.0000000  0.0000000  3
    489    488    491    492     1  0.0000000  0.6508444  3
    489    488    491    493     1  0.0000000  0.6508444  3
    489    488    491    494     1  0.0000000  1.0460000  1
    489    488    491    494     1  0.0000000  0.0000000  3
    487    488    491    492     1  0.0000000  1.0460000  1
    487    488    491    492     1  0.0000000  0.0000000  3
    487    488    491    493     1  0.0000000  1.0460000  1
    487    488    491    493     1  0.0000000  0.0000000  3
    486    484    487    488     1  0.0000000  1.4100080  3
    485    484    487    488     1  0.0000000  1.4100080  3
    484    487    488    489     1  0.0000000  1.4100080  3
    484    487    488    490     1  0.0000000  1.4100080  3
    483    481    484    485     1  0.0000000  0.6508444  3
    483    481    484    486     1  0.0000000  0.6508444  3
    483    481    484    487     1  0.0000000  1.0460000  1
    483    481    484    487     1  0.0000000  0.0000000  3
    482    481    484    485     1  0.0000000  0.6508444  3
    482    481    484    486     1  0.0000000  0.6508444  3
    482    481    484    487     1  0.0000000  1.0460000  1
    482    481    484    487     1  0.0000000  0.0000000  3
    480    481    484    485     1  0.0000000  1.0460000  1
    480    481    484    485     1  0.0000000  0.0000000  3
    480    481    484    486     1  0.0000000  1.0460000  1
    480    481    484    486     1  0.0000000  0.0000000  3
    479    477    480    481     1  0.0000000  1.4100080  3
    478    477    480    481     1  0.0000000  1.4100080  3
    477    480    481    482     1  0.0000000  1.4100080  3
    477    480    481    483     1  0.0000000  1.4100080  3
    476    474    477    478     1  0.0000000  0.6508444  3
    476    474    477    479     1  0.0000000  0.6508444  3
    476    474    477    480     1  0.0000000  1.0460000  1
    476    474    477    480     1  0.0000000  0.0000000  3
    475    474    477    478     1  0.0000000  0.6508444  3
    475    474    477    479     1  0.0000000  0.6508444  3
    475    474    477    480     1  0.0000000  1.0460000  1
    475    474    477    480     1  0.0000000  0.0000000  3
    473    474    477    478     1  0.0000000  1.0460000  1
    473    474    477    478     1  0.0000000  0.0000000  3
    473    474    477    479     1  0.0000000  1.0460000  1
    473    474    477    479     1  0.0000000  0.0000000  3
    472    470    473    474     1  0.0000000  1.4100080  3
    471    470    473    474     1  0.0000000  1.4100080  3
    470    473    474    475     1  0.0000000  1.4100080  3
    470    473    474    476     1  0.0000000  1.4100080  3
    469    467    470    471     1  0.0000000  0.6508444  3
    469    467    470    472     1  0.0000000  0.6508444  3
    469    467    470    473     1  0.0000000  1.0460000  1
    469    467    470    473     1  0.0000000  0.0000000  3
    468    467    470    471     1  0.0000000  0.6508444  3
    468    467    470    472     1  0.0000000  0.6508444  3
    468    467    470    473     1  0.0000000  1.0460000  1
    468    467    470    473     1  0.0000000  0.0000000  3
    466    467    470    471     1  0.0000000  1.0460000  1
    466    467    470    471     1  0.0000000  0.0000000  3
    466    467    470    472     1  0.0000000  1.0460000  1
    466    467    470    472     1  0.0000000  0.0000000  3
    465    463    466    467     1  0.0000000  1.4100080  3
    464    463    466    467     1  0.0000000  1.4100080  3
    463    466    467    468     1  0.0000000  1.4100080  3
    463    466    467    469     1  0.0000000  1.4100080  3
    462    460    463    464     1  0.0000000  0.6508444  3
    462    460    463    465     1  0.0000000  0.6508444  3
    462    460    463    466     1  0.0000000  1.0460000  1
    462    460    463    466     1  0.0000000  0.0000000  3
    461    460    463    464     1  0.0000000  0.6508444  3
    461    460    463    465     1  0.0000000  0.6508444  3
    461    460    463    466     1  0.0000000  1.0460000  1
    461    460    463    466     1  0.0000000  0.0000000  3
    459    460    463    464     1  0.0000000  1.0460000  1
    459    460    463    464     1  0.0000000  0.0000000  3
    459    460    463    465     1  0.0000000  1.0460000  1
    459    460    463    465     1  0.0000000  0.0000000  3
    458    456    459    460     1  0.0000000  1.4100080  3
    457    456    459    460     1  0.0000000  1.4100080  3
    456    459    460    461     1  0.0000000  1.4100080  3
    456    459    460    462     1  0.0000000  1.4100080  3
    518    516    519    520     1  0.0000000  0.6508444  3
    518    516    519    521     1  0.0000000  0.6508444  3
    518    516    519    522     1  0.0000000  1.0460000  1
    518    516    519    522     1  0.0000000  0.0000000  3
    517    516    519    520     1  0.0000000  0.6508444  3
    517    516    519    521     1  0.0000000  0.6508444  3
    517    516    519    522     1  0.0000000  1.0460000  1
    517    516    519    522     1  0.0000000  0.0000000  3
    515    513    516    517     1  0.0000000  0.5020800  3
    515    513    516    518     1  0.0000000  0.5020800  3
    515    513    516    519     1  0.0000000  0.5439200  3
    514    513    516    517     1  0.0000000  0.5020800  3
    514    513    516    518     1  0.0000000  0.5020800  3
    514    513    516    519     1  0.0000000  0.5439200  3
    513    516    519    520     1  0.0000000  0.6508444  3
    513    516    519    521     1  0.0000000  0.6508444  3
    512    510    513    514     1  0.0000000  0.6508444  3
    512    510    513    515     1  0.0000000  0.6508444  3
    512    510    513    516     1  0.0000000  0.6508444  3
    511    510    513    514     1  0.0000000  0.6508444  3
    511    510    513    515     1  0.0000000  0.6508444  3
    511    510    513    516     1  0.0000000  0.6508444  3
    510    513    516    517     1  0.0000000  0.5439200  3
    510    513    516    518     1  0.0000000  0.5439200  3
    509    510    513    514     1  0.0000000  1.0460000  1
    509    510    513    514     1  0.0000000  0.0000000  3
    509    510    513    515     1  0.0000000  1.0460000  1
    509    510    513    515     1  0.0000000  0.0000000  3
    507    509    510    511     1  0.0000000  1.6038667  3
    507    509    510    512     1  0.0000000  1.6038667  3
    505    504    506    507     1  180.0000771  15.1670000  2
    503    502    504    505     1  180.0000771  15.1670000  2
    503    502    504    506     1  180.0000771  15.1670000  2
    501    498    497    502     1  180.0000771  15.1670000  2
    501    498    499    506     1  180.0000771  15.1670000  2
    500    499    498    501     1  180.0000771  15.1670000  2
    500    499    506    504     1  180.0000771  15.1670000  2
    500    499    506    507     1  180.0000771  15.1670000  2
    499    506    504    505     1  180.0000771  15.1670000  2
    498    497    502    503     1  180.0000771  15.1670000  2
    497    498    499    500     1  180.0000771  15.1670000  2
    497    502    504    505     1  180.0000771  15.1670000  2
    495    497    498    501     1  180.0000771  15.1670000  2
    495    497    502    503     1  180.0000771  15.1670000  2
    493    491    494    495     1  0.0000000  1.6038667  3
    492    491    494    495     1  0.0000000  1.6038667  3
    546    544    547    548     1  0.0000000  0.6508444  3
    546    544    547    549     1  0.0000000  0.6508444  3
    546    544    547    550     1  0.0000000  1.0460000  1
    546    544    547    550     1  0.0000000  0.0000000  3
    545    544    547    548     1  0.0000000  0.6508444  3
    545    544    547    549     1  0.0000000  0.6508444  3
    545    544    547    550     1  0.0000000  1.0460000  1
    545    544    547    550     1  0.0000000  0.0000000  3
    543    541    544    545     1  0.0000000  0.5020800  3
    543    541    544    546     1  0.0000000  0.5020800  3
    543    541    544    547     1  0.0000000  0.5439200  3
    542    541    544    545     1  0.0000000  0.5020800  3
    542    541    544    546     1  0.0000000  0.5020800  3
    542    541    544    547     1  0.0000000  0.5439200  3
    541    544    547    548     1  0.0000000  0.6508444  3
    541    544    547    549     1  0.0000000  0.6508444  3
    540    538    541    542     1  0.0000000  0.6508444  3
    540    538    541    543     1  0.0000000  0.6508444  3
    540    538    541    544     1  0.0000000  0.6508444  3
    539    538    541    542     1  0.0000000  0.6508444  3
    539    538    541    543     1  0.0000000  0.6508444  3
    539    538    541    544     1  0.0000000  0.6508444  3
    538    541    544    545     1  0.0000000  0.5439200  3
    538    541    544    546     1  0.0000000  0.5439200  3
    537    538    541    542     1  0.0000000  1.0460000  1
    537    538    541    542     1  0.0000000  0.0000000  3
    537    538    541    543     1  0.0000000  1.0460000  1
    537    538    541    543     1  0.0000000  0.0000000  3
    535    537    538    539     1  0.0000000  1.6038667  3
    535    537    538    540     1  0.0000000  1.6038667  3
    533    532    534    535     1  180.0000771  15.1670000  2
    531    530    532    533     1  180.0000771  15.1670000  2
    531    530    532    534     1  180.0000771  15.1670000  2
    529    526    525    530     1  180.0000771  15.1670000  2
    529    526    527    534     1  180.0000771  15.1670000  2
    528    527    526    529     1  180.0000771  15.1670000  2
    528    527    534    532     1  180.0000771  15.1670000  2
    528    527    534    535     1  180.0000771  15.1670000  2
    527    534    532    533     1  180.0000771  15.1670000  2
    526    525    530    531     1  180.0000771  15.1670000  2
    525    526    527    528     1  180.0000771  15.1670000  2
    525    530    532    533     1  180.0000771  15.1670000  2
    523    525    526    529     1  180.0000771  15.1670000  2
    523    525    530    531     1  180.0000771  15.1670000  2
    521    519    522    523     1  0.0000000  1.6038667  3
    520    519    522    523     1  0.0000000  1.6038667  3
    574    572    575    576     1  0.0000000  0.6508444  3
    574    572    575    577     1  0.0000000  0.6508444  3
    574    572    575    578     1  0.0000000  1.0460000  1
    574    572    575    578     1  0.0000000  0.0000000  3
    573    572    575    576     1  0.0000000  0.6508444  3
    573    572    575    577     1  0.0000000  0.6508444  3
    573    572    575    578     1  0.0000000  1.0460000  1
    573    572    575    578     1  0.0000000  0.0000000  3
    571    569    572    573     1  0.0000000  0.5020800  3
    571    569    572    574     1  0.0000000  0.5020800  3
    571    569    572    575     1  0.0000000  0.5439200  3
    570    569    572    573     1  0.0000000  0.5020800  3
    570    569    572    574     1  0.0000000  0.5020800  3
    570    569    572    575     1  0.0000000  0.5439200  3
    569    572    575    576     1  0.0000000  0.6508444  3
    569    572    575    577     1  0.0000000  0.6508444  3
    568    566    569    570     1  0.0000000  0.6508444  3
    568    566    569    571     1  0.0000000  0.6508444  3
    568    566    569    572     1  0.0000000  0.6508444  3
    567    566    569    570     1  0.0000000  0.6508444  3
    567    566    569    571     1  0.0000000  0.6508444  3
    567    566    569    572     1  0.0000000  0.6508444  3
    566    569    572    573     1  0.0000000  0.5439200  3
    566    569    572    574     1  0.0000000  0.5439200  3
    565    566    569    570     1  0.0000000  1.0460000  1
    565    566    569    570     1  0.0000000  0.0000000  3
    565    566    569    571     1  0.0000000  1.0460000  1
    565    566    569    571     1  0.0000000  0.0000000  3
    563    565    566    567     1  0.0000000  1.6038667  3
    563    565    566    568     1  0.0000000  1.6038667  3
    561    560    562    563     1  180.0000771  15.1670000  2
    559    558    560    561     1  180.0000771  15.1670000  2
    559    558    560    562     1  180.0000771  15.1670000  2
    557    554    553    558     1  180.0000771  15.1670000  2
    557    554    555    562     1  180.0000771  15.1670000  2
    556    555    554    557     1  180.0000771  15.1670000  2
    556    555    562    560     1  180.0000771  15.1670000  2
    556    555    562    563     1  180.0000771  15.1670000  2
    555    562    560    561     1  180.0000771  15.1670000  2
    554    553    558    559     1  180.0000771  15.1670000  2
    553    554    555    556     1  180.0000771  15.1670000  2
    553    558    560    561     1  180.0000771  15.1670000  2
    551    553    554    557     1  180.0000771  15.1670000  2
    551    553    558    559     1  180.0000771  15.1670000  2
    549    547    550    551     1  0.0000000  1.6038667  3
    548    547    550    551     1  0.0000000  1.6038667  3
    602    600    603    604     1  0.0000000  0.6508444  3
    602    600    603    605     1  0.0000000  0.6508444  3
    602    600    603    606     1  0.0000000  1.0460000  1
    602    600    603    606     1  0.0000000  0.0000000  3
    601    600    603    604     1  0.0000000  0.6508444  3
    601    600    603    605     1  0.0000000  0.6508444  3
    601    600    603    606     1  0.0000000  1.0460000  1
    601    600    603    606     1  0.0000000  0.0000000  3
    599    597    600    601     1  0.0000000  0.5020800  3
    599    597    600    602     1  0.0000000  0.5020800  3
    599    597    600    603     1  0.0000000  0.5439200  3
    598    597    600    601     1  0.0000000  0.5020800  3
    598    597    600    602     1  0.0000000  0.5020800  3
    598    597    600    603     1  0.0000000  0.5439200  3
    597    600    603    604     1  0.0000000  0.6508444  3
    597    600    603    605     1  0.0000000  0.6508444  3
    596    594    597    598     1  0.0000000  0.6508444  3
    596    594    597    599     1  0.0000000  0.6508444  3
    596    594    597    600     1  0.0000000  0.6508444  3
    595    594    597    598     1  0.0000000  0.6508444  3
    595    594    597    599     1  0.0000000  0.6508444  3
    595    594    597    600     1  0.0000000  0.6508444  3
    594    597    600    601     1  0.0000000  0.5439200  3
    594    597    600    602     1  0.0000000  0.5439200  3
    593    594    597    598     1  0.0000000  1.0460000  1
    593    594    597    598     1  0.0000000  0.0000000  3
    593    594    597    599     1  0.0000000  1.0460000  1
    593    594    597    599     1  0.0000000  0.0000000  3
    591    593    594    595     1  0.0000000  1.6038667  3
    591    593    594    596     1  0.0000000  1.6038667  3
    589    588    590    591     1  180.0000771  15.1670000  2
    587    586    588    589     1  180.0000771  15.1670000  2
    587    586    588    590     1  180.0000771  15.1670000  2
    585    582    581    586     1  180.0000771  15.1670000  2
    585    582    583    590     1  180.0000771  15.1670000  2
    584    583    582    585     1  180.0000771  15.1670000  2
    584    583    590    588     1  180.0000771  15.1670000  2
    584    583    590    591     1  180.0000771  15.1670000  2
    583    590    588    589     1  180.0000771  15.1670000  2
    582    581    586    587     1  180.0000771  15.1670000  2
    581    582    583    584     1  180.0000771  15.1670000  2
    581    586    588    589     1  180.0000771  15.1670000  2
    579    581    582    585     1  180.0000771  15.1670000  2
    579    581    586    587     1  180.0000771  15.1670000  2
    577    575    578    579     1  0.0000000  1.6038667  3
    576    575    578    579     1  0.0000000  1.6038667  3
    630    628    631    632     1  0.0000000  0.6508444  3
    630    628    631    633     1  0.0000000  0.6508444  3
    630    628    631    634     1  0.0000000  1.0460000  1
    630    628    631    634     1  0.0000000  0.0000000  3
    629    628    631    632     1  0.0000000  0.6508444  3
    629    628    631    633     1  0.0000000  0.6508444  3
    629    628    631    634     1  0.0000000  1.0460000  1
    629    628    631    634     1  0.0000000  0.0000000  3
    627    625    628    629     1  0.0000000  0.5020800  3
    627    625    628    630     1  0.0000000  0.5020800  3
    627    625    628    631     1  0.0000000  0.5439200  3
    626    625    628    629     1  0.0000000  0.5020800  3
    626    625    628    630     1  0.0000000  0.5020800  3
    626    625    628    631     1  0.0000000  0.5439200  3
    625    628    631    632     1  0.0000000  0.6508444  3
    625    628    631    633     1  0.0000000  0.6508444  3
    624    622    625    626     1  0.0000000  0.6508444  3
    624    622    625    627     1  0.0000000  0.6508444  3
    624    622    625    628     1  0.0000000  0.6508444  3
    623    622    625    626     1  0.0000000  0.6508444  3
    623    622    625    627     1  0.0000000  0.6508444  3
    623    622    625    628     1  0.0000000  0.6508444  3
    622    625    628    629     1  0.0000000  0.5439200  3
    622    625    628    630     1  0.0000000  0.5439200  3
    621    622    625    626     1  0.0000000  1.0460000  1
    621    622    625    626     1  0.0000000  0.0000000  3
    621    622    625    627     1  0.0000000  1.0460000  1
    621    622    625    627     1  0.0000000  0.0000000  3
    619    621    622    623     1  0.0000000  1.6038667  3
    619    621    622    624     1  0.0000000  1.6038667  3
    617    616    618    619     1  180.0000771  15.1670000  2
    615    614    616    617     1  180.0000771  15.1670000  2
    615    614    616    618     1  180.0000771  15.1670000  2
    613    610    609    614     1  180.0000771  15.1670000  2
    613    610    611    618     1  180.0000771  15.1670000  2
    612    611    610    613     1  180.0000771  15.1670000  2
    612    611    618    616     1  180.0000771  15.1670000  2
    612    611    618    619     1  180.0000771  15.1670000  2
    611    618    616    617     1  180.0000771  15.1670000  2
    610    609    614    615     1  180.0000771  15.1670000  2
    609    610    611    612     1  180.0000771  15.1670000  2
    609    614    616    617     1  180.0000771  15.1670000  2
    607    609    610    613     1  180.0000771  15.1670000  2
    607    609    614    615     1  180.0000771  15.1670000  2
    605    603    606    607     1  0.0000000  1.6038667  3
    604    603    606    607     1  0.0000000  1.6038667  3
    665    663    666    667     1  0.0000000  0.6508444  3
    665    663    666    668     1  0.0000000  0.6508444  3
    665    663    666    669     1  0.0000000  1.0460000  1
    665    663    666    669     1  0.0000000  0.0000000  3
    664    663    666    667     1  0.0000000  0.6508444  3
    664    663    666    668     1  0.0000000  0.6508444  3
    664    663    666    669     1  0.0000000  1.0460000  1
    664    663    666    669     1  0.0000000  0.0000000  3
    662    663    666    667     1  0.0000000  1.0460000  1
    662    663    666    667     1  0.0000000  0.0000000  3
    662    663    666    668     1  0.0000000  1.0460000  1
    662    663    666    668     1  0.0000000  0.0000000  3
    661    659    662    663     1  0.0000000  1.4100080  3
    660    659    662    663     1  0.0000000  1.4100080  3
    659    662    663    664     1  0.0000000  1.4100080  3
    659    662    663    665     1  0.0000000  1.4100080  3
    658    656    659    660     1  0.0000000  0.6508444  3
    658    656    659    661     1  0.0000000  0.6508444  3
    658    656    659    662     1  0.0000000  1.0460000  1
    658    656    659    662     1  0.0000000  0.0000000  3
    657    656    659    660     1  0.0000000  0.6508444  3
    657    656    659    661     1  0.0000000  0.6508444  3
    657    656    659    662     1  0.0000000  1.0460000  1
    657    656    659    662     1  0.0000000  0.0000000  3
    655    656    659    660     1  0.0000000  1.0460000  1
    655    656    659    660     1  0.0000000  0.0000000  3
    655    656    659    661     1  0.0000000  1.0460000  1
    655    656    659    661     1  0.0000000  0.0000000  3
    654    652    655    656     1  0.0000000  1.4100080  3
    653    652    655    656     1  0.0000000  1.4100080  3
    652    655    656    657     1  0.0000000  1.4100080  3
    652    655    656    658     1  0.0000000  1.4100080  3
    651    649    652    653     1  0.0000000  0.6508444  3
    651    649    652    654     1  0.0000000  0.6508444  3
    651    649    652    655     1  0.0000000  1.0460000  1
    651    649    652    655     1  0.0000000  0.0000000  3
    650    649    652    653     1  0.0000000  0.6508444  3
    650    649    652    654     1  0.0000000  0.6508444  3
    650    649    652    655     1  0.0000000  1.0460000  1
    650    649    652    655     1  0.0000000  0.0000000  3
    648    649    652    653     1  0.0000000  1.0460000  1
    648    649    652    653     1  0.0000000  0.0000000  3
    648    649    652    654     1  0.0000000  1.0460000  1
    648    649    652    654     1  0.0000000  0.0000000  3
    647    645    648    649     1  0.0000000  1.4100080  3
    646    645    648    649     1  0.0000000  1.4100080  3
    645    648    649    650     1  0.0000000  1.4100080  3
    645    648    649    651     1  0.0000000  1.4100080  3
    644    642    645    646     1  0.0000000  0.6508444  3
    644    642    645    647     1  0.0000000  0.6508444  3
    644    642    645    648     1  0.0000000  1.0460000  1
    644    642    645    648     1  0.0000000  0.0000000  3
    643    642    645    646     1  0.0000000  0.6508444  3
    643    642    645    647     1  0.0000000  0.6508444  3
    643    642    645    648     1  0.0000000  1.0460000  1
    643    642    645    648     1  0.0000000  0.0000000  3
    641    642    645    646     1  0.0000000  1.0460000  1
    641    642    645    646     1  0.0000000  0.0000000  3
    641    642    645    647     1  0.0000000  1.0460000  1
    641    642    645    647     1  0.0000000  0.0000000  3
    640    638    641    642     1  0.0000000  1.4100080  3
    639    638    641    642     1  0.0000000  1.4100080  3
    638    641    642    643     1  0.0000000  1.4100080  3
    638    641    642    644     1  0.0000000  1.4100080  3
    637    635    638    639     1  0.0000000  0.6508444  3
    637    635    638    640     1  0.0000000  0.6508444  3
    637    635    638    641     1  0.0000000  1.0460000  1
    637    635    638    641     1  0.0000000  0.0000000  3
    636    635    638    639     1  0.0000000  0.6508444  3
    636    635    638    640     1  0.0000000  0.6508444  3
    636    635    638    641     1  0.0000000  1.0460000  1
    636    635    638    641     1  0.0000000  0.0000000  3
    634    635    638    639     1  0.0000000  1.0460000  1
    634    635    638    639     1  0.0000000  0.0000000  3
    634    635    638    640     1  0.0000000  1.0460000  1
    634    635    638    640     1  0.0000000  0.0000000  3
    633    631    634    635     1  0.0000000  1.4100080  3
    632    631    634    635     1  0.0000000  1.4100080  3
    631    634    635    636     1  0.0000000  1.4100080  3
    631    634    635    637     1  0.0000000  1.4100080  3
    693    691    694    695     1  0.0000000  0.6508444  3
    693    691    694    696     1  0.0000000  0.6508444  3
    693    691    694    697     1  0.0000000  1.0460000  1
    693    691    694    697     1  0.0000000  0.0000000  3
    692    691    694    695     1  0.0000000  0.6508444  3
    692    691    694    696     1  0.0000000  0.6508444  3
    692    691    694    697     1  0.0000000  1.0460000  1
    692    691    694    697     1  0.0000000  0.0000000  3
    690    688    691    692     1  0.0000000  0.5020800  3
    690    688    691    693     1  0.0000000  0.5020800  3
    690    688    691    694     1  0.0000000  0.5439200  3
    689    688    691    692     1  0.0000000  0.5020800  3
    689    688    691    693     1  0.0000000  0.5020800  3
    689    688    691    694     1  0.0000000  0.5439200  3
    688    691    694    695     1  0.0000000  0.6508444  3
    688    691    694    696     1  0.0000000  0.6508444  3
    687    685    688    689     1  0.0000000  0.6508444  3
    687    685    688    690     1  0.0000000  0.6508444  3
    687    685    688    691     1  0.0000000  0.6508444  3
    686    685    688    689     1  0.0000000  0.6508444  3
    686    685    688    690     1  0.0000000  0.6508444  3
    686    685    688    691     1  0.0000000  0.6508444  3
    685    688    691    692     1  0.0000000  0.5439200  3
    685    688    691    693     1  0.0000000  0.5439200  3
    684    685    688    689     1  0.0000000  1.0460000  1
    684    685    688    689     1  0.0000000  0.0000000  3
    684    685    688    690     1  0.0000000  1.0460000  1
    684    685    688    690     1  0.0000000  0.0000000  3
    682    684    685    686     1  0.0000000  1.6038667  3
    682    684    685    687     1  0.0000000  1.6038667  3
    680    679    681    682     1  180.0000771  15.1670000  2
    678    677    679    680     1  180.0000771  15.1670000  2
    678    677    679    681     1  180.0000771  15.1670000  2
    676    673    672    677     1  180.0000771  15.1670000  2
    676    673    674    681     1  180.0000771  15.1670000  2
    675    674    673    676     1  180.0000771  15.1670000  2
    675    674    681    679     1  180.0000771  15.1670000  2
    675    674    681    682     1  180.0000771  15.1670000  2
    674    681    679    680     1  180.0000771  15.1670000  2
    673    672    677    678     1  180.0000771  15.1670000  2
    672    673    674    675     1  180.0000771  15.1670000  2
    672    677    679    680     1  180.0000771  15.1670000  2
    670    672    673    676     1  180.0000771  15.1670000  2
    670    672    677    678     1  180.0000771  15.1670000  2
    668    666    669    670     1  0.0000000  1.6038667  3
    667    666    669    670     1  0.0000000  1.6038667  3
    721    719    722    723     1  0.0000000  0.6508444  3
    721    719    722    724     1  0.0000000  0.6508444  3
    721    719    722    725     1  0.0000000  1.0460000  1
    721    719    722    725     1  0.0000000  0.0000000  3
    720    719    722    723     1  0.0000000  0.6508444  3
    720    719    722    724     1  0.0000000  0.6508444  3
    720    719    722    725     1  0.0000000  1.0460000  1
    720    719    722    725     1  0.0000000  0.0000000  3
    718    716    719    720     1  0.0000000  0.5020800  3
    718    716    719    721     1  0.0000000  0.5020800  3
    718    716    719    722     1  0.0000000  0.5439200  3
    717    716    719    720     1  0.0000000  0.5020800  3
    717    716    719    721     1  0.0000000  0.5020800  3
    717    716    719    722     1  0.0000000  0.5439200  3
    716    719    722    723     1  0.0000000  0.6508444  3
    716    719    722    724     1  0.0000000  0.6508444  3
    715    713    716    717     1  0.0000000  0.6508444  3
    715    713    716    718     1  0.0000000  0.6508444  3
    715    713    716    719     1  0.0000000  0.6508444  3
    714    713    716    717     1  0.0000000  0.6508444  3
    714    713    716    718     1  0.0000000  0.6508444  3
    714    713    716    719     1  0.0000000  0.6508444  3
    713    716    719    720     1  0.0000000  0.5439200  3
    713    716    719    721     1  0.0000000  0.5439200  3
    712    713    716    717     1  0.0000000  1.0460000  1
    712    713    716    717     1  0.0000000  0.0000000  3
    712    713    716    718     1  0.0000000  1.0460000  1
    712    713    716    718     1  0.0000000  0.0000000  3
    710    712    713    714     1  0.0000000  1.6038667  3
    710    712    713    715     1  0.0000000  1.6038667  3
    708    707    709    710     1  180.0000771  15.1670000  2
    706    705    707    708     1  180.0000771  15.1670000  2
    706    705    707    709     1  180.0000771  15.1670000  2
    704    701    700    705     1  180.0000771  15.1670000  2
    704    701    702    709     1  180.0000771  15.1670000  2
    703    702    701    704     1  180.0000771  15.1670000  2
    703    702    709    707     1  180.0000771  15.1670000  2
    703    702    709    710     1  180.0000771  15.1670000  2
    702    709    707    708     1  180.0000771  15.1670000  2
    701    700    705    706     1  180.0000771  15.1670000  2
    700    701    702    703     1  180.0000771  15.1670000  2
    700    705    707    708     1  180.0000771  15.1670000  2
    698    700    701    704     1  180.0000771  15.1670000  2
    698    700    705    706     1  180.0000771  15.1670000  2
    696    694    697    698     1  0.0000000  1.6038667  3
    695    694    697    698     1  0.0000000  1.6038667  3
    749    747    750    751     1  0.0000000  0.6508444  3
    749    747    750    752     1  0.0000000  0.6508444  3
    749    747    750    753     1  0.0000000  1.0460000  1
    749    747    750    753     1  0.0000000  0.0000000  3
    748    747    750    751     1  0.0000000  0.6508444  3
    748    747    750    752     1  0.0000000  0.6508444  3
    748    747    750    753     1  0.0000000  1.0460000  1
    748    747    750    753     1  0.0000000  0.0000000  3
    746    744    747    748     1  0.0000000  0.5020800  3
    746    744    747    749     1  0.0000000  0.5020800  3
    746    744    747    750     1  0.0000000  0.5439200  3
    745    744    747    748     1  0.0000000  0.5020800  3
    745    744    747    749     1  0.0000000  0.5020800  3
    745    744    747    750     1  0.0000000  0.5439200  3
    744    747    750    751     1  0.0000000  0.6508444  3
    744    747    750    752     1  0.0000000  0.6508444  3
    743    741    744    745     1  0.0000000  0.6508444  3
    743    741    744    746     1  0.0000000  0.6508444  3
    743    741    744    747     1  0.0000000  0.6508444  3
    742    741    744    745     1  0.0000000  0.6508444  3
    742    741    744    746     1  0.0000000  0.6508444  3
    742    741    744    747     1  0.0000000  0.6508444  3
    741    744    747    748     1  0.0000000  0.5439200  3
    741    744    747    749     1  0.0000000  0.5439200  3
    740    741    744    745     1  0.0000000  1.0460000  1
    740    741    744    745     1  0.0000000  0.0000000  3
    740    741    744    746     1  0.0000000  1.0460000  1
    740    741    744    746     1  0.0000000  0.0000000  3
    738    740    741    742     1  0.0000000  1.6038667  3
    738    740    741    743     1  0.0000000  1.6038667  3
    736    735    737    738     1  180.0000771  15.1670000  2
    734    733    735    736     1  180.0000771  15.1670000  2
    734    733    735    737     1  180.0000771  15.1670000  2
    732    729    728    733     1  180.0000771  15.1670000  2
    732    729    730    737     1  180.0000771  15.1670000  2
    731    730    729    732     1  180.0000771  15.1670000  2
    731    730    737    735     1  180.0000771  15.1670000  2
    731    730    737    738     1  180.0000771  15.1670000  2
    730    737    735    736     1  180.0000771  15.1670000  2
    729    728    733    734     1  180.0000771  15.1670000  2
    728    729    730    731     1  180.0000771  15.1670000  2
    728    733    735    736     1  180.0000771  15.1670000  2
    726    728    729    732     1  180.0000771  15.1670000  2
    726    728    733    734     1  180.0000771  15.1670000  2
    724    722    725    726     1  0.0000000  1.6038667  3
    723    722    725    726     1  0.0000000  1.6038667  3
    777    775    778    779     1  0.0000000  0.6508444  3
    777    775    778    780     1  0.0000000  0.6508444  3
    777    775    778    781     1  0.0000000  1.0460000  1
    777    775    778    781     1  0.0000000  0.0000000  3
    776    775    778    779     1  0.0000000  0.6508444  3
    776    775    778    780     1  0.0000000  0.6508444  3
    776    775    778    781     1  0.0000000  1.0460000  1
    776    775    778    781     1  0.0000000  0.0000000  3
    774    772    775    776     1  0.0000000  0.5020800  3
    774    772    775    777     1  0.0000000  0.5020800  3
    774    772    775    778     1  0.0000000  0.5439200  3
    773    772    775    776     1  0.0000000  0.5020800  3
    773    772    775    777     1  0.0000000  0.5020800  3
    773    772    775    778     1  0.0000000  0.5439200  3
    772    775    778    779     1  0.0000000  0.6508444  3
    772    775    778    780     1  0.0000000  0.6508444  3
    771    769    772    773     1  0.0000000  0.6508444  3
    771    769    772    774     1  0.0000000  0.6508444  3
    771    769    772    775     1  0.0000000  0.6508444  3
    770    769    772    773     1  0.0000000  0.6508444  3
    770    769    772    774     1  0.0000000  0.6508444  3
    770    769    772    775     1  0.0000000  0.6508444  3
    769    772    775    776     1  0.0000000  0.5439200  3
    769    772    775    777     1  0.0000000  0.5439200  3
    768    769    772    773     1  0.0000000  1.0460000  1
    768    769    772    773     1  0.0000000  0.0000000  3
    768    769    772    774     1  0.0000000  1.0460000  1
    768    769    772    774     1  0.0000000  0.0000000  3
    766    768    769    770     1  0.0000000  1.6038667  3
    766    768    769    771     1  0.0000000  1.6038667  3
    764    763    765    766     1  180.0000771  15.1670000  2
    762    761    763    764     1  180.0000771  15.1670000  2
    762    761    763    765     1  180.0000771  15.1670000  2
    760    757    756    761     1  180.0000771  15.1670000  2
    760    757    758    765     1  180.0000771  15.1670000  2
    759    758    757    760     1  180.0000771  15.1670000  2
    759    758    765    763     1  180.0000771  15.1670000  2
    759    758    765    766     1  180.0000771  15.1670000  2
    758    765    763    764     1  180.0000771  15.1670000  2
    757    756    761    762     1  180.0000771  15.1670000  2
    756    757    758    759     1  180.0000771  15.1670000  2
    756    761    763    764     1  180.0000771  15.1670000  2
    754    756    757    760     1  180.0000771  15.1670000  2
    754    756    761    762     1  180.0000771  15.1670000  2
    752    750    753    754     1  0.0000000  1.6038667  3
    751    750    753    754     1  0.0000000  1.6038667  3
    812    810    813    814     1  0.0000000  0.6508444  3
    812    810    813    815     1  0.0000000  0.6508444  3
    812    810    813    816     1  0.0000000  1.0460000  1
    812    810    813    816     1  0.0000000  0.0000000  3
    811    810    813    814     1  0.0000000  0.6508444  3
    811    810    813    815     1  0.0000000  0.6508444  3
    811    810    813    816     1  0.0000000  1.0460000  1
    811    810    813    816     1  0.0000000  0.0000000  3
    809    810    813    814     1  0.0000000  1.0460000  1
    809    810    813    814     1  0.0000000  0.0000000  3
    809    810    813    815     1  0.0000000  1.0460000  1
    809    810    813    815     1  0.0000000  0.0000000  3
    808    806    809    810     1  0.0000000  1.4100080  3
    807    806    809    810     1  0.0000000  1.4100080  3
    806    809    810    811     1  0.0000000  1.4100080  3
    806    809    810    812     1  0.0000000  1.4100080  3
    805    803    806    807     1  0.0000000  0.6508444  3
    805    803    806    808     1  0.0000000  0.6508444  3
    805    803    806    809     1  0.0000000  1.0460000  1
    805    803    806    809     1  0.0000000  0.0000000  3
    804    803    806    807     1  0.0000000  0.6508444  3
    804    803    806    808     1  0.0000000  0.6508444  3
    804    803    806    809     1  0.0000000  1.0460000  1
    804    803    806    809     1  0.0000000  0.0000000  3
    802    803    806    807     1  0.0000000  1.0460000  1
    802    803    806    807     1  0.0000000  0.0000000  3
    802    803    806    808     1  0.0000000  1.0460000  1
    802    803    806    808     1  0.0000000  0.0000000  3
    801    799    802    803     1  0.0000000  1.4100080  3
    800    799    802    803     1  0.0000000  1.4100080  3
    799    802    803    804     1  0.0000000  1.4100080  3
    799    802    803    805     1  0.0000000  1.4100080  3
    798    796    799    800     1  0.0000000  0.6508444  3
    798    796    799    801     1  0.0000000  0.6508444  3
    798    796    799    802     1  0.0000000  1.0460000  1
    798    796    799    802     1  0.0000000  0.0000000  3
    797    796    799    800     1  0.0000000  0.6508444  3
    797    796    799    801     1  0.0000000  0.6508444  3
    797    796    799    802     1  0.0000000  1.0460000  1
    797    796    799    802     1  0.0000000  0.0000000  3
    795    796    799    800     1  0.0000000  1.0460000  1
    795    796    799    800     1  0.0000000  0.0000000  3
    795    796    799    801     1  0.0000000  1.0460000  1
    795    796    799    801     1  0.0000000  0.0000000  3
    794    792    795    796     1  0.0000000  1.4100080  3
    793    792    795    796     1  0.0000000  1.4100080  3
    792    795    796    797     1  0.0000000  1.4100080  3
    792    795    796    798     1  0.0000000  1.4100080  3
    791    789    792    793     1  0.0000000  0.6508444  3
    791    789    792    794     1  0.0000000  0.6508444  3
    791    789    792    795     1  0.0000000  1.0460000  1
    791    789    792    795     1  0.0000000  0.0000000  3
    790    789    792    793     1  0.0000000  0.6508444  3
    790    789    792    794     1  0.0000000  0.6508444  3
    790    789    792    795     1  0.0000000  1.0460000  1
    790    789    792    795     1  0.0000000  0.0000000  3
    788    789    792    793     1  0.0000000  1.0460000  1
    788    789    792    793     1  0.0000000  0.0000000  3
    788    789    792    794     1  0.0000000  1.0460000  1
    788    789    792    794     1  0.0000000  0.0000000  3
    787    785    788    789     1  0.0000000  1.4100080  3
    786    785    788    789     1  0.0000000  1.4100080  3
    785    788    789    790     1  0.0000000  1.4100080  3
    785    788    789    791     1  0.0000000  1.4100080  3
    784    782    785    786     1  0.0000000  0.6508444  3
    784    782    785    787     1  0.0000000  0.6508444  3
    784    782    785    788     1  0.0000000  1.0460000  1
    784    782    785    788     1  0.0000000  0.0000000  3
    783    782    785    786     1  0.0000000  0.6508444  3
    783    782    785    787     1  0.0000000  0.6508444  3
    783    782    785    788     1  0.0000000  1.0460000  1
    783    782    785    788     1  0.0000000  0.0000000  3
    781    782    785    786     1  0.0000000  1.0460000  1
    781    782    785    786     1  0.0000000  0.0000000  3
    781    782    785    787     1  0.0000000  1.0460000  1
    781    782    785    787     1  0.0000000  0.0000000  3
    780    778    781    782     1  0.0000000  1.4100080  3
    779    778    781    782     1  0.0000000  1.4100080  3
    778    781    782    783     1  0.0000000  1.4100080  3
    778    781    782    784     1  0.0000000  1.4100080  3
    847    845    848    849     1  0.0000000  0.6508444  3
    847    845    848    850     1  0.0000000  0.6508444  3
    847    845    848    851     1  0.0000000  1.0460000  1
    847    845    848    851     1  0.0000000  0.0000000  3
    846    845    848    849     1  0.0000000  0.6508444  3
    846    845    848    850     1  0.0000000  0.6508444  3
    846    845    848    851     1  0.0000000  1.0460000  1
    846    845    848    851     1  0.0000000  0.0000000  3
    844    845    848    849     1  0.0000000  1.0460000  1
    844    845    848    849     1  0.0000000  0.0000000  3
    844    845    848    850     1  0.0000000  1.0460000  1
    844    845    848    850     1  0.0000000  0.0000000  3
    843    841    844    845     1  0.0000000  1.4100080  3
    842    841    844    845     1  0.0000000  1.4100080  3
    841    844    845    846     1  0.0000000  1.4100080  3
    841    844    845    847     1  0.0000000  1.4100080  3
    840    838    841    842     1  0.0000000  0.6508444  3
    840    838    841    843     1  0.0000000  0.6508444  3
    840    838    841    844     1  0.0000000  1.0460000  1
    840    838    841    844     1  0.0000000  0.0000000  3
    839    838    841    842     1  0.0000000  0.6508444  3
    839    838    841    843     1  0.0000000  0.6508444  3
    839    838    841    844     1  0.0000000  1.0460000  1
    839    838    841    844     1  0.0000000  0.0000000  3
    837    838    841    842     1  0.0000000  1.0460000  1
    837    838    841    842     1  0.0000000  0.0000000  3
    837    838    841    843     1  0.0000000  1.0460000  1
    837    838    841    843     1  0.0000000  0.0000000  3
    836    834    837    838     1  0.0000000  1.4100080  3
    835    834    837    838     1  0.0000000  1.4100080  3
    834    837    838    839     1  0.0000000  1.4100080  3
    834    837    838    840     1  0.0000000  1.4100080  3
    833    831    834    835     1  0.0000000  0.6508444  3
    833    831    834    836     1  0.0000000  0.6508444  3
    833    831    834    837     1  0.0000000  1.0460000  1
    833    831    834    837     1  0.0000000  0.0000000  3
    832    831    834    835     1  0.0000000  0.6508444  3
    832    831    834    836     1  0.0000000  0.6508444  3
    832    831    834    837     1  0.0000000  1.0460000  1
    832    831    834    837     1  0.0000000  0.0000000  3
    830    831    834    835     1  0.0000000  1.0460000  1
    830    831    834    835     1  0.0000000  0.0000000  3
    830    831    834    836     1  0.0000000  1.0460000  1
    830    831    834    836     1  0.0000000  0.0000000  3
    829    827    830    831     1  0.0000000  1.4100080  3
    828    827    830    831     1  0.0000000  1.4100080  3
    827    830    831    832     1  0.0000000  1.4100080  3
    827    830    831    833     1  0.0000000  1.4100080  3
    826    824    827    828     1  0.0000000  0.6508444  3
    826    824    827    829     1  0.0000000  0.6508444  3
    826    824    827    830     1  0.0000000  1.0460000  1
    826    824    827    830     1  0.0000000  0.0000000  3
    825    824    827    828     1  0.0000000  0.6508444  3
    825    824    827    829     1  0.0000000  0.6508444  3
    825    824    827    830     1  0.0000000  1.0460000  1
    825    824    827    830     1  0.0000000  0.0000000  3
    823    824    827    828     1  0.0000000  1.0460000  1
    823    824    827    828     1  0.0000000  0.0000000  3
    823    824    827    829     1  0.0000000  1.0460000  1
    823    824    827    829     1  0.0000000  0.0000000  3
    822    820    823    824     1  0.0000000  1.4100080  3
    821    820    823    824     1  0.0000000  1.4100080  3
    820    823    824    825     1  0.0000000  1.4100080  3
    820    823    824    826     1  0.0000000  1.4100080  3
    819    817    820    821     1  0.0000000  0.6508444  3
    819    817    820    822     1  0.0000000  0.6508444  3
    819    817    820    823     1  0.0000000  1.0460000  1
    819    817    820    823     1  0.0000000  0.0000000  3
    818    817    820    821     1  0.0000000  0.6508444  3
    818    817    820    822     1  0.0000000  0.6508444  3
    818    817    820    823     1  0.0000000  1.0460000  1
    818    817    820    823     1  0.0000000  0.0000000  3
    816    817    820    821     1  0.0000000  1.0460000  1
    816    817    820    821     1  0.0000000  0.0000000  3
    816    817    820    822     1  0.0000000  1.0460000  1
    816    817    820    822     1  0.0000000  0.0000000  3
    815    813    816    817     1  0.0000000  1.4100080  3
    814    813    816    817     1  0.0000000  1.4100080  3
    813    816    817    818     1  0.0000000  1.4100080  3
    813    816    817    819     1  0.0000000  1.4100080  3
    872    870    873    874     1  0.0000000  0.5020800  3
    872    870    873    875     1  0.0000000  0.5020800  3
    871    870    873    874     1  0.0000000  0.5020800  3
    871    870    873    875     1  0.0000000  0.5020800  3
    869    867    870    871     1  0.0000000  0.6508444  3
    869    867    870    872     1  0.0000000  0.6508444  3
    869    867    870    873     1  0.0000000  0.6508444  3
    868    867    870    871     1  0.0000000  0.6508444  3
    868    867    870    872     1  0.0000000  0.6508444  3
    868    867    870    873     1  0.0000000  0.6508444  3
    867    870    873    874     1  0.0000000  0.5439200  3
    867    870    873    875     1  0.0000000  0.5439200  3
    866    867    870    871     1  0.0000000  1.0460000  1
    866    867    870    871     1  0.0000000  0.0000000  3
    866    867    870    872     1  0.0000000  1.0460000  1
    866    867    870    872     1  0.0000000  0.0000000  3
    864    866    867    868     1  0.0000000  1.6038667  3
    864    866    867    869     1  0.0000000  1.6038667  3
    862    861    863    864     1  180.0000771  15.1670000  2
    860    859    861    862     1  180.0000771  15.1670000  2
    860    859    861    863     1  180.0000771  15.1670000  2
    858    855    854    859     1  180.0000771  15.1670000  2
    858    855    856    863     1  180.0000771  15.1670000  2
    857    856    855    858     1  180.0000771  15.1670000  2
    857    856    863    861     1  180.0000771  15.1670000  2
    857    856    863    864     1  180.0000771  15.1670000  2
    856    863    861    862     1  180.0000771  15.1670000  2
    855    854    859    860     1  180.0000771  15.1670000  2
    854    855    856    857     1  180.0000771  15.1670000  2
    854    859    861    862     1  180.0000771  15.1670000  2
    852    854    855    858     1  180.0000771  15.1670000  2
    852    854    859    860     1  180.0000771  15.1670000  2
    850    848    851    852     1  0.0000000  1.6038667  3
    849    848    851    852     1  0.0000000  1.6038667  3
     12     16     14     15     4  180.0000771  4.6024000  2
      7     14     12     13     4  180.0000771  4.6024000  2
      8     16      9     10     4  180.0000771  4.6024000  2
      7      9      8     11     4  180.0000771  4.6024000  2
     40     44     42     43     4  180.0000771  4.6024000  2
     35     42     40     41     4  180.0000771  4.6024000  2
     36     44     37     38     4  180.0000771  4.6024000  2
     35     37     36     39     4  180.0000771  4.6024000  2
     68     72     70     71     4  180.0000771  4.6024000  2
     63     70     68     69     4  180.0000771  4.6024000  2
     64     72     65     66     4  180.0000771  4.6024000  2
     63     65     64     67     4  180.0000771  4.6024000  2
     96    100     98     99     4  180.0000771  4.6024000  2
     91     98     96     97     4  180.0000771  4.6024000  2
     92    100     93     94     4  180.0000771  4.6024000  2
     91     93     92     95     4  180.0000771  4.6024000  2
    124    128    126    127     4  180.0000771  4.6024000  2
    119    126    124    125     4  180.0000771  4.6024000  2
    120    128    121    122     4  180.0000771  4.6024000  2
    119    121    120    123     4  180.0000771  4.6024000  2
    152    156    154    155     4  180.0000771  4.6024000  2
    147    154    152    153     4  180.0000771  4.6024000  2
    148    156    149    150     4  180.0000771  4.6024000  2
    147    149    148    151     4  180.0000771  4.6024000  2
    215    219    217    218     4  180.0000771  4.6024000  2
    210    217    215    216     4  180.0000771  4.6024000  2
    211    219    212    213     4  180.0000771  4.6024000  2
    210    212    211    214     4  180.0000771  4.6024000  2
    243    247    245    246     4  180.0000771  4.6024000  2
    238    245    243    244     4  180.0000771  4.6024000  2
    239    247    240    241     4  180.0000771  4.6024000  2
    238    240    239    242     4  180.0000771  4.6024000  2
    271    275    273    274     4  180.0000771  4.6024000  2
    266    273    271    272     4  180.0000771  4.6024000  2
    267    275    268    269     4  180.0000771  4.6024000  2
    266    268    267    270     4  180.0000771  4.6024000  2
    299    303    301    302     4  180.0000771  4.6024000  2
    294    301    299    300     4  180.0000771  4.6024000  2
    295    303    296    297     4  180.0000771  4.6024000  2
    294    296    295    298     4  180.0000771  4.6024000  2
    327    331    329    330     4  180.0000771  4.6024000  2
    322    329    327    328     4  180.0000771  4.6024000  2
    323    331    324    325     4  180.0000771  4.6024000  2
    322    324    323    326     4  180.0000771  4.6024000  2
    355    359    357    358     4  180.0000771  4.6024000  2
    350    357    355    356     4  180.0000771  4.6024000  2
    351    359    352    353     4  180.0000771  4.6024000  2
    350    352    351    354     4  180.0000771  4.6024000  2
    383    387    385    386     4  180.0000771  4.6024000  2
    378    385    383    384     4  180.0000771  4.6024000  2
    379    387    380    381     4  180.0000771  4.6024000  2
    378    380    379    382     4  180.0000771  4.6024000  2
    411    415    413    414     4  180.0000771  4.6024000  2
    406    413    411    412     4  180.0000771  4.6024000  2
    407    415    408    409     4  180.0000771  4.6024000  2
    406    408    407    410     4  180.0000771  4.6024000  2
    439    443    441    442     4  180.0000771  4.6024000  2
    434    441    439    440     4  180.0000771  4.6024000  2
    435    443    436    437     4  180.0000771  4.6024000  2
    434    436    435    438     4  180.0000771  4.6024000  2
    502    506    504    505     4  180.0000771  4.6024000  2
    497    504    502    503     4  180.0000771  4.6024000  2
    498    506    499    500     4  180.0000771  4.6024000  2
    497    499    498    501     4  180.0000771  4.6024000  2
    530    534    532    533     4  180.0000771  4.6024000  2
    525    532    530    531     4  180.0000771  4.6024000  2
    526    534    527    528     4  180.0000771  4.6024000  2
    525    527    526    529     4  180.0000771  4.6024000  2
    558    562    560    561     4  180.0000771  4.6024000  2
    553    560    558    559     4  180.0000771  4.6024000  2
    554    562    555    556     4  180.0000771  4.6024000  2
    553    555    554    557     4  180.0000771  4.6024000  2
    586    590    588    589     4  180.0000771  4.6024000  2
    581    588    586    587     4  180.0000771  4.6024000  2
    582    590    583    584     4  180.0000771  4.6024000  2
    581    583    582    585     4  180.0000771  4.6024000  2
    614    618    616    617     4  180.0000771  4.6024000  2
    609    616    614    615     4  180.0000771  4.6024000  2
    610    618    611    612     4  180.0000771  4.6024000  2
    609    611    610    613     4  180.0000771  4.6024000  2
    677    681    679    680     4  180.0000771  4.6024000  2
    672    679    677    678     4  180.0000771  4.6024000  2
    673    681    674    675     4  180.0000771  4.6024000  2
    672    674    673    676     4  180.0000771  4.6024000  2
    705    709    707    708     4  180.0000771  4.6024000  2
    700    707    705    706     4  180.0000771  4.6024000  2
    701    709    702    703     4  180.0000771  4.6024000  2
    700    702    701    704     4  180.0000771  4.6024000  2
    733    737    735    736     4  180.0000771  4.6024000  2
    728    735    733    734     4  180.0000771  4.6024000  2
    729    737    730    731     4  180.0000771  4.6024000  2
    728    730    729    732     4  180.0000771  4.6024000  2
    761    765    763    764     4  180.0000771  4.6024000  2
    756    763    761    762     4  180.0000771  4.6024000  2
    757    765    758    759     4  180.0000771  4.6024000  2
    756    758    757    760     4  180.0000771  4.6024000  2
    859    863    861    862     4  180.0000771  4.6024000  2
    854    861    859    860     4  180.0000771  4.6024000  2
    855    863    856    857     4  180.0000771  4.6024000  2
    854    856    855    858     4  180.0000771  4.6024000  2

[ system ]
; Name
Generic title

[ molecules ]
; Compound       #mols
system1              1
