GROningen MAchine for Chemical Simulation
  700
    1PET     C9    1   0.354   0.142   0.000
    1PET     H6    2   0.397   0.184   0.091
    1PET     H7    3   0.387   0.197  -0.088
    1PET     O2    4   0.212   0.142   0.008
    1PET     C8    5   0.155   0.264   0.021
    1PET     O1    6   0.213   0.371   0.026
    1PET     C4    7   0.007   0.249   0.024
    1PET     C5    8  -0.054   0.123   0.018
    1PET     C6    9  -0.193   0.111   0.017
    1PET     H4   10  -0.236   0.011   0.011
    1PET     H3   11   0.006   0.032   0.014
    1PET     C3   12  -0.074   0.364   0.031
    1PET     H2   13  -0.028   0.462   0.036
    1PET     C2   14  -0.213   0.352   0.030
    1PET     H1   15  -0.275   0.441   0.035
    1PET     C1   16  -0.273   0.225   0.022
    1PET     C7   17  -0.421   0.216   0.016
    1PET     O3   18  -0.496   0.312   0.020
    1PET     O4   19  -0.458   0.086   0.004
    1PET    C10   20  -0.598   0.059  -0.002
    1PET     H8   21  -0.610  -0.040  -0.047
    1PET     H9   22  -0.648   0.130  -0.069
    1PET    C11   23  -0.661   0.060   0.137
    1PET    H10   24  -0.768   0.041   0.129
    1PET    H11   25  -0.648   0.159   0.183
    1PET    C12   26  -0.598  -0.043   0.229
    1PET    H13   27  -0.647  -0.041   0.327
    1PET    H14   28  -0.491  -0.024   0.244
    2PET     C9   29  -0.610  -0.186   0.175
    2PET     H6   30  -0.560  -0.193   0.078
    2PET     H7   31  -0.716  -0.212   0.163
    2PET     O2   32  -0.549  -0.274   0.269
    2PET     C8   33  -0.418  -0.247   0.294
    2PET     O1   34  -0.351  -0.158   0.245
    2PET     C4   35  -0.368  -0.343   0.397
    2PET     C5   36  -0.451  -0.444   0.448
    2PET     C6   37  -0.404  -0.530   0.547
    2PET     H4   38  -0.471  -0.607   0.586
    2PET     H3   39  -0.553  -0.456   0.414
    2PET     C3   40  -0.237  -0.331   0.444
    2PET     H2   41  -0.171  -0.254   0.404
    2PET     C2   42  -0.189  -0.418   0.543
    2PET     H1   43  -0.087  -0.407   0.579
    2PET     C1   44  -0.273  -0.517   0.596
    2PET     C7   45  -0.221  -0.605   0.704
    2PET     O3   46  -0.109  -0.598   0.750
    2PET     O4   47  -0.319  -0.690   0.743
    2PET    C10   48  -0.286  -0.782   0.848
    2PET     H8   49  -0.380  -0.817   0.891
    2PET     H9   50  -0.230  -0.732   0.927
    2PET    C11   51  -0.208  -0.902   0.792
    2PET    H10   52  -0.182  -0.969   0.874
    2PET    H11   53  -0.114  -0.868   0.747
    2PET    C12   54  -0.287  -0.978   0.687
    2PET    H13   55  -0.230  -1.064   0.651
    2PET    H14   56  -0.310  -0.914   0.600
    3PET     C9   57  -0.421  -1.030   0.740
    3PET     H6   58  -0.483  -0.947   0.774
    3PET     H7   59  -0.403  -1.098   0.824
    3PET     O2   60  -0.486  -1.099   0.633
    3PET     C8   61  -0.508  -1.025   0.523
    3PET     O1   62  -0.480  -0.908   0.507
    3PET     C4   63  -0.573  -1.110   0.418
    3PET     C5   64  -0.604  -1.244   0.444
    3PET     C6   65  -0.660  -1.324   0.344
    3PET     H4   66  -0.682  -1.428   0.366
    3PET     H3   67  -0.584  -1.289   0.541
    3PET     C3   68  -0.600  -1.055   0.292
    3PET     H2   69  -0.577  -0.951   0.271
    3PET     C2   70  -0.657  -1.135   0.192
    3PET     H1   71  -0.677  -1.092   0.094
    3PET     C1   72  -0.685  -1.270   0.217
    3PET     C7   73  -0.741  -1.354   0.107
    3PET     O3   74  -0.765  -1.312  -0.004
    3PET     O4   75  -0.757  -1.481   0.151
    3PET    C10   76  -0.811  -1.575   0.057
    3PET     H8   77  -0.784  -1.674   0.094
    3PET     H9   78  -0.763  -1.563  -0.040
    3PET    C11   79  -0.963  -1.562   0.047
    3PET    H10   80  -1.000  -1.634  -0.027
    3PET    H11   81  -0.990  -1.461   0.012
    3PET    C12   82  -1.031  -1.586   0.181
    3PET    H13   83  -1.140  -1.578   0.169
    3PET    H14   84  -1.000  -1.512   0.256
    4PET     C9   85  -1.001  -1.724   0.239
    4PET     H6   86  -0.893  -1.735   0.254
    4PET     H7   87  -1.035  -1.802   0.170
    4PET     O2   88  -1.070  -1.735   0.363
    4PET     C8   89  -1.038  -1.641   0.455
    4PET     O1   90  -0.958  -1.551   0.441
    4PET     C4   91  -1.120  -1.662   0.577
    4PET     C5   92  -1.210  -1.769   0.587
    4PET     C6   93  -1.290  -1.785   0.700
    4PET     H4   94  -1.359  -1.869   0.704
    4PET     H3   95  -1.221  -1.841   0.506
    4PET     C3   96  -1.109  -1.572   0.684
    4PET     H2   97  -1.039  -1.489   0.679
    4PET     C2   98  -1.188  -1.588   0.798
    4PET     H1   99  -1.179  -1.517   0.880
    4PET     C1  100  -1.280  -1.694   0.806
    4PET     C7  101  -1.367  -1.706   0.926
    4PET     O3  102  -1.362  -1.630   1.021
    4PET     O4  103  -1.450  -1.812   0.912
    4PET    C10  104  -1.540  -1.838   1.020
    4PET     H8  105  -1.621  -1.899   0.979
    4PET     H9  106  -1.585  -1.744   1.055
    4PET    C11  107  -1.470  -1.912   1.133
    4PET    H10  108  -1.541  -1.929   1.215
    4PET    H11  109  -1.388  -1.852   1.173
    4PET    C12  110  -1.413  -2.046   1.087
    4PET    H13  111  -1.366  -2.098   1.171
    4PET    H14  112  -1.338  -2.033   1.009
    5PET     C9  113  -1.521  -2.139   1.030
    5PET     H6  114  -1.569  -2.092   0.944
    5PET     H7  115  -1.596  -2.160   1.106
    5PET     O2  116  -1.457  -2.260   0.990
    5PET     C8  117  -1.357  -2.245   0.899
    5PET     O1  118  -1.320  -2.141   0.849
    5PET     C4  119  -1.297  -2.378   0.871
    5PET     C5  120  -1.346  -2.495   0.931
    5PET     C6  121  -1.285  -2.618   0.907
    5PET     H4  122  -1.325  -2.706   0.956
    5PET     H3  123  -1.430  -2.492   0.999
    5PET     C3  124  -1.188  -2.387   0.783
    5PET     H2  125  -1.150  -2.297   0.734
    5PET     C2  126  -1.127  -2.510   0.758
    5PET     H1  127  -1.042  -2.516   0.690
    5PET     C1  128  -1.174  -2.626   0.821
    5PET     C7  129  -1.105  -2.755   0.796
    5PET     O3  130  -1.009  -2.768   0.722
    5PET     O4  131  -1.164  -2.853   0.869
    5PET    C10  132  -1.109  -2.985   0.857
    5PET     H8  133  -1.142  -3.041   0.945
    5PET     H9  134  -1.000  -2.981   0.860
    5PET    C11  135  -1.160  -3.053   0.730
    5PET    H10  136  -1.115  -3.153   0.723
    5PET    H11  137  -1.129  -2.996   0.642
    5PET    C12  138  -1.312  -3.066   0.729
    5PET    H13  139  -1.344  -3.118   0.638
    5PET    H14  140  -1.360  -2.968   0.730
    6PET     C9  141  -1.366  -3.145   0.849
    6PET     H6  142  -1.337  -3.095   0.941
    6PET     H7  143  -1.324  -3.246   0.848
    6PET     O2  144  -1.508  -3.150   0.836
    6PET     C8  145  -1.569  -3.030   0.831
    6PET     O1  146  -1.515  -2.921   0.837
    6PET     C4  147  -1.716  -3.050   0.814
    6PET     C5  148  -1.771  -3.179   0.810
    6PET     C6  149  -1.908  -3.197   0.790
    6PET     H4  150  -1.947  -3.298   0.786
    6PET     H3  151  -1.709  -3.268   0.821
    6PET     C3  152  -1.800  -2.939   0.801
    6PET     H2  153  -1.758  -2.838   0.805
    6PET     C2  154  -1.937  -2.957   0.781
    6PET     H1  155  -2.001  -2.869   0.770
    6PET     C1  156  -1.992  -3.086   0.774
    6PET     C7  157  -2.137  -3.101   0.748
    6PET     O3  158  -2.214  -3.008   0.734
    6PET     O4  159  -2.168  -3.233   0.741
    6PET    C10  160  -2.305  -3.266   0.717
    6PET     H8  161  -2.306  -3.369   0.679
    6PET     H9  162  -2.346  -3.202   0.638
    6PET    C11  163  -2.387  -3.257   0.846
    6PET    H10  164  -2.491  -3.281   0.823
    6PET    H11  165  -2.384  -3.154   0.885
    6PET    C12  166  -2.335  -3.351   0.954
    6PET    H13  167  -2.398  -3.343   1.043
    6PET    H14  168  -2.232  -3.326   0.982
    7PET     C9  169  -2.335  -3.498   0.909
    7PET     H6  170  -2.271  -3.510   0.821
    7PET     H7  171  -2.437  -3.528   0.884
    7PET     O2  172  -2.285  -3.576   1.018
    7PET     C8  173  -2.161  -3.542   1.060
    7PET     O1  174  -2.090  -3.454   1.014
    7PET     C4  175  -2.124  -3.628   1.175
    7PET     C5  176  -2.210  -3.728   1.222
    7PET     C6  177  -2.175  -3.805   1.333
    7PET     H4  178  -2.244  -3.881   1.368
    7PET     H3  179  -2.305  -3.747   1.174
    7PET     C3  180  -2.000  -3.608   1.239
    7PET     H2  181  -1.932  -3.531   1.203
    7PET     C2  182  -1.965  -3.685   1.350
    7PET     H1  183  -1.870  -3.667   1.400
    7PET     C1  184  -2.053  -3.783   1.399
    7PET     C7  185  -2.015  -3.860   1.520
    7PET     O3  186  -1.911  -3.846   1.580
    7PET     O4  187  -2.115  -3.946   1.551
    7PET    C10  188  -2.094  -4.029   1.666
    7PET     H8  189  -2.193  -4.064   1.699
    7PET     H9  190  -2.052  -3.971   1.749
    7PET    C11  191  -2.006  -4.149   1.632
    7PET    H10  192  -1.991  -4.210   1.722
    7PET    H11  193  -1.908  -4.115   1.598
    7PET    C12  194  -2.067  -4.236   1.523
    7PET    H13  195  -2.002  -4.322   1.502
    7PET    H14  196  -2.079  -4.180   1.429
    8PET     C9  197  -2.206  -4.290   1.560
    8PET     H6  198  -2.274  -4.206   1.579
    8PET     H7  199  -2.198  -4.351   1.651
    8PET     O2  200  -2.252  -4.369   1.451
    8PET     C8  201  -2.260  -4.304   1.333
    8PET     O1  202  -2.233  -4.187   1.312
    8PET     C4  203  -2.306  -4.399   1.228
    8PET     C5  204  -2.337  -4.532   1.259
    8PET     C6  205  -2.376  -4.621   1.158
    8PET     H4  206  -2.398  -4.724   1.186
    8PET     H3  207  -2.331  -4.569   1.361
    8PET     C3  208  -2.317  -4.355   1.095
    8PET     H2  209  -2.294  -4.251   1.070
    8PET     C2  210  -2.356  -4.444   0.994
    8PET     H1  211  -2.363  -4.409   0.891
    8PET     C1  212  -2.384  -4.578   1.025
    8PET     C7  213  -2.420  -4.671   0.916
    8PET     O3  214  -2.430  -4.639   0.799
    8PET     O4  215  -2.440  -4.795   0.967
    8PET    C10  216  -2.476  -4.898   0.874
    8PET     H8  217  -2.452  -4.994   0.922
    8PET     H9  218  -2.415  -4.891   0.783
    8PET    C11  219  -2.625  -4.892   0.841
    8PET    H10  220  -2.649  -4.971   0.769
    8PET    H11  221  -2.650  -4.796   0.795
    8PET    C12  222  -2.712  -4.909   0.965
    8PET    H13  223  -2.818  -4.907   0.938
    8PET    H14  224  -2.694  -4.829   1.038
    9PET     C9  225  -2.686  -5.042   1.038
    9PET     H6  226  -2.581  -5.046   1.069
    9PET     H7  227  -2.707  -5.125   0.971
    9PET     O2  228  -2.772  -5.046   1.151
    9PET     C8  229  -2.757  -4.944   1.239
    9PET     O1  230  -2.678  -4.852   1.230
    9PET     C4  231  -2.855  -4.959   1.350
    9PET     C5  232  -2.942  -5.069   1.355
    9PET     C6  233  -3.037  -5.080   1.457
    9PET     H4  234  -3.104  -5.165   1.457
    9PET     H3  235  -2.939  -5.147   1.279
    9PET     C3  236  -2.862  -4.862   1.450
    9PET     H2  237  -2.794  -4.776   1.448
    9PET     C2  238  -2.956  -4.872   1.552
    9PET     H1  239  -2.962  -4.795   1.629
    9PET     C1  240  -3.045  -4.981   1.555
    9PET     C7  241  -3.148  -4.987   1.663
    9PET     O3  242  -3.159  -4.904   1.751
    9PET     O4  243  -3.225  -5.097   1.645
    9PET    C10  244  -3.329  -5.119   1.741
    9PET     H8  245  -3.402  -5.186   1.694
    9PET     H9  246  -3.382  -5.025   1.762
    9PET    C11  247  -3.274  -5.182   1.868
    9PET    H10  248  -3.356  -5.195   1.940
    9PET    H11  249  -3.201  -5.116   1.914
    9PET    C12  250  -3.208  -5.316   1.841
    9PET    H13  251  -3.172  -5.360   1.935
    9PET    H14  252  -3.122  -5.305   1.774
   10PET     C9  253  -3.303  -5.418   1.777
   10PET     H6  254  -3.339  -5.379   1.681
   10PET     H7  255  -3.388  -5.435   1.843
   10PET     O2  256  -3.230  -5.538   1.756
   10PET     C8  257  -3.120  -5.526   1.680
   10PET     O1  258  -3.079  -5.424   1.627
   10PET     C4  259  -3.052  -5.659   1.670
   10PET     C5  260  -3.105  -5.772   1.732
   10PET     C6  261  -3.038  -5.894   1.726
   10PET     H4  262  -3.082  -5.980   1.777
   10PET     H3  263  -3.199  -5.768   1.787
   10PET     C3  264  -2.931  -5.669   1.600
   10PET     H2  265  -2.888  -5.582   1.550
   10PET     C2  266  -2.863  -5.792   1.594
   10PET     H1  267  -2.769  -5.798   1.539
   10PET     C1  268  -2.916  -5.904   1.658
   10PET     C7  269  -2.840  -6.032   1.654
   10PET     O3  270  -2.734  -6.047   1.596
   10PET     O4  271  -2.906  -6.126   1.725
   10PET    C10  272  -2.846  -6.256   1.731
   10PET     H8  273  -2.890  -6.307   1.818
   10PET     H9  274  -2.739  -6.248   1.749
   10PET    C11  275  -2.876  -6.336   1.604
   10PET    H10  276  -2.828  -6.434   1.611
   10PET    H11  277  -2.835  -6.285   1.517
   10PET    C12  278  -3.026  -6.355   1.582
   10PET    H13  279  -3.043  -6.414   1.492
   10PET    H14  280  -3.076  -6.259   1.569
   11PET     C9  281  -3.094  -6.427   1.699
   11PET     H6  282  -3.081  -6.369   1.791
   11PET     H7  283  -3.050  -6.526   1.712
   11PET     O2  284  -3.232  -6.439   1.667
   11PET     C8  285  -3.296  -6.321   1.644
   11PET     O1  286  -3.247  -6.210   1.648
   11PET     C4  287  -3.438  -6.349   1.608
   11PET     C5  288  -3.488  -6.480   1.606
   11PET     C6  289  -3.620  -6.504   1.568
   11PET     H4  290  -3.655  -6.607   1.567
   11PET     H3  291  -3.426  -6.565   1.633
   11PET     C3  292  -3.522  -6.243   1.574
   11PET     H2  293  -3.485  -6.140   1.576
   11PET     C2  294  -3.655  -6.267   1.536
   11PET     H1  295  -3.719  -6.183   1.509
   11PET     C1  296  -3.704  -6.398   1.531
   11PET     C7  297  -3.844  -6.422   1.486
   11PET     O3  298  -3.921  -6.333   1.454
   11PET     O4  299  -3.869  -6.555   1.486
   11PET    C10  300  -4.000  -6.595   1.445
   11PET     H8  301  -3.993  -6.700   1.415
   11PET     H9  302  -4.032  -6.539   1.356
   11PET    C11  303  -4.100  -6.580   1.559
   11PET    H10  304  -4.200  -6.609   1.524
   11PET    H11  305  -4.106  -6.475   1.590
   11PET    C12  306  -4.062  -6.663   1.681
   11PET    H13  307  -4.137  -6.652   1.759
   11PET    H14  308  -3.965  -6.632   1.722
   12PET     C9  309  -4.052  -6.813   1.648
   12PET     H6  310  -3.975  -6.828   1.572
   12PET     H7  311  -4.148  -6.849   1.612
   12PET     O2  312  -4.016  -6.880   1.769
   12PET     C8  313  -3.900  -6.839   1.825
   12PET     O1  314  -3.826  -6.752   1.783
   12PET     C4  315  -3.877  -6.915   1.951
   12PET     C5  316  -3.966  -7.014   1.993
   12PET     C6  317  -3.945  -7.081   2.114
   12PET     H4  318  -4.017  -7.157   2.144
   12PET     H3  319  -4.053  -7.041   1.934
   12PET     C3  320  -3.765  -6.885   2.030
   12PET     H2  321  -3.695  -6.808   1.999
   12PET     C2  322  -3.744  -6.952   2.151
   12PET     H1  323  -3.658  -6.927   2.212
   12PET     C1  324  -3.835  -7.050   2.194
   12PET     C7  325  -3.813  -7.116   2.325
   12PET     O3  326  -3.719  -7.093   2.398
   12PET     O4  327  -3.914  -7.204   2.349
   12PET    C10  328  -3.908  -7.277   2.471
   12PET     H8  329  -4.009  -7.313   2.492
   12PET     H9  330  -3.880  -7.211   2.554
   12PET    C11  331  -3.812  -7.396   2.460
   12PET    H10  332  -3.808  -7.449   2.555
   12PET    H11  333  -3.711  -7.360   2.438
   12PET    C12  334  -3.854  -7.492   2.350
   12PET    H13  335  -3.785  -7.577   2.346
   12PET    H14  336  -3.853  -7.444   2.252
   13PET     C9  337  -3.995  -7.549   2.371
   13PET     H6  338  -4.067  -7.467   2.373
   13PET     H7  339  -3.999  -7.603   2.467
   13PET     O2  340  -4.023  -7.638   2.263
   13PET     C8  341  -4.016  -7.582   2.140
   13PET     O1  342  -3.989  -7.466   2.115
   13PET     C4  343  -4.043  -7.686   2.038
   13PET     C5  344  -4.074  -7.818   2.074
   13PET     C6  345  -4.095  -7.915   1.977
   13PET     H4  346  -4.118  -8.017   2.009
   13PET     H3  347  -4.081  -7.847   2.179
   13PET     C3  348  -4.036  -7.652   1.902
   13PET     H2  349  -4.012  -7.550   1.872
   13PET     C2  350  -4.057  -7.750   1.804
   13PET     H1  351  -4.050  -7.723   1.698
   13PET     C1  352  -4.085  -7.882   1.841
   13PET     C7  353  -4.102  -7.985   1.735
   13PET     O3  354  -4.096  -7.962   1.616
   13PET     O4  355  -4.125  -8.106   1.792
   13PET    C10  356  -4.145  -8.216   1.704
   13PET     H8  357  -4.126  -8.307   1.762
   13PET     H9  358  -4.071  -8.214   1.622
   13PET    C11  359  -4.288  -8.219   1.650
   13PET    H10  360  -4.299  -8.303   1.581
   13PET    H11  361  -4.308  -8.127   1.593
   13PET    C12  362  -4.391  -8.230   1.761
   13PET    H13  363  -4.492  -8.234   1.719
   13PET    H14  364  -4.386  -8.144   1.829
   14PET     C9  365  -4.372  -8.356   1.847
   14PET     H6  366  -4.273  -8.354   1.893
   14PET     H7  367  -4.381  -8.445   1.784
   14PET     O2  368  -4.473  -8.356   1.947
   14PET     C8  369  -4.474  -8.246   2.027
   14PET     O1  370  -4.398  -8.152   2.022
   14PET     C4  371  -4.587  -8.258   2.124
   14PET     C5  372  -4.671  -8.370   2.125
   14PET     C6  373  -4.779  -8.377   2.213
   14PET     H4  374  -4.842  -8.465   2.210
   14PET     H3  375  -4.655  -8.453   2.057
   14PET     C3  376  -4.611  -8.153   2.214
   14PET     H2  377  -4.547  -8.066   2.215
   14PET     C2  378  -4.719  -8.160   2.302
   14PET     H1  379  -4.738  -8.078   2.371
   14PET     C1  380  -4.805  -8.271   2.301
   14PET     C7  381  -4.922  -8.274   2.393
   14PET     O3  382  -4.948  -8.186   2.472
   14PET     O4  383  -4.992  -8.388   2.373
   14PET    C10  384  -5.108  -8.407   2.454
   14PET     H8  385  -5.171  -8.480   2.403
   14PET     H9  386  -5.166  -8.314   2.460
   14PET    C11  387  -5.071  -8.458   2.593
   14PET    H10  388  -5.161  -8.470   2.653
   14PET    H11  389  -5.006  -8.386   2.644
   14PET    C12  390  -4.997  -8.591   2.586
   14PET    H13  391  -4.974  -8.626   2.688
   14PET    H14  392  -4.903  -8.582   2.532
   15PET     C9  393  -5.079  -8.701   2.517
   15PET     H6  394  -5.102  -8.670   2.415
   15PET     H7  395  -5.172  -8.717   2.572
   15PET     O2  396  -5.000  -8.820   2.517
   15PET     C8  397  -4.880  -8.809   2.456
   15PET     O1  398  -4.835  -8.710   2.402
   15PET     C4  399  -4.808  -8.939   2.467
   15PET     C5  400  -4.866  -9.050   2.530
   15PET     C6  401  -4.795  -9.169   2.543
   15PET     H4  402  -4.844  -9.252   2.593
   15PET     H3  403  -4.967  -9.045   2.570
   15PET     C3  404  -4.678  -8.950   2.415
   15PET     H2  405  -4.631  -8.865   2.366
   15PET     C2  406  -4.607  -9.069   2.429
   15PET     H1  407  -4.505  -9.076   2.389
   15PET     C1  408  -4.665  -9.179   2.494
   15PET     C7  409  -4.585  -9.304   2.511
   15PET     O3  410  -4.472  -9.318   2.469
   15PET     O4  411  -4.658  -9.395   2.579
   15PET    C10  412  -4.596  -9.522   2.603
   15PET     H8  413  -4.650  -9.568   2.687
   15PET     H9  414  -4.493  -9.508   2.636
   15PET    C11  415  -4.605  -9.612   2.480
   15PET    H10  416  -4.555  -9.707   2.502
   15PET    H11  417  -4.553  -9.565   2.396
   15PET    C12  418  -4.749  -9.638   2.438
   15PET    H13  419  -4.751  -9.705   2.352
   15PET    H14  420  -4.800  -9.545   2.411
   16PET     C9  421  -4.832  -9.704   2.550
   16PET     H6  422  -4.834  -9.639   2.637
   16PET     H7  423  -4.787  -9.800   2.577
   16PET     O2  424  -4.964  -9.724   2.500
   16PET     C8  425  -5.026  -9.611   2.458
   16PET     O1  426  -4.982  -9.498   2.461
   16PET     C4  427  -5.161  -9.647   2.405
   16PET     C5  428  -5.206  -9.780   2.406
   16PET     C6  429  -5.331  -9.812   2.351
   16PET     H4  430  -5.362  -9.916   2.353
   16PET     H3  431  -5.146  -9.860   2.448
   16PET     C3  432  -5.242  -9.547   2.351
   16PET     H2  433  -5.209  -9.443   2.350
   16PET     C2  434  -5.367  -9.579   2.296
   16PET     H1  435  -5.429  -9.500   2.254
   16PET     C1  436  -5.411  -9.712   2.295
   16PET     C7  437  -5.542  -9.745   2.232
   16PET     O3  438  -5.616  -9.662   2.183
   16PET     O4  439  -5.563  -9.878   2.239
   16PET    C10  440  -5.686  -9.926   2.183
   16PET     H8  441  -5.672 -10.033   2.163
   16PET     H9  442  -5.706  -9.878   2.087
   16PET    C11  443  -5.802  -9.907   2.280
   16PET    H10  444  -5.894  -9.943   2.234
   16PET    H11  445  -5.815  -9.800   2.302
   16PET    C12  446  -5.779  -9.979   2.412
   16PET    H13  447  -5.865  -9.965   2.478
   16PET    H14  448  -5.691  -9.942   2.464
   17PET     C9  449  -5.760 -10.131   2.394
   17PET     H6  450  -5.673 -10.149   2.330
   17PET     H7  451  -5.849 -10.173   2.346
   17PET     O2  452  -5.740 -10.188   2.523
   17PET     C8  453  -5.635 -10.137   2.591
   17PET     O1  454  -5.558 -10.051   2.554
   17PET     C4  455  -5.628 -10.203   2.725
   17PET     C5  456  -5.720 -10.303   2.762
   17PET     C6  457  -5.715 -10.360   2.889
   17PET     H4  458  -5.788 -10.436   2.914
   17PET     H3  459  -5.796 -10.337   2.693
   17PET     C3  460  -5.530 -10.163   2.817
   17PET     H2  461  -5.458 -10.086   2.790
   17PET     C2  462  -5.525 -10.220   2.944
   17PET     H1  463  -5.449 -10.187   3.015
   17PET     C1  464  -5.618 -10.318   2.981
   17PET     C7  465  -5.614 -10.374   3.119
   17PET     O3  466  -5.532 -10.341   3.203
   17PET     O4  467  -5.714 -10.463   3.135
   17PET    C10  468  -5.724 -10.527   3.263
   17PET     H8  469  -5.826 -10.566   3.271
   17PET     H9  470  -5.710 -10.454   3.343
   17PET    C11  471  -5.624 -10.642   3.274
   17PET    H10  472  -5.633 -10.688   3.373
   17PET    H11  473  -5.522 -10.604   3.264
   17PET    C12  474  -5.647 -10.748   3.167
   17PET    H13  475  -5.575 -10.830   3.180
   17PET    H14  476  -5.633 -10.707   3.067
   18PET     C9  477  -5.788 -10.809   3.173
   18PET     H6  478  -5.862 -10.730   3.158
   18PET     H7  479  -5.804 -10.856   3.270
   18PET     O2  480  -5.797 -10.906   3.069
   18PET     C8  481  -5.774 -10.859   2.945
   18PET     O1  482  -5.747 -10.745   2.914
   18PET     C4  483  -5.783 -10.972   2.847
   18PET     C5  484  -5.815 -11.102   2.889
   18PET     C6  485  -5.819 -11.207   2.798
   18PET     H4  486  -5.843 -11.306   2.834
   18PET     H3  487  -5.836 -11.123   2.994
   18PET     C3  488  -5.757 -10.948   2.712
   18PET     H2  489  -5.732 -10.848   2.677
   18PET     C2  490  -5.761 -11.053   2.620
   18PET     H1  491  -5.739 -11.034   2.515
   18PET     C1  492  -5.790 -11.184   2.663
   18PET     C7  493  -5.789 -11.295   2.564
   18PET     O3  494  -5.766 -11.280   2.445
   18PET     O4  495  -5.816 -11.411   2.627
   18PET    C10  496  -5.820 -11.529   2.545
   18PET     H8  497  -5.806 -11.614   2.612
   18PET     H9  498  -5.735 -11.529   2.475
   18PET    C11  499  -5.953 -11.541   2.472
   18PET    H10  500  -5.951 -11.631   2.409
   18PET    H11  501  -5.967 -11.455   2.406
   18PET    C12  502  -6.071 -11.548   2.568
   18PET    H13  503  -6.164 -11.559   2.512
   18PET    H14  504  -6.079 -11.457   2.628
   19PET     C9  505  -6.061 -11.666   2.665
   19PET     H6  506  -5.970 -11.657   2.725
   19PET     H7  507  -6.058 -11.760   2.609
   19PET     O2  508  -6.176 -11.663   2.749
   19PET     C8  509  -6.191 -11.548   2.820
   19PET     O1  510  -6.118 -11.452   2.818
   19PET     C4  511  -6.317 -11.557   2.900
   19PET     C5  512  -6.397 -11.672   2.898
   19PET     C6  513  -6.516 -11.677   2.970
   19PET     H4  514  -6.576 -11.767   2.965
   19PET     H3  515  -6.368 -11.759   2.839
   19PET     C3  516  -6.357 -11.447   2.977
   19PET     H2  517  -6.295 -11.357   2.980
   19PET     C2  518  -6.476 -11.452   3.049
   19PET     H1  519  -6.507 -11.365   3.108
   19PET     C1  520  -6.557 -11.566   3.045
   19PET     C7  521  -6.686 -11.567   3.119
   19PET     O3  522  -6.726 -11.474   3.186
   19PET     O4  523  -6.749 -11.685   3.098
   19PET    C10  524  -6.876 -11.702   3.163
   19PET     H8  525  -6.929 -11.781   3.110
   19PET     H9  526  -6.937 -11.611   3.154
   19PET    C11  527  -6.857 -11.742   3.309
   19PET    H10  528  -6.955 -11.752   3.357
   19PET    H11  529  -6.803 -11.663   3.363
   19PET    C12  530  -6.779 -11.872   3.324
   19PET    H13  531  -6.770 -11.898   3.430
   19PET    H14  532  -6.678 -11.863   3.283
   20PET     C9  533  -6.847 -11.989   3.253
   20PET     H6  534  -6.856 -11.967   3.146
   20PET     H7  535  -6.947 -12.005   3.295
   20PET     O2  536  -6.766 -12.105   3.273
   20PET     C8  537  -6.639 -12.093   3.229
   20PET     O1  538  -6.589 -11.997   3.175
   20PET     C4  539  -6.565 -12.219   3.261
   20PET     C5  540  -6.629 -12.327   3.323
   20PET     C6  541  -6.557 -12.442   3.355
   20PET     H4  542  -6.610 -12.524   3.404
   20PET     H3  543  -6.734 -12.324   3.348
   20PET     C3  544  -6.429 -12.228   3.229
   20PET     H2  545  -6.378 -12.146   3.180
   20PET     C2  546  -6.357 -12.344   3.262
   20PET     H1  547  -6.251 -12.350   3.238
   20PET     C1  548  -6.420 -12.451   3.326
   20PET     C7  549  -6.341 -12.571   3.364
   20PET     O3  550  -6.222 -12.584   3.340
   20PET     O4  551  -6.420 -12.660   3.428
   20PET    C10  552  -6.359 -12.782   3.471
   20PET     H8  553  -6.423 -12.823   3.549
   20PET     H9  554  -6.261 -12.761   3.517
   20PET    C11  555  -6.347 -12.881   3.355
   20PET    H10  556  -6.298 -12.972   3.391
   20PET    H11  557  -6.284 -12.838   3.276
   20PET    C12  558  -6.482 -12.916   3.296
   20PET    H13  559  -6.470 -12.989   3.215
   20PET    H14  560  -6.532 -12.827   3.254
   21PET     C9  561  -6.578 -12.977   3.399
   21PET     H6  562  -6.595 -12.905   3.480
   21PET     H7  563  -6.535 -13.068   3.440
   21PET     O2  564  -6.701 -13.005   3.332
   21PET     C8  565  -6.760 -12.898   3.274
   21PET     O1  566  -6.720 -12.784   3.274
   21PET     C4  567  -6.884 -12.944   3.204
   21PET     C5  568  -6.926 -13.078   3.209
   21PET     C6  569  -7.040 -13.119   3.141
   21PET     H4  570  -7.068 -13.223   3.146
   21PET     H3  571  -6.870 -13.152   3.266
   21PET     C3  572  -6.960 -12.851   3.132
   21PET     H2  573  -6.930 -12.746   3.127
   21PET     C2  574  -7.075 -12.892   3.063
   21PET     H1  575  -7.132 -12.819   3.006
   21PET     C1  576  -7.114 -13.027   3.066
   21PET     C7  577  -7.234 -13.069   2.988
   21PET     O3  578  -7.302 -12.993   2.922
   21PET     O4  579  -7.252 -13.202   3.002
   21PET    C10  580  -7.364 -13.259   2.933
   21PET     H8  581  -7.344 -13.367   2.924
   21PET     H9  582  -7.370 -13.219   2.831
   21PET    C11  583  -7.493 -13.237   3.011
   21PET    H10  584  -7.577 -13.280   2.955
   21PET    H11  585  -7.512 -13.130   3.022
   21PET    C12  586  -7.488 -13.299   3.150
   21PET    H13  587  -7.583 -13.283   3.202
   21PET    H14  588  -7.408 -13.254   3.210
   22PET     C9  589  -7.461 -13.450   3.146
   22PET     H6  590  -7.365 -13.470   3.097
   22PET     H7  591  -7.541 -13.500   3.090
   22PET     O2  592  -7.459 -13.497   3.281
   22PET     C8  593  -7.366 -13.437   3.360
   22PET     O1  594  -7.287 -13.351   3.327
   22PET     C4  595  -7.377 -13.493   3.498
   22PET     C5  596  -7.470 -13.593   3.529
   22PET     C6  597  -7.482 -13.640   3.659
   22PET     H4  598  -7.556 -13.718   3.680
   22PET     H3  599  -7.535 -13.635   3.452
   22PET     C3  600  -7.295 -13.442   3.599
   22PET     H2  601  -7.222 -13.364   3.576
   22PET     C2  602  -7.306 -13.489   3.730
   22PET     H1  603  -7.242 -13.448   3.808
   22PET     C1  604  -7.401 -13.588   3.761
   22PET     C7  605  -7.415 -13.633   3.902
   22PET     O3  606  -7.347 -13.592   3.994
   22PET     O4  607  -7.514 -13.725   3.910
   22PET    C10  608  -7.540 -13.780   4.040
   22PET     H8  609  -7.642 -13.822   4.037
   22PET     H9  610  -7.541 -13.701   4.115
   22PET    C11  611  -7.440 -13.890   4.074
   22PET    H10  612  -7.462 -13.928   4.175
   22PET    H11  613  -7.338 -13.849   4.076
   22PET    C12  614  -7.444 -14.004   3.974
   22PET    H13  615  -7.372 -14.082   4.003
   22PET    H14  616  -7.417 -13.970   3.874
   23PET     C9  617  -7.582 -14.070   3.964
   23PET     H6  618  -7.656 -13.995   3.933
   23PET     H7  619  -7.611 -14.110   4.062
   23PET     O2  620  -7.573 -14.175   3.868
   23PET     C8  621  -7.534 -14.136   3.745
   23PET     O1  622  -7.506 -14.023   3.710
   23PET     C4  623  -7.525 -14.256   3.657
   23PET     C5  624  -7.560 -14.384   3.704
   23PET     C6  625  -7.547 -14.495   3.621
   23PET     H4  626  -7.573 -14.593   3.661
   23PET     H3  627  -7.595 -14.398   3.805
   23PET     C3  628  -7.481 -14.241   3.525
   23PET     H2  629  -7.454 -14.143   3.486
   23PET     C2  630  -7.468 -14.353   3.442
   23PET     H1  631  -7.432 -14.341   3.340
   23PET     C1  632  -7.500 -14.481   3.490
   23PET     C7  633  -7.481 -14.599   3.401
   23PET     O3  634  -7.441 -14.592   3.287
   23PET     O4  635  -7.514 -14.712   3.469
   23PET    C10  636  -7.502 -14.835   3.397
   23PET     H8  637  -7.496 -14.915   3.472
   23PET     H9  638  -7.408 -14.837   3.340
   23PET    C11  639  -7.623 -14.858   3.306
   23PET    H10  640  -7.609 -14.952   3.252
   23PET    H11  641  -7.630 -14.777   3.232
   23PET    C12  642  -7.753 -14.862   3.385
   23PET    H13  643  -7.837 -14.881   3.317
   23PET    H14  644  -7.772 -14.768   3.436
   24PET     C9  645  -7.754 -14.973   3.492
   24PET     H6  646  -7.672 -14.956   3.563
   24PET     H7  647  -7.740 -15.070   3.444
   24PET     O2  648  -7.880 -14.968   3.558
   24PET     C8  649  -7.908 -14.849   3.616
   24PET     O1  650  -7.838 -14.750   3.618
   24PET     C4  651  -8.044 -14.857   3.678
   24PET     C5  652  -8.119 -14.975   3.674
   24PET     C6  653  -8.248 -14.979   3.728
   24PET     H4  654  -8.303 -15.072   3.722
   24PET     H3  655  -8.080 -15.065   3.627
   24PET     C3  656  -8.098 -14.743   3.740
   24PET     H2  657  -8.040 -14.651   3.745
   24PET     C2  658  -8.227 -14.747   3.795
   24PET     H1  659  -8.268 -14.658   3.842
   24PET     C1  660  -8.303 -14.865   3.788
   24PET     C7  661  -8.441 -14.865   3.843
   24PET     O3  662  -8.493 -14.769   3.896
   24PET     O4  663  -8.497 -14.987   3.822
   24PET    C10  664  -8.631 -15.004   3.870
   24PET     H8  665  -8.673 -15.090   3.816
   24PET     H9  666  -8.692 -14.917   3.845
   24PET    C11  667  -8.633 -15.032   4.020
   24PET    H10  668  -8.736 -15.043   4.053
   24PET    H11  669  -8.589 -14.948   4.074
   24PET    C12  670  -8.554 -15.158   4.056
   24PET    H13  671  -8.560 -15.176   4.164
   24PET    H14  672  -8.449 -15.148   4.029
   25PET     C9  673  -8.607 -15.283   3.985
   25PET     H6  674  -8.601 -15.269   3.876
   25PET     H7  675  -8.712 -15.300   4.013
   25PET     O2  676  -8.527 -15.393   4.026
   25PET     C8  677  -8.395 -15.380   3.999
   25PET     O1  678  -8.340 -15.286   3.945
   25PET     C4  679  -8.323 -15.500   4.051
   25PET     C5  680  -8.392 -15.606   4.112
   25PET     C6  681  -8.322 -15.715   4.163
   25PET     H4  682  -8.379 -15.795   4.210
   25PET     H3  683  -8.500 -15.604   4.121
   25PET     C3  684  -8.183 -15.506   4.040
   25PET     H2  685  -8.128 -15.425   3.993
   25PET     C2  686  -8.113 -15.616   4.091
   25PET     H1  687  -8.005 -15.619   4.083
   25PET     C1  688  -8.183 -15.720   4.155
   25PET     C7  689  -8.106 -15.834   4.213
   25PET     O3  690  -7.985 -15.844   4.207
   25PET     O4  691  -8.191 -15.921   4.271
   25PET    C10  692  -8.133 -16.037   4.332
   25PET     H8  693  -8.206 -16.075   4.404
   25PET     H9  694  -8.044 -16.009   4.390
   25PET    C11  695  -8.101 -16.143   4.228
   25PET    H10  696  -8.056 -16.230   4.277
   25PET    H11  697  -8.029 -16.105   4.155
   25PET    C12  698  -8.226 -16.188   4.152
   25PET    H13  699  -8.200 -16.266   4.080
   25PET    H14  700  -8.271 -16.105   4.097
   9.63371  17.22877   4.99207
