PET
   700
   3.5400032   1.4197788   0.0000019   3.9739191   1.8406752   0.9118129
   3.8698782   1.9705135  -0.8846012   2.1173645   1.4178293   0.0819797
   1.5515726   2.6414837   0.2079375   2.1316557   3.7075418   0.2649345
   0.0675948   2.4905359   0.2409320  -0.5372408   1.2269964   0.1839600
  -1.9251774   1.1090463   0.1709642  -2.3592200   0.1140384   0.1149716
   0.0597752   0.3198922   0.1359708  -0.7372009   3.6363412   0.3119111
  -0.2821469   4.6243405   0.3639132  -2.1310920   3.5173966   0.3009150
  -2.7482435   4.4146746   0.3469180  -2.7321042   2.2524969   0.2159340
  -4.2149616   2.1585696   0.1569361  -4.9597932   3.1174376   0.2019157
  -4.5790596   0.8584795   0.0419431  -5.9841234   0.5895508  -0.0220659
  -6.0952246  -0.4048823  -0.4692519  -6.4791911   1.2997206  -0.6942137
  -6.6083255   0.6046114   1.3703496  -7.6832004   0.4137046   1.2853580
  -6.4842346   1.5929573   1.8275037  -5.9802840  -0.4305877   2.2925268
  -6.4682797  -0.4085462   3.2725264  -4.9135387  -0.2356903   2.4444959
  -6.1045512  -1.8604581   1.7471081  -5.6027052  -1.9280408   0.7773560
  -7.1603558  -2.1164659   1.6271679  -5.4864619  -2.7357055   2.6865401
  -4.1844294  -2.4682108   2.9443655  -3.5142148  -1.5813071   2.4540194
  -3.6830239  -3.4312678   3.9676825  -4.5078716  -4.4408910   4.4833290
  -4.0353693  -5.3024591   5.4706946  -4.7064649  -6.0663148   5.8550437
  -5.5303368  -4.5635630   4.1353557  -2.3667356  -3.3119373   4.4353889
  -1.7116500  -2.5373418   4.0394271  -1.8918712  -4.1787079   5.4255472
  -0.8699774  -4.0719047   5.7894513  -2.7295637  -5.1699896   5.9585020
  -2.2142554  -6.0456996   7.0442083  -1.0883403  -5.9785117   7.4959006
  -3.1904494  -6.9008568   7.4337933  -2.8553568  -7.8244658   8.4755626
  -3.8013094  -8.1651408   8.9118310  -2.2999037  -7.3169682   9.2725156
  -2.0806212  -9.0168123   7.9216938  -1.8249164  -9.6935409   8.7436903
  -1.1415370  -8.6779504   7.4694665  -2.8722832  -9.7761571   6.8666341
  -2.2972706 -10.6372877   6.5104885  -3.0970764  -9.1422959   6.0025086
  -4.2118951 -10.3042101   7.3996004  -4.8269786  -9.4662097   7.7405748
  -4.0310949 -10.9845508   8.2357205  -4.8596232 -10.9919563   6.3327928
  -5.0831280 -10.2456131   5.2253934  -4.7977254  -9.0750614   5.0686160
  -5.7254659 -11.0997159   4.1842525  -6.0400634 -12.4424919   4.4364135
  -6.5986569 -13.2360118   3.4370395  -6.8192510 -14.2757134   3.6649160
  -5.8441643 -12.8929898   5.4060754  -6.0027546 -10.5528235   2.9234497
  -5.7707484  -9.5095163   2.7146332  -6.5656628 -11.3495106   1.9206412
  -6.7688186 -10.9176467   0.9406813  -6.8533605 -12.7000956   2.1687523
  -7.4059762 -13.5357926   1.0699369  -7.6536310 -13.1182357  -0.0438577
  -7.5743703 -14.8056291   1.5117328  -8.1081136 -15.7456250   0.5725045
  -7.8425546 -16.7437632   0.9391306  -7.6266789 -15.6251817  -0.4047007
  -9.6253251 -15.6170520   0.4714395  -9.9994101 -16.3352368  -0.2656467
  -9.8953172 -14.6142780   0.1210617 -10.3123773 -15.8571544   1.8081497
 -11.3986996 -15.7817413   1.6930770 -10.0021374 -15.1191922   2.5552695
 -10.0050579 -17.2445791   2.3895796  -8.9269130 -17.3467767   2.5444841
 -10.3459852 -18.0166802   1.6951177 -10.6962683 -17.3548726   3.6308244
 -10.3805578 -16.4079115   4.5456510  -9.5781186 -15.5057539   4.4099018
 -11.2036456 -16.6218164   5.7715528 -12.1033194 -17.6928500   5.8668309
 -12.8954571 -17.8501205   7.0018344 -13.5898134 -18.6857361   7.0362564
 -12.2103118 -18.4105263   5.0574716 -11.0876234 -15.7230696   6.8413177
 -10.3881012 -14.8903401   6.7851815 -11.8818575 -15.8825105   7.9819192
 -11.7911377 -15.1730627   8.8044480 -12.8006738 -16.9397938   8.0615295
 -13.6664518 -17.0568418   9.2648155 -13.6175924 -16.3004278  10.2143816
 -14.4973214 -18.1173174   9.1196534 -15.4003451 -18.3767773  10.2003258
 -16.2114950 -18.9913080   9.7933813 -15.8526427 -17.4429555  10.5533412
 -14.7001897 -19.1249846  11.3310973 -15.4111526 -19.2919368  12.1469917
 -13.8774573 -18.5202676  11.7293997 -14.1325949 -20.4602179  10.8712363
 -13.6606202 -20.9793402  11.7119366 -13.3750083 -20.3254732  10.0921783
 -15.2085098 -21.3935169  10.2978138 -15.6850631 -20.9178243   9.4355787
 -15.9628441 -21.5965028  11.0622911 -14.5652950 -22.6024343   9.9035822
 -13.5748376 -22.4508627   8.9929031 -13.2033827 -21.4088727   8.4904064
 -12.9689894 -23.7838457   8.7062532 -13.4557619 -24.9504900   9.3125515
 -12.8483106 -26.1797027   9.0666081 -13.2456519 -27.0614855   9.5627412
 -14.3032072 -24.9187782   9.9925514 -11.8799681 -23.8678276   7.8272858
 -11.4950277 -22.9715538   7.3431007 -11.2714365 -25.1028186   7.5789160
 -10.4193531 -25.1564120   6.9012866 -11.7444494 -26.2635791   8.2092357
 -11.0481862 -27.5545466   7.9647170 -10.0936060 -27.6831607   7.2241361
 -11.6415814 -28.5306790   8.6934644 -11.0931073 -29.8475226   8.5680729
 -11.4169044 -30.4098578   9.4513342  -9.9981150 -29.8100201   8.5963836
 -11.5996346 -30.5332384   7.3024111 -11.1492712 -31.5284862   7.2270477
 -11.2919601 -29.9643670   6.4175734 -13.1162701 -30.6597829   7.2854656
 -13.4416895 -31.1773727   6.3770449 -13.5995540 -29.6773641   7.3032125
 -13.6566067 -31.4502437   8.4857411 -13.3733378 -30.9461660   9.4144500
 -13.2369272 -32.4594367   8.4788412 -15.0754067 -31.5031712   8.3639620
 -15.6888011 -30.2972275   8.3113959 -15.1543624 -29.2074754   8.3665366
 -17.1568221 -30.5046926   8.1442539 -17.7100067 -31.7922217   8.1011318
 -19.0773258 -31.9663404   7.8997113 -19.4695443 -32.9793653   7.8607970
 -17.0862512 -32.6757392   8.2101961 -17.9963396 -29.3899493   8.0094886
 -17.5825584 -28.3833600   8.0480120 -19.3698090 -29.5651505   7.8092705
 -20.0129041 -28.6923779   7.6961481 -19.9151056 -30.8559432   7.7391648
 -21.3703168 -31.0133134   7.4769355 -22.1413249 -30.0843600   7.3397598
 -21.6759309 -32.3318860   7.4137596 -23.0483942 -32.6608931   7.1714321
 -23.0644427 -33.6891913   6.7925375 -23.4610312 -32.0225290   6.3818512
 -23.8683474 -32.5684295   8.4551000 -24.9134824 -32.8079996   8.2330099
 -23.8407232 -31.5449428   8.8461599 -23.3510672 -33.5069496   9.5358800
 -23.9766307 -33.4324220  10.4315032 -22.3238141 -33.2587995   9.8225813
 -23.3532213 -34.9769105   9.0924126 -22.7141252 -35.0955099   8.2124545
 -24.3725300 -35.2831604   8.8436761 -22.8529362 -35.7551705  10.1762259
 -21.6104709 -35.4174581  10.5952084 -20.9022087 -34.5428989  10.1372392
 -21.2352131 -36.2817219  11.7520549 -22.0965121 -37.2829045  12.2225881
 -21.7475667 -38.0498407  13.3318649 -22.4448831 -38.8096207  13.6754537
 -23.0536095 -37.4717332  11.7431329 -20.0048220 -36.0756353  12.3917970
 -19.3219649 -35.3066496  12.0336237 -19.6537950 -36.8474554  13.5045749
 -18.6991150 -36.6732904  14.0009142 -20.5308434 -37.8296021  13.9889126
 -20.1534334 -38.6016775  15.2024324 -19.1074761 -38.4563585  15.8033323
 -21.1505919 -39.4642806  15.5148678 -20.9436387 -40.2945428  16.6631095
 -21.9326152 -40.6398257  16.9854774 -20.5247817 -39.7079174  17.4887277
 -20.0623762 -41.4924061  16.3207998 -19.9091942 -42.0960121  17.2214774
 -19.0778222 -41.1503798  15.9818493 -20.6700405 -42.3584550  15.2266392
 -20.0246333 -43.2197209  15.0249075 -20.7852886 -41.7994272  14.2921710
 -22.0569337 -42.8991179  15.6030219 -22.7390950 -42.0636233  15.7858903
 -21.9797764 -43.5082859  16.5072399 -22.5226254 -43.6889159  14.5121620
 -22.6045408 -43.0356535  13.3290076 -22.3335265 -41.8693183  13.1230015
 -23.0637958 -43.9891180  12.2773165 -23.3725303 -45.3212222  12.5868089
 -23.7567894 -46.2078867  11.5835043 -23.9778358 -47.2360022  11.8586153
 -23.3065101 -45.6909229  13.6068734 -23.1708313 -43.5480501  10.9508149
 -22.9413713 -42.5144817  10.6958533 -23.5587669 -44.4382963   9.9437555
 -23.6299270 -44.0882128   8.9139605 -23.8400833 -45.7774020  10.2537008
 -24.2027650 -46.7131739   9.1564489 -24.2980834 -46.3889800   7.9893852
 -24.3965646 -47.9527796   9.6681565 -24.7607259 -48.9799825   8.7392514
 -24.5223353 -49.9369850   9.2173016 -24.1461965 -48.9125838   7.8342503
 -26.2502680 -48.9201078   8.4131294 -26.4923291 -49.7050044   7.6889963
 -26.4955370 -47.9574676   7.9501142 -27.1168760 -49.0885284   9.6529314
 -28.1767013 -49.0653879   9.3785962 -26.9399875 -48.2857443  10.3763077
 -26.8570677 -50.4159662  10.3794724 -25.8103356 -50.4631933  10.6940475
 -27.0709600 -51.2501237   9.7063600 -27.7176966 -50.4622267  11.5142864
 -27.5658231 -49.4386174  12.3874843 -26.7787291 -48.5174624  12.2970329
 -28.5516370 -49.5945396  13.4965033 -29.4241103 -50.6908521  13.5464354
 -30.3677612 -50.7957881  14.5657294 -31.0351832 -51.6537604  14.5663838
 -29.3915436 -51.4698560  12.7890311 -28.6183482 -48.6155757  14.4978940
 -27.9425802 -47.7618704  14.4767785 -29.5648223 -48.7223466  15.5225831
 -29.6151554 -47.9512251  16.2913081 -30.4543512 -49.8068775  15.5532467
 -31.4819145 -49.8696588  16.6262523 -31.5934585 -49.0440649  17.5106604
 -32.2517341 -50.9703877  16.4479309 -33.2941900 -51.1855964  17.4058427
 -34.0194489 -51.8604242  16.9369900 -33.8198926 -50.2472071  17.6162668
 -32.7442193 -51.8198926  18.6801568 -33.5609707 -51.9547074  19.3969323
 -32.0059656 -51.1550156  19.1429052 -32.0773135 -53.1615237  18.4123014
 -31.7175412 -53.5980333  19.3498771 -31.2188659 -53.0542236  17.7410493
 -33.0309824 -54.1768619  17.7665019 -33.3908940 -53.7853975  16.8104395
 -33.8821137 -54.3531059  18.4291953 -32.3024904 -55.3847607  17.5642522
 -31.1951156 -55.2610461  16.7950112 -30.7850601 -54.2448143  16.2702709
 -30.5155958 -56.5861544  16.7033329 -31.0511492 -57.7235847  17.3238479
 -30.3789700 -58.9422277  17.2644051 -30.8183568 -59.8003216  17.7665834
 -31.9889162 -57.6759054  17.8714690 -29.3085054 -56.6908807  15.9979472
 -28.8835387 -55.8179645  15.5046504 -28.6347376 -57.9154169  15.9367184
 -27.6920921 -57.9845406  15.3938174 -29.1603421 -59.0446647  16.5824336
 -28.3987430 -60.3211810  16.5419118 -27.3434101 -60.4655863  15.9574082
 -29.0630595 -61.2640313  17.2530672 -28.4641668 -62.5634888  17.3110481
 -28.8963170 -63.0718209  18.1805656 -27.3864487 -62.4801485  17.4921393
 -28.7613975 -63.3602388  16.0439572 -28.2761418 -64.3394821  16.1120335
 -28.3451532 -62.8461557  15.1700720 -30.2551732 -63.5483705  15.8209675
 -30.4300532 -64.1440364  14.9189563 -30.7642472 -62.5874707  15.6923584
 -30.9408821 -64.2693742  16.9903307 -30.8102413 -63.6873690  17.9074125
 -30.4955084 -65.2587049  17.1226789 -32.3248167 -64.3879418  16.6720672
 -32.9588501 -63.2146926  16.4379646 -32.4699714 -62.1032957  16.4829040
 -34.3803861 -63.4925654  16.0800733 -34.8838033 -64.8009105  16.0598653
 -36.2017388 -65.0440408  15.6798881 -36.5545509 -66.0720860  15.6652031
 -34.2570945 -65.6482942  16.3258461 -35.2234635 -62.4253080  15.7397996
 -34.8490827 -61.4028402  15.7576789 -36.5476246 -62.6696751  15.3602170
 -37.1925584 -61.8340721  15.0883198 -37.0392277 -63.9829419  15.3147666
 -38.4357425 -64.2173804  14.8609450 -39.2053182 -63.3326911  14.5426637
 -38.6905051 -65.5482132  14.8586855 -40.0030880 -65.9489038  14.4497882
 -39.9340646 -67.0021127  14.1544870 -40.3150644 -65.3874315  13.5617366
 -41.0030911 -65.7951583  15.5921682 -41.9974920 -66.0921182  15.2428736
 -41.0622931 -64.7453848  15.9015010 -40.6211908 -66.6301063  16.8060455
 -41.3720776 -66.5150004  17.5946802 -39.6541063 -66.3205583  17.2158659
 -40.5162182 -68.1276197  16.4837296 -39.7529423 -68.2849471  15.7159444
 -41.4792708 -68.4919507  16.1170669 -40.1562220 -68.8033292  17.6855799
 -38.9981091 -68.3861734  18.2495584 -38.2565616 -67.5200076  17.8299285
 -38.7698685 -69.1472204  19.5124034 -39.6609110 -70.1447731  19.9325651
 -39.4546125 -70.8133903  21.1370737 -40.1720600 -71.5731595  21.4363875
 -40.5323466 -70.4065820  19.3379011 -37.6519296 -68.8454647  20.3028212
 -36.9469315 -68.0781750  19.9863325 -37.4439389 -69.5186076  21.5114649
 -36.5769200 -69.2702649  22.1235957 -38.3531149 -70.4968065  21.9415053
 -38.1336537 -71.1617324  23.2533282 -37.1907093 -70.9307811  23.9839049
 -39.1401261 -72.0382732  23.4872399 -39.0780725 -72.7728170  24.7149283
 -40.0929250 -73.1327983  24.9191437 -38.8007669 -72.1107071  25.5431360
 -38.1220184 -73.9563387  24.5969760 -38.0837787 -74.4853979  25.5549213
 -37.1090371 -73.6010001  24.3760246 -38.5389359 -74.9242195  23.4988546
 -37.8463291 -75.7714349  23.4595232 -38.5334580 -74.4405482  22.5164814
 -39.9494848 -75.4908665  23.7149932 -40.6749525 -74.6721930  23.7324988
 -39.9867841 -76.0282545  24.6660305 -40.2286897 -76.3768316  22.6343750
 -40.1568721 -75.8162230  21.4039782 -39.8928164 -74.6582891  21.1476803
 -40.4306441 -76.8621384  20.3757885 -40.7422156 -78.1791540  20.7418445
 -40.9507857 -79.1519376  19.7668371 -41.1794749 -80.1650497  20.0875772
 -40.8143087 -78.4698378  21.7867725 -40.3566891 -76.5245341  19.0170546
 -40.1227632 -75.5041683  18.7169659 -40.5682457 -77.5013106  18.0380997
 -40.4992530 -77.2310971  16.9843803 -40.8525638 -78.8241709  18.4090618
 -41.0247254 -79.8519384  17.3482963 -40.9589393 -79.6185937  16.1577302
 -41.2546808 -81.0572925  17.9229847 -41.4500954 -82.1638394  17.0352960
 -41.2559488 -83.0727397  17.6161775 -40.7128825 -82.1386506  16.2246798
 -42.8775961 -82.1878752  16.4964639 -42.9890318 -83.0330045  15.8091767
 -43.0808923 -81.2725263  15.9289932 -43.9097904 -82.2991943  17.6094181
 -44.9187653 -82.3388013  17.1858312 -43.8632184 -81.4389083  18.2852613
 -43.7197842 -83.5580812  18.4676457 -42.7289016 -83.5400394  18.9309624
 -43.8093394 -84.4474142  17.8385864 -44.7343688 -83.5551567  19.4682628
 -44.7407074 -82.4647989  20.2710054 -43.9759192 -81.5219947  20.2215666
 -45.8721650 -82.5780660  21.2369444 -46.7104184 -83.7018156  21.2480004
 -47.7886301 -83.7691892  22.1274146 -48.4238617 -84.6508452  22.1003489
 -46.5455943 -84.5325145  20.5665745 -46.1119964 -81.5315230  22.1385168
 -45.4654156 -80.6552904  22.1469196 -47.1937302 -81.6004413  23.0229959
 -47.3775398 -80.7774759  23.7136781 -48.0463954 -82.7145521  23.0116827
 -49.2166185 -82.7393297  23.9288157 -49.4793452 -81.8560232  24.7206298
 -49.9200765 -83.8801639  23.7296449 -51.0838864 -84.0658997  24.5430775
 -51.7134599 -84.8019263  24.0301272 -51.6616113 -83.1363948  24.6019889
 -50.7065982 -84.5821408  25.9286549 -51.6145120 -84.6964657  26.5300262
 -50.0629977 -83.8559586  26.4382172 -49.9691720 -85.9120365  25.8649047
 -49.7368326 -86.2635916  26.8755740 -49.0258330 -85.8201081  25.3165566
 -50.7890494 -87.0095524  25.1715699 -51.0175335 -86.7042502  24.1461814
 -51.7219070 -87.1705188  25.7179357 -50.0041282 -88.1988897  25.1708186
 -48.8008543 -88.0878392  24.5599866 -48.3486454 -87.0973650  24.0208272
 -48.0770164 -89.3877991  24.6705627 -48.6637260 -90.4970269  25.2958543
 -47.9549218 -91.6888178  25.4288210 -48.4374566 -92.5245464  25.9291078
 -49.6720596 -90.4467985  25.6987307 -46.7777622 -89.4956901  24.1549060
 -46.3112088 -88.6451157  23.6601614 -46.0669564 -90.6934213  24.2868002
 -45.0538604 -90.7644757  23.8909620 -46.6477239 -91.7922421  24.9377309
 -45.8515520 -93.0367264  25.1066633 -44.7187828 -93.1813430  24.6917598
 -46.5844200 -93.9505488  25.7877346 -45.9627979 -95.2171655  26.0324628
 -46.5016795 -95.6770386  26.8687279 -44.9256808 -95.0775973  26.3582308
 -46.0496063 -96.1162759  24.8025275 -45.5511371 -97.0676163  25.0158463
 -45.5259880 -95.6516310  23.9592334 -47.4890649 -96.3800257  24.3843421
 -47.5137278 -97.0469879  23.5162534 -48.0017667 -95.4523737  24.1093444
 -48.3160721 -97.0399178  25.4970212 -48.3369522 -96.3872322  26.3747464
 -47.8660853 -97.9981785  25.7688617 -49.6350868 -97.2369573  24.9950245
 -50.2622205 -96.1104749  24.5814346 -49.8175469 -94.9800862  24.6081123
 -51.6080393 -96.4706827  24.0474999 -52.0649606 -97.7960894  24.0586317
 -53.3061234 -98.1191501  23.5149445 -53.6230455 -99.1588004  23.5309641
 -51.4591670 -98.5958002  24.4770164 -52.4234153 -95.4660110  23.5076845
 -52.0854640 -94.4308190  23.4983298 -53.6707565 -95.7905245  22.9635963
 -54.2933726 -95.0037190  22.5377018 -54.1121854 -97.1222199  22.9518935
 -55.4205905 -97.4452033  22.3234614 -56.1611648 -96.6178931  21.8301738
 -55.6335518 -98.7817319  22.3895188 -56.8606440 -99.2637125  21.8304450
 -56.7189019-100.3321829  21.6317083 -57.0565365 -98.7820740  20.8656308
 -58.0199754 -99.0665147  22.8029366 -58.9440625 -99.4279906  22.3398780
 -58.1539422 -98.0000414  23.0171879 -57.7942987 -99.7938857  24.1206943
 -58.6547698 -99.6512408  24.7827116 -56.9063816 -99.4165065  24.6385873
 -57.6001727-101.3056451  23.9353516 -56.7292501-101.4883321  23.2989906
 -58.4887779-101.7342769  23.4649215 -57.3990384-101.8761007  25.2256037
 -56.3477112-101.3724908  25.9143737 -55.5785689-100.5105334  25.5379768
 -56.2832576-102.0287756  27.2527309 -57.1965066-103.0276103  27.6186673
 -57.1479674-103.5969629  28.8890729 -57.8788951-104.3607866  29.1418317
 -57.9643748-103.3671882  26.9282802 -55.3011905-101.6251055  28.1682628
 -54.5802995-100.8555506  27.8961924 -55.2514468-102.1985957  29.4433454
 -54.4900916-101.8713283  30.1513951 -56.1846261-103.1781445  29.8149223
 -56.1387599-103.7353936  31.1927970 -55.3190111-103.4136964  32.0299038
 -57.1426359-104.6319752  31.3490002 -57.2382019-105.2710979  32.6268943
 -58.2610607-105.6554583  32.7119998 -57.1034559-104.5392517  33.4315437
 -56.2411769-106.4208196  32.7398417 -56.3270939-106.8759863  33.7320446
 -55.2176035-106.0423923  32.6383216 -56.4659171-107.4828207  31.6730102
 -55.7506220-108.3021917  31.7995371 -56.3318987-107.0729278  30.6665054
 -57.8758367-108.0881015  31.7297123 -58.6196318-107.3000953  31.5792094
 -58.0352146-108.5551037  32.7049849 -57.9693043-109.0616675  30.6933445
 -57.7358967-108.5907021  29.4455350 -57.4711758-107.4451200  29.1392845
 -57.8269576-109.7195796  28.4742433 -58.1499870-111.0175108  28.8945178
 -58.1864123-112.0669866  27.9792459 -58.4297220-113.0620963  28.3427375
 -58.3645766-111.2331612  29.9380767 -57.5663213-109.4801933  27.1176420
 -57.3210423-108.4761257  26.7747027 -57.6050111-110.5340582  26.1983635
 -57.3916163-110.3395773  25.1472974 -57.9016301-111.8363601  26.6278234
 -57.8879978-112.9454785  25.6374499 -57.6568313-112.7979364  24.4538037
 -58.1638510-114.1135158  26.2664323 -58.1960595-115.2893310  25.4497040
 -58.0619989-116.1445038  26.1219563 -57.3499955-115.2943404  24.7530214
 -59.5288770-115.4101498  24.7164397 -59.5147282-116.3073528  24.0888637
 -59.6741210-114.5479308  24.0556080 -60.7080708-115.4805401  25.6761434
 -61.6432599-115.5916199  25.1174774 -60.7851467-114.5716755  26.2819895
 -60.6082111-116.6642233  26.6489615 -59.6960577-116.5724341  27.2459429
 -60.5795943-117.6003125  26.0854305 -61.7569958-116.6283334  27.4913573
 -61.9115104-115.4829879  28.1967826 -61.1753666-114.5164863  28.1829276
 -63.1674681-115.5701171  28.9974341 -63.9654364-116.7226966  28.9771676
 -65.1575041-116.7683274  29.6964322 -65.7561870-117.6743336  29.6484669
 -63.6793443-117.5940165  28.3936251 -63.5659792-114.4705171  29.7705271
 -62.9532047-113.5708338  29.8021227 -64.7622208-114.5174555  30.4944083
 -65.0682086-113.6539217  31.0849850 -65.5714739-115.6626542  30.4492589
 -66.8612532-115.6667505  31.1892734 -67.2617265-114.7388081  31.8636391
 -67.4948885-116.8464237  30.9821445 -68.7585906-117.0182868  31.6334080
 -69.2853521-117.8147072  31.0953998 -69.3655045-116.1108705  31.5361095
 -68.5716673-117.4156207  33.0948667 -69.5535755-117.5216745  33.5677662
 -68.0302554-116.6286972  33.6323055 -67.7944780-118.7159750  33.2416300
 -67.7012485-118.9826025  34.2995729 -66.7845841-118.6269169  32.8278571
 -68.4727488-119.8935156  32.5269273 -68.5586843-119.6739070  31.4586469
 -69.4699832-120.0510946  32.9456652 -67.6618199-121.0472659  32.7315720
 -66.3863394-120.9333336  32.2917028 -65.8895997-119.9678980  31.7463509
 -65.6487726-122.1915726  32.6061767 -66.2875872-123.2743959  33.2266713
 -65.5712823-124.4238011  33.5525915 -66.0968645-125.2391116  34.0431027
 -67.3447647-123.2351079  33.4764735 -64.2858298-122.2849604  32.2911059
 -63.7772890-121.4550890  31.8026177 -63.5672170-123.4402838  32.6167202
 -62.5057467-123.4996157  32.3761782 -64.2041806-124.5106117  33.2625410
 -63.4051631-125.7063765  33.6405443 -62.2204333-125.8356185  33.4040346
 -64.2023016-126.5962345  34.2798783 -63.5862727-127.8154716  34.7095215
 -64.2272882-128.2337809  35.4939528 -62.6119514-127.6108531  35.1678283
 -63.4674006-128.8054144  33.5542905 -62.9777653-129.7177315  33.9106048
 -62.8405982-128.3834790  32.7603729 -64.8225992-129.1567044  32.9572009
 -64.7015560-129.8861952  32.1496015 -65.3166654-128.2731021  32.5398634
 -65.7828910-129.7655347  33.9890044 -65.9499597-129.0513864  34.8007411
 -65.3495006-130.6823840  34.3966918 -67.0087414-130.0516898  33.3211489
 -67.6016291-128.9847423  32.7351258 -67.1985731-127.8385441  32.7359905
 -68.8446097-129.4369164  32.0447624 -69.2596030-130.7751549  32.0947855
 -70.3987447-131.1868360  31.4068001 -70.6842942-132.2343524  31.4591434
 -68.6980100-131.5169826  32.6568121 -69.6017957-128.5081851  31.3169357
 -69.2962872-127.4637780  31.2745168 -70.7469472-128.9215910  30.6277880
 -71.3237118-128.1938500  30.0569679 -71.1431203-130.2671556  30.6579841
 -72.3364591-130.6876913  29.8767919 -73.0212717-129.9292755  29.2194775
 -72.5178351-132.0231927  30.0166619 -73.6362101-132.5938030  29.3279926
 -73.4361300-133.6674601  29.2360987 -73.7038324-132.1927143  28.3102642
 -74.9297054-132.3721942  30.1067321 -75.7658598-132.8035135  29.5465226
 -75.1242908-131.2990738  30.2151991 -74.8767399-132.9909830  31.4962569
 -75.8280007-132.8346062  32.0155586 -74.0847814-132.5412305  32.1041628
 -74.6139199-134.5032846  31.4598900 -73.6548852-134.6972556  30.9705397
 -75.4119620-135.0006440  30.9027443 -74.5857908-134.9687178  32.8064432
 -73.6607048-134.3740538  33.5963208 -72.8704277-133.5120024  33.2668449
 -73.7722412-134.9269520  34.9775982 -74.6995405-135.9319449  35.2869677
 -74.8194740-136.4038554  36.5920981 -75.5568551-137.1756858  36.7973197
 -75.3488236-136.3519121  34.5230122 -72.9456768-134.4179640  35.9891942
 -72.2155839-133.6422460  35.7630372 -73.0649780-134.8936051  37.2994361
 -72.4243433-134.4848662  38.0808577 -74.0133672-135.8797635  37.6100136
 -74.1519018-136.3318111  39.0198470 -73.4720960-135.9167847  39.9373666
 -75.1413436-137.2539778  39.1013236 -75.4028538-137.8006375  40.3987825
 -76.4156262-138.2183778  40.3671420 -75.4077006-137.0067477  41.1543827
 -74.3998212-138.8980432  40.7427336 -74.6156473-139.2820322  41.7452287
 -73.3837862-138.4873944  40.7587468 -74.4363124-140.0438284  39.7415700
 -73.7234727-140.8223375  40.0327886 -74.1695231-139.7040786  38.7353799
 -75.8213349-140.6993155  39.6440891 -76.5579675-139.9549677  39.3276166
 -76.1070096-141.0992886  40.6203372 -75.7349939-141.7494734  38.6847464
 -75.3366452-141.3626411  37.4498394 -75.0636538-140.2330168  37.0953685
 -75.2528617-142.5626787  36.5672556 -75.5956502-143.8380616  37.0378919
 -75.4682751-144.9526643  36.2121284 -75.7327751-145.9272747  36.6143019
 -75.9531462-143.9847544  38.0538873 -74.8050586-142.4135260  35.2470928
 -74.5418557-141.4283977  34.8647741 -74.6792136-143.5328879  34.4173983
 -74.3211941-143.4078905  33.3954895 -74.9970898-144.8108917  34.9012061
 -74.8075707-145.9884480  34.0131674 -74.4113593-145.9192691  32.8666702
 -75.1377839-147.1171435  34.6862429 -75.0168778-148.3502200  33.9682401
 -74.9570698-149.1475382  34.7178552 -74.0788301-148.3725740  33.4018633
 -76.2250102-148.5779957  33.0642433 -76.0938196-149.5176616  32.5175788
 -76.2977414-147.7732638  32.3237483 -77.5285180-148.6247709  33.8485670
 -78.3690431-148.8140559  33.1727610 -77.7191252-147.6776057  34.3639037
 -77.5366357-149.7286950  34.9156841 -76.7238956-149.5567362  35.6275266
 -77.3993069-150.7018170  34.4373293 -78.7961227-149.6769782  35.5802462
 -79.0846453-148.4899391  36.1642058 -78.3826857-147.4983528  36.1795135
 -80.4404878-148.5681762  36.7819711 -81.1932294-149.7501750  36.7388092
 -82.4752736-149.7904887  37.2821199 -83.0340684-150.7208327  37.2206584
 -80.8002400-150.6499091  36.2723255 -80.9788138-147.4315210  37.4015064
 -80.4035219-146.5081176  37.4493225 -82.2656183-147.4729652  37.9488797
 -82.6790792-146.5812696  38.4200794 -83.0261213-148.6498926  37.8789780
 -84.4090196-148.6512070  38.4255669 -84.9299626-147.6929499  38.9609049
 -84.9713182-149.8673697  38.2235930 -86.3106650-150.0413473  38.6995194
 -86.7303549-150.8956726  38.1561920 -86.9231209-149.1686077  38.4456700
 -86.3264812-150.3222374  40.1993616 -87.3631525-150.4324695  40.5343042
 -85.8919439-149.4768303  40.7449623 -85.5413946-151.5760680  40.5571769
 -85.5950733-151.7601630  41.6352551 -84.4851383-151.4772988  40.2858978
 -86.0741925-152.8292489  39.8478695 -86.0104330-152.6924759  38.7643272
 -87.1166591-152.9954252  40.1312380 -85.2684025-153.9313793  40.2560806
 -83.9464212-153.7990994  39.9949611 -83.4040151-152.8572853  39.4518157
 -83.2260974-155.0002083  40.5092906 -83.9165132-156.0591614  41.1155484
 -83.2220409-157.1518292  41.6295857 -83.7893694-157.9492381  42.1027098
 -84.9994499-156.0439983  41.2082151 -81.8297173-155.0618296  40.4000694
 -81.2799590-154.2504451  39.9253673 -81.1327462-156.1603247  40.9145992
 -80.0463263-156.1946077  40.8332567 -81.8253720-157.2048883  41.5451270
 -81.0553154-158.3366046  42.1259884 -79.8455496-158.4353149  42.0716919
 -81.9106511-159.2082300  42.7130956 -81.3283823-160.3668697  43.3206655
 -82.0640861-160.7516695  44.0361269 -80.4373005-160.0901925  43.8956776
 -81.0143067-161.4335841  42.2756044 -80.5553063-162.2968456  42.7686798
 -80.2913870-161.0464388  41.5484719 -82.2576520-161.8818957  41.5208904
 -81.9994763-162.6634037  40.7986608 -82.7113388-161.0519165  40.9692312
