%VERSION  VERSION_STAMP = V0001.000  DATE = 12/15/25  08:30:40                  
%FLAG TITLE                                                                     
%FORMAT(20a4)                                                                   
PET                                                                             
%FLAG POINTERS                                                                  
%FORMAT(10I8)                                                                   
     700       7     300     424     696     548    1238     921       0       0
    3606      25     424     548     921       9      14      19       8       0
       0       0       0       0       0       0       0       0      28       0
       0
%FLAG ATOM_NAME                                                                 
%FORMAT(20a4)                                                                   
C9  H6  H7  O2  C8  O1  C4  C5  C6  H4  H3  C3  H2  C2  H1  C1  C7  O3  O4  C10 
H8  H9  C11 H10 H11 C12 H13 H14 C9  H6  H7  O2  C8  O1  C4  C5  C6  H4  H3  C3  
H2  C2  H1  C1  C7  O3  O4  C10 H8  H9  C11 H10 H11 C12 H13 H14 C9  H6  H7  O2  
C8  O1  C4  C5  C6  H4  H3  C3  H2  C2  H1  C1  C7  O3  O4  C10 H8  H9  C11 H10 
H11 C12 H13 H14 C9  H6  H7  O2  C8  O1  C4  C5  C6  H4  H3  C3  H2  C2  H1  C1  
C7  O3  O4  C10 H8  H9  C11 H10 H11 C12 H13 H14 C9  H6  H7  O2  C8  O1  C4  C5  
C6  H4  H3  C3  H2  C2  H1  C1  C7  O3  O4  C10 H8  H9  C11 H10 H11 C12 H13 H14 
C9  H6  H7  O2  C8  O1  C4  C5  C6  H4  H3  C3  H2  C2  H1  C1  C7  O3  O4  C10 
H8  H9  C11 H10 H11 C12 H13 H14 C9  H6  H7  O2  C8  O1  C4  C5  C6  H4  H3  C3  
H2  C2  H1  C1  C7  O3  O4  C10 H8  H9  C11 H10 H11 C12 H13 H14 C9  H6  H7  O2  
C8  O1  C4  C5  C6  H4  H3  C3  H2  C2  H1  C1  C7  O3  O4  C10 H8  H9  C11 H10 
H11 C12 H13 H14 C9  H6  H7  O2  C8  O1  C4  C5  C6  H4  H3  C3  H2  C2  H1  C1  
C7  O3  O4  C10 H8  H9  C11 H10 H11 C12 H13 H14 C9  H6  H7  O2  C8  O1  C4  C5  
C6  H4  H3  C3  H2  C2  H1  C1  C7  O3  O4  C10 H8  H9  C11 H10 H11 C12 H13 H14 
C9  H6  H7  O2  C8  O1  C4  C5  C6  H4  H3  C3  H2  C2  H1  C1  C7  O3  O4  C10 
H8  H9  C11 H10 H11 C12 H13 H14 C9  H6  H7  O2  C8  O1  C4  C5  C6  H4  H3  C3  
H2  C2  H1  C1  C7  O3  O4  C10 H8  H9  C11 H10 H11 C12 H13 H14 C9  H6  H7  O2  
C8  O1  C4  C5  C6  H4  H3  C3  H2  C2  H1  C1  C7  O3  O4  C10 H8  H9  C11 H10 
H11 C12 H13 H14 C9  H6  H7  O2  C8  O1  C4  C5  C6  H4  H3  C3  H2  C2  H1  C1  
C7  O3  O4  C10 H8  H9  C11 H10 H11 C12 H13 H14 C9  H6  H7  O2  C8  O1  C4  C5  
C6  H4  H3  C3  H2  C2  H1  C1  C7  O3  O4  C10 H8  H9  C11 H10 H11 C12 H13 H14 
C9  H6  H7  O2  C8  O1  C4  C5  C6  H4  H3  C3  H2  C2  H1  C1  C7  O3  O4  C10 
H8  H9  C11 H10 H11 C12 H13 H14 C9  H6  H7  O2  C8  O1  C4  C5  C6  H4  H3  C3  
H2  C2  H1  C1  C7  O3  O4  C10 H8  H9  C11 H10 H11 C12 H13 H14 C9  H6  H7  O2  
C8  O1  C4  C5  C6  H4  H3  C3  H2  C2  H1  C1  C7  O3  O4  C10 H8  H9  C11 H10 
H11 C12 H13 H14 C9  H6  H7  O2  C8  O1  C4  C5  C6  H4  H3  C3  H2  C2  H1  C1  
C7  O3  O4  C10 H8  H9  C11 H10 H11 C12 H13 H14 C9  H6  H7  O2  C8  O1  C4  C5  
C6  H4  H3  C3  H2  C2  H1  C1  C7  O3  O4  C10 H8  H9  C11 H10 H11 C12 H13 H14 
C9  H6  H7  O2  C8  O1  C4  C5  C6  H4  H3  C3  H2  C2  H1  C1  C7  O3  O4  C10 
H8  H9  C11 H10 H11 C12 H13 H14 C9  H6  H7  O2  C8  O1  C4  C5  C6  H4  H3  C3  
H2  C2  H1  C1  C7  O3  O4  C10 H8  H9  C11 H10 H11 C12 H13 H14 C9  H6  H7  O2  
C8  O1  C4  C5  C6  H4  H3  C3  H2  C2  H1  C1  C7  O3  O4  C10 H8  H9  C11 H10 
H11 C12 H13 H14 C9  H6  H7  O2  C8  O1  C4  C5  C6  H4  H3  C3  H2  C2  H1  C1  
C7  O3  O4  C10 H8  H9  C11 H10 H11 C12 H13 H14 C9  H6  H7  O2  C8  O1  C4  C5  
C6  H4  H3  C3  H2  C2  H1  C1  C7  O3  O4  C10 H8  H9  C11 H10 H11 C12 H13 H14 
%FLAG CHARGE                                                                    
%FORMAT(5E16.8)                                                                 
  2.36601988E+00  9.82601083E-01  9.82601083E-01 -7.84568415E+00  1.18708809E+01
 -9.58538536E+00 -1.83824740E+00 -1.62145670E+00 -1.62145670E+00  3.02932982E+00
  3.02005467E+00 -1.62145670E+00  3.02005467E+00 -1.62145670E+00  3.02932982E+00
 -1.83824740E+00  1.19079268E+01 -9.63914114E+00 -7.84568415E+00  2.60132444E+00
  1.20802916E+00  1.20802916E+00 -1.97799422E+00  1.06906590E+00  1.06906590E+00
 -1.66803290E+00  6.79983347E-01  6.79983347E-01  2.36601988E+00  9.82601083E-01
  9.82601083E-01 -7.84568415E+00  1.18708809E+01 -9.58538536E+00 -1.83824740E+00
 -1.62145670E+00 -1.62145670E+00  3.02932982E+00  3.02005467E+00 -1.62145670E+00
  3.02005467E+00 -1.62145670E+00  3.02932982E+00 -1.83824740E+00  1.19079268E+01
 -9.63914114E+00 -7.84568415E+00  2.60132444E+00  1.20802916E+00  1.20802916E+00
 -1.97799422E+00  1.06906590E+00  1.06906590E+00 -1.66803290E+00  6.79983347E-01
  6.79983347E-01  2.36601988E+00  9.82601083E-01  9.82601083E-01 -7.84568415E+00
  1.18708809E+01 -9.58538536E+00 -1.83824740E+00 -1.62145670E+00 -1.62145670E+00
  3.02932982E+00  3.02005467E+00 -1.62145670E+00  3.02005467E+00 -1.62145670E+00
  3.02932982E+00 -1.83824740E+00  1.19079268E+01 -9.63914114E+00 -7.84568415E+00
  2.60132444E+00  1.20802916E+00  1.20802916E+00 -1.97799422E+00  1.06906590E+00
  1.06906590E+00 -1.66803290E+00  6.79983347E-01  6.79983347E-01  2.36601988E+00
  9.82601083E-01  9.82601083E-01 -7.84568415E+00  1.18708809E+01 -9.58538536E+00
 -1.83824740E+00 -1.62145670E+00 -1.62145670E+00  3.02932982E+00  3.02005467E+00
 -1.62145670E+00  3.02005467E+00 -1.62145670E+00  3.02932982E+00 -1.83824740E+00
  1.19079268E+01 -9.63914114E+00 -7.84568415E+00  2.60132444E+00  1.20802916E+00
  1.20802916E+00 -1.97799422E+00  1.06906590E+00  1.06906590E+00 -1.66803290E+00
  6.79983347E-01  6.79983347E-01  2.36601988E+00  9.82601083E-01  9.82601083E-01
 -7.84568415E+00  1.18708809E+01 -9.58538536E+00 -1.83824740E+00 -1.62145670E+00
 -1.62145670E+00  3.02932982E+00  3.02005467E+00 -1.62145670E+00  3.02005467E+00
 -1.62145670E+00  3.02932982E+00 -1.83824740E+00  1.19079268E+01 -9.63914114E+00
 -7.84568415E+00  2.60132444E+00  1.20802916E+00  1.20802916E+00 -1.97799422E+00
  1.06906590E+00  1.06906590E+00 -1.66803290E+00  6.79983347E-01  6.79983347E-01
  2.36601988E+00  9.82601083E-01  9.82601083E-01 -7.84568415E+00  1.18708809E+01
 -9.58538536E+00 -1.83824740E+00 -1.62145670E+00 -1.62145670E+00  3.02932982E+00
  3.02005467E+00 -1.62145670E+00  3.02005467E+00 -1.62145670E+00  3.02932982E+00
 -1.83824740E+00  1.19079268E+01 -9.63914114E+00 -7.84568415E+00  2.60132444E+00
  1.20802916E+00  1.20802916E+00 -1.97799422E+00  1.06906590E+00  1.06906590E+00
 -1.66803290E+00  6.79983347E-01  6.79983347E-01  2.36601988E+00  9.82601083E-01
  9.82601083E-01 -7.84568415E+00  1.18708809E+01 -9.58538536E+00 -1.83824740E+00
 -1.62145670E+00 -1.62145670E+00  3.02932982E+00  3.02005467E+00 -1.62145670E+00
  3.02005467E+00 -1.62145670E+00  3.02932982E+00 -1.83824740E+00  1.19079268E+01
 -9.63914114E+00 -7.84568415E+00  2.60132444E+00  1.20802916E+00  1.20802916E+00
 -1.97799422E+00  1.06906590E+00  1.06906590E+00 -1.66803290E+00  6.79983347E-01
  6.79983347E-01  2.36601988E+00  9.82601083E-01  9.82601083E-01 -7.84568415E+00
  1.18708809E+01 -9.58538536E+00 -1.83824740E+00 -1.62145670E+00 -1.62145670E+00
  3.02932982E+00  3.02005467E+00 -1.62145670E+00  3.02005467E+00 -1.62145670E+00
  3.02932982E+00 -1.83824740E+00  1.19079268E+01 -9.63914114E+00 -7.84568415E+00
  2.60132444E+00  1.20802916E+00  1.20802916E+00 -1.97799422E+00  1.06906590E+00
  1.06906590E+00 -1.66803290E+00  6.79983347E-01  6.79983347E-01  2.36601988E+00
  9.82601083E-01  9.82601083E-01 -7.84568415E+00  1.18708809E+01 -9.58538536E+00
 -1.83824740E+00 -1.62145670E+00 -1.62145670E+00  3.02932982E+00  3.02005467E+00
 -1.62145670E+00  3.02005467E+00 -1.62145670E+00  3.02932982E+00 -1.83824740E+00
  1.19079268E+01 -9.63914114E+00 -7.84568415E+00  2.60132444E+00  1.20802916E+00
  1.20802916E+00 -1.97799422E+00  1.06906590E+00  1.06906590E+00 -1.66803290E+00
  6.79983347E-01  6.79983347E-01  2.36601988E+00  9.82601083E-01  9.82601083E-01
 -7.84568415E+00  1.18708809E+01 -9.58538536E+00 -1.83824740E+00 -1.62145670E+00
 -1.62145670E+00  3.02932982E+00  3.02005467E+00 -1.62145670E+00  3.02005467E+00
 -1.62145670E+00  3.02932982E+00 -1.83824740E+00  1.19079268E+01 -9.63914114E+00
 -7.84568415E+00  2.60132444E+00  1.20802916E+00  1.20802916E+00 -1.97799422E+00
  1.06906590E+00  1.06906590E+00 -1.66803290E+00  6.79983347E-01  6.79983347E-01
  2.36601988E+00  9.82601083E-01  9.82601083E-01 -7.84568415E+00  1.18708809E+01
 -9.58538536E+00 -1.83824740E+00 -1.62145670E+00 -1.62145670E+00  3.02932982E+00
  3.02005467E+00 -1.62145670E+00  3.02005467E+00 -1.62145670E+00  3.02932982E+00
 -1.83824740E+00  1.19079268E+01 -9.63914114E+00 -7.84568415E+00  2.60132444E+00
  1.20802916E+00  1.20802916E+00 -1.97799422E+00  1.06906590E+00  1.06906590E+00
 -1.66803290E+00  6.79983347E-01  6.79983347E-01  2.36601988E+00  9.82601083E-01
  9.82601083E-01 -7.84568415E+00  1.18708809E+01 -9.58538536E+00 -1.83824740E+00
 -1.62145670E+00 -1.62145670E+00  3.02932982E+00  3.02005467E+00 -1.62145670E+00
  3.02005467E+00 -1.62145670E+00  3.02932982E+00 -1.83824740E+00  1.19079268E+01
 -9.63914114E+00 -7.84568415E+00  2.60132444E+00  1.20802916E+00  1.20802916E+00
 -1.97799422E+00  1.06906590E+00  1.06906590E+00 -1.66803290E+00  6.79983347E-01
  6.79983347E-01  2.36601988E+00  9.82601083E-01  9.82601083E-01 -7.84568415E+00
  1.18708809E+01 -9.58538536E+00 -1.83824740E+00 -1.62145670E+00 -1.62145670E+00
  3.02932982E+00  3.02005467E+00 -1.62145670E+00  3.02005467E+00 -1.62145670E+00
  3.02932982E+00 -1.83824740E+00  1.19079268E+01 -9.63914114E+00 -7.84568415E+00
  2.60132444E+00  1.20802916E+00  1.20802916E+00 -1.97799422E+00  1.06906590E+00
  1.06906590E+00 -1.66803290E+00  6.79983347E-01  6.79983347E-01  2.36601988E+00
  9.82601083E-01  9.82601083E-01 -7.84568415E+00  1.18708809E+01 -9.58538536E+00
 -1.83824740E+00 -1.62145670E+00 -1.62145670E+00  3.02932982E+00  3.02005467E+00
 -1.62145670E+00  3.02005467E+00 -1.62145670E+00  3.02932982E+00 -1.83824740E+00
  1.19079268E+01 -9.63914114E+00 -7.84568415E+00  2.60132444E+00  1.20802916E+00
  1.20802916E+00 -1.97799422E+00  1.06906590E+00  1.06906590E+00 -1.66803290E+00
  6.79983347E-01  6.79983347E-01  2.36601988E+00  9.82601083E-01  9.82601083E-01
 -7.84568415E+00  1.18708809E+01 -9.58538536E+00 -1.83824740E+00 -1.62145670E+00
 -1.62145670E+00  3.02932982E+00  3.02005467E+00 -1.62145670E+00  3.02005467E+00
 -1.62145670E+00  3.02932982E+00 -1.83824740E+00  1.19079268E+01 -9.63914114E+00
 -7.84568415E+00  2.60132444E+00  1.20802916E+00  1.20802916E+00 -1.97799422E+00
  1.06906590E+00  1.06906590E+00 -1.66803290E+00  6.79983347E-01  6.79983347E-01
  2.36601988E+00  9.82601083E-01  9.82601083E-01 -7.84568415E+00  1.18708809E+01
 -9.58538536E+00 -1.83824740E+00 -1.62145670E+00 -1.62145670E+00  3.02932982E+00
  3.02005467E+00 -1.62145670E+00  3.02005467E+00 -1.62145670E+00  3.02932982E+00
 -1.83824740E+00  1.19079268E+01 -9.63914114E+00 -7.84568415E+00  2.60132444E+00
  1.20802916E+00  1.20802916E+00 -1.97799422E+00  1.06906590E+00  1.06906590E+00
 -1.66803290E+00  6.79983347E-01  6.79983347E-01  2.36601988E+00  9.82601083E-01
  9.82601083E-01 -7.84568415E+00  1.18708809E+01 -9.58538536E+00 -1.83824740E+00
 -1.62145670E+00 -1.62145670E+00  3.02932982E+00  3.02005467E+00 -1.62145670E+00
  3.02005467E+00 -1.62145670E+00  3.02932982E+00 -1.83824740E+00  1.19079268E+01
 -9.63914114E+00 -7.84568415E+00  2.60132444E+00  1.20802916E+00  1.20802916E+00
 -1.97799422E+00  1.06906590E+00  1.06906590E+00 -1.66803290E+00  6.79983347E-01
  6.79983347E-01  2.36601988E+00  9.82601083E-01  9.82601083E-01 -7.84568415E+00
  1.18708809E+01 -9.58538536E+00 -1.83824740E+00 -1.62145670E+00 -1.62145670E+00
  3.02932982E+00  3.02005467E+00 -1.62145670E+00  3.02005467E+00 -1.62145670E+00
  3.02932982E+00 -1.83824740E+00  1.19079268E+01 -9.63914114E+00 -7.84568415E+00
  2.60132444E+00  1.20802916E+00  1.20802916E+00 -1.97799422E+00  1.06906590E+00
  1.06906590E+00 -1.66803290E+00  6.79983347E-01  6.79983347E-01  2.36601988E+00
  9.82601083E-01  9.82601083E-01 -7.84568415E+00  1.18708809E+01 -9.58538536E+00
 -1.83824740E+00 -1.62145670E+00 -1.62145670E+00  3.02932982E+00  3.02005467E+00
 -1.62145670E+00  3.02005467E+00 -1.62145670E+00  3.02932982E+00 -1.83824740E+00
  1.19079268E+01 -9.63914114E+00 -7.84568415E+00  2.60132444E+00  1.20802916E+00
  1.20802916E+00 -1.97799422E+00  1.06906590E+00  1.06906590E+00 -1.66803290E+00
  6.79983347E-01  6.79983347E-01  2.36601988E+00  9.82601083E-01  9.82601083E-01
 -7.84568415E+00  1.18708809E+01 -9.58538536E+00 -1.83824740E+00 -1.62145670E+00
 -1.62145670E+00  3.02932982E+00  3.02005467E+00 -1.62145670E+00  3.02005467E+00
 -1.62145670E+00  3.02932982E+00 -1.83824740E+00  1.19079268E+01 -9.63914114E+00
 -7.84568415E+00  2.60132444E+00  1.20802916E+00  1.20802916E+00 -1.97799422E+00
  1.06906590E+00  1.06906590E+00 -1.66803290E+00  6.79983347E-01  6.79983347E-01
  2.36601988E+00  9.82601083E-01  9.82601083E-01 -7.84568415E+00  1.18708809E+01
 -9.58538536E+00 -1.83824740E+00 -1.62145670E+00 -1.62145670E+00  3.02932982E+00
  3.02005467E+00 -1.62145670E+00  3.02005467E+00 -1.62145670E+00  3.02932982E+00
 -1.83824740E+00  1.19079268E+01 -9.63914114E+00 -7.84568415E+00  2.60132444E+00
  1.20802916E+00  1.20802916E+00 -1.97799422E+00  1.06906590E+00  1.06906590E+00
 -1.66803290E+00  6.79983347E-01  6.79983347E-01  2.36601988E+00  9.82601083E-01
  9.82601083E-01 -7.84568415E+00  1.18708809E+01 -9.58538536E+00 -1.83824740E+00
 -1.62145670E+00 -1.62145670E+00  3.02932982E+00  3.02005467E+00 -1.62145670E+00
  3.02005467E+00 -1.62145670E+00  3.02932982E+00 -1.83824740E+00  1.19079268E+01
 -9.63914114E+00 -7.84568415E+00  2.60132444E+00  1.20802916E+00  1.20802916E+00
 -1.97799422E+00  1.06906590E+00  1.06906590E+00 -1.66803290E+00  6.79983347E-01
  6.79983347E-01  2.36601988E+00  9.82601083E-01  9.82601083E-01 -7.84568415E+00
  1.18708809E+01 -9.58538536E+00 -1.83824740E+00 -1.62145670E+00 -1.62145670E+00
  3.02932982E+00  3.02005467E+00 -1.62145670E+00  3.02005467E+00 -1.62145670E+00
  3.02932982E+00 -1.83824740E+00  1.19079268E+01 -9.63914114E+00 -7.84568415E+00
  2.60132444E+00  1.20802916E+00  1.20802916E+00 -1.97799422E+00  1.06906590E+00
  1.06906590E+00 -1.66803290E+00  6.79983347E-01  6.79983347E-01  2.36601988E+00
  9.82601083E-01  9.82601083E-01 -7.84568415E+00  1.18708809E+01 -9.58538536E+00
 -1.83824740E+00 -1.62145670E+00 -1.62145670E+00  3.02932982E+00  3.02005467E+00
 -1.62145670E+00  3.02005467E+00 -1.62145670E+00  3.02932982E+00 -1.83824740E+00
  1.19079268E+01 -9.63914114E+00 -7.84568415E+00  2.60132444E+00  1.20802916E+00
  1.20802916E+00 -1.97799422E+00  1.06906590E+00  1.06906590E+00 -1.66803290E+00
  6.79983347E-01  6.79983347E-01  2.36601988E+00  9.82601083E-01  9.82601083E-01
 -7.84568415E+00  1.18708809E+01 -9.58538536E+00 -1.83824740E+00 -1.62145670E+00
 -1.62145670E+00  3.02932982E+00  3.02005467E+00 -1.62145670E+00  3.02005467E+00
 -1.62145670E+00  3.02932982E+00 -1.83824740E+00  1.19079268E+01 -9.63914114E+00
 -7.84568415E+00  2.60132444E+00  1.20802916E+00  1.20802916E+00 -1.97799422E+00
  1.06906590E+00  1.06906590E+00 -1.66803290E+00  6.79983347E-01  6.79983347E-01
%FLAG ATOMIC_NUMBER                                                             
%FORMAT(10I8)                                                                   
       6       1       1       8       6       8       6       6       6       1
       1       6       1       6       1       6       6       8       8       6
       1       1       6       1       1       6       1       1       6       1
       1       8       6       8       6       6       6       1       1       6
       1       6       1       6       6       8       8       6       1       1
       6       1       1       6       1       1       6       1       1       8
       6       8       6       6       6       1       1       6       1       6
       1       6       6       8       8       6       1       1       6       1
       1       6       1       1       6       1       1       8       6       8
       6       6       6       1       1       6       1       6       1       6
       6       8       8       6       1       1       6       1       1       6
       1       1       6       1       1       8       6       8       6       6
       6       1       1       6       1       6       1       6       6       8
       8       6       1       1       6       1       1       6       1       1
       6       1       1       8       6       8       6       6       6       1
       1       6       1       6       1       6       6       8       8       6
       1       1       6       1       1       6       1       1       6       1
       1       8       6       8       6       6       6       1       1       6
       1       6       1       6       6       8       8       6       1       1
       6       1       1       6       1       1       6       1       1       8
       6       8       6       6       6       1       1       6       1       6
       1       6       6       8       8       6       1       1       6       1
       1       6       1       1       6       1       1       8       6       8
       6       6       6       1       1       6       1       6       1       6
       6       8       8       6       1       1       6       1       1       6
       1       1       6       1       1       8       6       8       6       6
       6       1       1       6       1       6       1       6       6       8
       8       6       1       1       6       1       1       6       1       1
       6       1       1       8       6       8       6       6       6       1
       1       6       1       6       1       6       6       8       8       6
       1       1       6       1       1       6       1       1       6       1
       1       8       6       8       6       6       6       1       1       6
       1       6       1       6       6       8       8       6       1       1
       6       1       1       6       1       1       6       1       1       8
       6       8       6       6       6       1       1       6       1       6
       1       6       6       8       8       6       1       1       6       1
       1       6       1       1       6       1       1       8       6       8
       6       6       6       1       1       6       1       6       1       6
       6       8       8       6       1       1       6       1       1       6
       1       1       6       1       1       8       6       8       6       6
       6       1       1       6       1       6       1       6       6       8
       8       6       1       1       6       1       1       6       1       1
       6       1       1       8       6       8       6       6       6       1
       1       6       1       6       1       6       6       8       8       6
       1       1       6       1       1       6       1       1       6       1
       1       8       6       8       6       6       6       1       1       6
       1       6       1       6       6       8       8       6       1       1
       6       1       1       6       1       1       6       1       1       8
       6       8       6       6       6       1       1       6       1       6
       1       6       6       8       8       6       1       1       6       1
       1       6       1       1       6       1       1       8       6       8
       6       6       6       1       1       6       1       6       1       6
       6       8       8       6       1       1       6       1       1       6
       1       1       6       1       1       8       6       8       6       6
       6       1       1       6       1       6       1       6       6       8
       8       6       1       1       6       1       1       6       1       1
       6       1       1       8       6       8       6       6       6       1
       1       6       1       6       1       6       6       8       8       6
       1       1       6       1       1       6       1       1       6       1
       1       8       6       8       6       6       6       1       1       6
       1       6       1       6       6       8       8       6       1       1
       6       1       1       6       1       1       6       1       1       8
       6       8       6       6       6       1       1       6       1       6
       1       6       6       8       8       6       1       1       6       1
       1       6       1       1       6       1       1       8       6       8
       6       6       6       1       1       6       1       6       1       6
       6       8       8       6       1       1       6       1       1       6
       1       1       6       1       1       8       6       8       6       6
       6       1       1       6       1       6       1       6       6       8
       8       6       1       1       6       1       1       6       1       1
%FLAG MASS                                                                      
%FORMAT(5E16.8)                                                                 
  1.20100000E+01  1.00800000E+00  1.00800000E+00  1.60000000E+01  1.20100000E+01
  1.60000000E+01  1.20100000E+01  1.20100000E+01  1.20100000E+01  1.00800000E+00
  1.00800000E+00  1.20100000E+01  1.00800000E+00  1.20100000E+01  1.00800000E+00
  1.20100000E+01  1.20100000E+01  1.60000000E+01  1.60000000E+01  1.20100000E+01
  1.00800000E+00  1.00800000E+00  1.20100000E+01  1.00800000E+00  1.00800000E+00
  1.20100000E+01  1.00800000E+00  1.00800000E+00  1.20100000E+01  1.00800000E+00
  1.00800000E+00  1.60000000E+01  1.20100000E+01  1.60000000E+01  1.20100000E+01
  1.20100000E+01  1.20100000E+01  1.00800000E+00  1.00800000E+00  1.20100000E+01
  1.00800000E+00  1.20100000E+01  1.00800000E+00  1.20100000E+01  1.20100000E+01
  1.60000000E+01  1.60000000E+01  1.20100000E+01  1.00800000E+00  1.00800000E+00
  1.20100000E+01  1.00800000E+00  1.00800000E+00  1.20100000E+01  1.00800000E+00
  1.00800000E+00  1.20100000E+01  1.00800000E+00  1.00800000E+00  1.60000000E+01
  1.20100000E+01  1.60000000E+01  1.20100000E+01  1.20100000E+01  1.20100000E+01
  1.00800000E+00  1.00800000E+00  1.20100000E+01  1.00800000E+00  1.20100000E+01
  1.00800000E+00  1.20100000E+01  1.20100000E+01  1.60000000E+01  1.60000000E+01
  1.20100000E+01  1.00800000E+00  1.00800000E+00  1.20100000E+01  1.00800000E+00
  1.00800000E+00  1.20100000E+01  1.00800000E+00  1.00800000E+00  1.20100000E+01
  1.00800000E+00  1.00800000E+00  1.60000000E+01  1.20100000E+01  1.60000000E+01
  1.20100000E+01  1.20100000E+01  1.20100000E+01  1.00800000E+00  1.00800000E+00
  1.20100000E+01  1.00800000E+00  1.20100000E+01  1.00800000E+00  1.20100000E+01
  1.20100000E+01  1.60000000E+01  1.60000000E+01  1.20100000E+01  1.00800000E+00
  1.00800000E+00  1.20100000E+01  1.00800000E+00  1.00800000E+00  1.20100000E+01
  1.00800000E+00  1.00800000E+00  1.20100000E+01  1.00800000E+00  1.00800000E+00
  1.60000000E+01  1.20100000E+01  1.60000000E+01  1.20100000E+01  1.20100000E+01
  1.20100000E+01  1.00800000E+00  1.00800000E+00  1.20100000E+01  1.00800000E+00
  1.20100000E+01  1.00800000E+00  1.20100000E+01  1.20100000E+01  1.60000000E+01
  1.60000000E+01  1.20100000E+01  1.00800000E+00  1.00800000E+00  1.20100000E+01
  1.00800000E+00  1.00800000E+00  1.20100000E+01  1.00800000E+00  1.00800000E+00
  1.20100000E+01  1.00800000E+00  1.00800000E+00  1.60000000E+01  1.20100000E+01
  1.60000000E+01  1.20100000E+01  1.20100000E+01  1.20100000E+01  1.00800000E+00
  1.00800000E+00  1.20100000E+01  1.00800000E+00  1.20100000E+01  1.00800000E+00
  1.20100000E+01  1.20100000E+01  1.60000000E+01  1.60000000E+01  1.20100000E+01
  1.00800000E+00  1.00800000E+00  1.20100000E+01  1.00800000E+00  1.00800000E+00
  1.20100000E+01  1.00800000E+00  1.00800000E+00  1.20100000E+01  1.00800000E+00
  1.00800000E+00  1.60000000E+01  1.20100000E+01  1.60000000E+01  1.20100000E+01
  1.20100000E+01  1.20100000E+01  1.00800000E+00  1.00800000E+00  1.20100000E+01
  1.00800000E+00  1.20100000E+01  1.00800000E+00  1.20100000E+01  1.20100000E+01
  1.60000000E+01  1.60000000E+01  1.20100000E+01  1.00800000E+00  1.00800000E+00
  1.20100000E+01  1.00800000E+00  1.00800000E+00  1.20100000E+01  1.00800000E+00
  1.00800000E+00  1.20100000E+01  1.00800000E+00  1.00800000E+00  1.60000000E+01
  1.20100000E+01  1.60000000E+01  1.20100000E+01  1.20100000E+01  1.20100000E+01
  1.00800000E+00  1.00800000E+00  1.20100000E+01  1.00800000E+00  1.20100000E+01
  1.00800000E+00  1.20100000E+01  1.20100000E+01  1.60000000E+01  1.60000000E+01
  1.20100000E+01  1.00800000E+00  1.00800000E+00  1.20100000E+01  1.00800000E+00
  1.00800000E+00  1.20100000E+01  1.00800000E+00  1.00800000E+00  1.20100000E+01
  1.00800000E+00  1.00800000E+00  1.60000000E+01  1.20100000E+01  1.60000000E+01
  1.20100000E+01  1.20100000E+01  1.20100000E+01  1.00800000E+00  1.00800000E+00
  1.20100000E+01  1.00800000E+00  1.20100000E+01  1.00800000E+00  1.20100000E+01
  1.20100000E+01  1.60000000E+01  1.60000000E+01  1.20100000E+01  1.00800000E+00
  1.00800000E+00  1.20100000E+01  1.00800000E+00  1.00800000E+00  1.20100000E+01
  1.00800000E+00  1.00800000E+00  1.20100000E+01  1.00800000E+00  1.00800000E+00
  1.60000000E+01  1.20100000E+01  1.60000000E+01  1.20100000E+01  1.20100000E+01
  1.20100000E+01  1.00800000E+00  1.00800000E+00  1.20100000E+01  1.00800000E+00
  1.20100000E+01  1.00800000E+00  1.20100000E+01  1.20100000E+01  1.60000000E+01
  1.60000000E+01  1.20100000E+01  1.00800000E+00  1.00800000E+00  1.20100000E+01
  1.00800000E+00  1.00800000E+00  1.20100000E+01  1.00800000E+00  1.00800000E+00
  1.20100000E+01  1.00800000E+00  1.00800000E+00  1.60000000E+01  1.20100000E+01
  1.60000000E+01  1.20100000E+01  1.20100000E+01  1.20100000E+01  1.00800000E+00
  1.00800000E+00  1.20100000E+01  1.00800000E+00  1.20100000E+01  1.00800000E+00
  1.20100000E+01  1.20100000E+01  1.60000000E+01  1.60000000E+01  1.20100000E+01
  1.00800000E+00  1.00800000E+00  1.20100000E+01  1.00800000E+00  1.00800000E+00
  1.20100000E+01  1.00800000E+00  1.00800000E+00  1.20100000E+01  1.00800000E+00
  1.00800000E+00  1.60000000E+01  1.20100000E+01  1.60000000E+01  1.20100000E+01
  1.20100000E+01  1.20100000E+01  1.00800000E+00  1.00800000E+00  1.20100000E+01
  1.00800000E+00  1.20100000E+01  1.00800000E+00  1.20100000E+01  1.20100000E+01
  1.60000000E+01  1.60000000E+01  1.20100000E+01  1.00800000E+00  1.00800000E+00
  1.20100000E+01  1.00800000E+00  1.00800000E+00  1.20100000E+01  1.00800000E+00
  1.00800000E+00  1.20100000E+01  1.00800000E+00  1.00800000E+00  1.60000000E+01
  1.20100000E+01  1.60000000E+01  1.20100000E+01  1.20100000E+01  1.20100000E+01
  1.00800000E+00  1.00800000E+00  1.20100000E+01  1.00800000E+00  1.20100000E+01
  1.00800000E+00  1.20100000E+01  1.20100000E+01  1.60000000E+01  1.60000000E+01
  1.20100000E+01  1.00800000E+00  1.00800000E+00  1.20100000E+01  1.00800000E+00
  1.00800000E+00  1.20100000E+01  1.00800000E+00  1.00800000E+00  1.20100000E+01
  1.00800000E+00  1.00800000E+00  1.60000000E+01  1.20100000E+01  1.60000000E+01
  1.20100000E+01  1.20100000E+01  1.20100000E+01  1.00800000E+00  1.00800000E+00
  1.20100000E+01  1.00800000E+00  1.20100000E+01  1.00800000E+00  1.20100000E+01
  1.20100000E+01  1.60000000E+01  1.60000000E+01  1.20100000E+01  1.00800000E+00
  1.00800000E+00  1.20100000E+01  1.00800000E+00  1.00800000E+00  1.20100000E+01
  1.00800000E+00  1.00800000E+00  1.20100000E+01  1.00800000E+00  1.00800000E+00
  1.60000000E+01  1.20100000E+01  1.60000000E+01  1.20100000E+01  1.20100000E+01
  1.20100000E+01  1.00800000E+00  1.00800000E+00  1.20100000E+01  1.00800000E+00
  1.20100000E+01  1.00800000E+00  1.20100000E+01  1.20100000E+01  1.60000000E+01
  1.60000000E+01  1.20100000E+01  1.00800000E+00  1.00800000E+00  1.20100000E+01
  1.00800000E+00  1.00800000E+00  1.20100000E+01  1.00800000E+00  1.00800000E+00
  1.20100000E+01  1.00800000E+00  1.00800000E+00  1.60000000E+01  1.20100000E+01
  1.60000000E+01  1.20100000E+01  1.20100000E+01  1.20100000E+01  1.00800000E+00
  1.00800000E+00  1.20100000E+01  1.00800000E+00  1.20100000E+01  1.00800000E+00
  1.20100000E+01  1.20100000E+01  1.60000000E+01  1.60000000E+01  1.20100000E+01
  1.00800000E+00  1.00800000E+00  1.20100000E+01  1.00800000E+00  1.00800000E+00
  1.20100000E+01  1.00800000E+00  1.00800000E+00  1.20100000E+01  1.00800000E+00
  1.00800000E+00  1.60000000E+01  1.20100000E+01  1.60000000E+01  1.20100000E+01
  1.20100000E+01  1.20100000E+01  1.00800000E+00  1.00800000E+00  1.20100000E+01
  1.00800000E+00  1.20100000E+01  1.00800000E+00  1.20100000E+01  1.20100000E+01
  1.60000000E+01  1.60000000E+01  1.20100000E+01  1.00800000E+00  1.00800000E+00
  1.20100000E+01  1.00800000E+00  1.00800000E+00  1.20100000E+01  1.00800000E+00
  1.00800000E+00  1.20100000E+01  1.00800000E+00  1.00800000E+00  1.60000000E+01
  1.20100000E+01  1.60000000E+01  1.20100000E+01  1.20100000E+01  1.20100000E+01
  1.00800000E+00  1.00800000E+00  1.20100000E+01  1.00800000E+00  1.20100000E+01
  1.00800000E+00  1.20100000E+01  1.20100000E+01  1.60000000E+01  1.60000000E+01
  1.20100000E+01  1.00800000E+00  1.00800000E+00  1.20100000E+01  1.00800000E+00
  1.00800000E+00  1.20100000E+01  1.00800000E+00  1.00800000E+00  1.20100000E+01
  1.00800000E+00  1.00800000E+00  1.60000000E+01  1.20100000E+01  1.60000000E+01
  1.20100000E+01  1.20100000E+01  1.20100000E+01  1.00800000E+00  1.00800000E+00
  1.20100000E+01  1.00800000E+00  1.20100000E+01  1.00800000E+00  1.20100000E+01
  1.20100000E+01  1.60000000E+01  1.60000000E+01  1.20100000E+01  1.00800000E+00
  1.00800000E+00  1.20100000E+01  1.00800000E+00  1.00800000E+00  1.20100000E+01
  1.00800000E+00  1.00800000E+00  1.20100000E+01  1.00800000E+00  1.00800000E+00
  1.60000000E+01  1.20100000E+01  1.60000000E+01  1.20100000E+01  1.20100000E+01
  1.20100000E+01  1.00800000E+00  1.00800000E+00  1.20100000E+01  1.00800000E+00
  1.20100000E+01  1.00800000E+00  1.20100000E+01  1.20100000E+01  1.60000000E+01
  1.60000000E+01  1.20100000E+01  1.00800000E+00  1.00800000E+00  1.20100000E+01
  1.00800000E+00  1.00800000E+00  1.20100000E+01  1.00800000E+00  1.00800000E+00
  1.20100000E+01  1.00800000E+00  1.00800000E+00  1.60000000E+01  1.20100000E+01
  1.60000000E+01  1.20100000E+01  1.20100000E+01  1.20100000E+01  1.00800000E+00
  1.00800000E+00  1.20100000E+01  1.00800000E+00  1.20100000E+01  1.00800000E+00
  1.20100000E+01  1.20100000E+01  1.60000000E+01  1.60000000E+01  1.20100000E+01
  1.00800000E+00  1.00800000E+00  1.20100000E+01  1.00800000E+00  1.00800000E+00
  1.20100000E+01  1.00800000E+00  1.00800000E+00  1.20100000E+01  1.00800000E+00
  1.00800000E+00  1.60000000E+01  1.20100000E+01  1.60000000E+01  1.20100000E+01
  1.20100000E+01  1.20100000E+01  1.00800000E+00  1.00800000E+00  1.20100000E+01
  1.00800000E+00  1.20100000E+01  1.00800000E+00  1.20100000E+01  1.20100000E+01
  1.60000000E+01  1.60000000E+01  1.20100000E+01  1.00800000E+00  1.00800000E+00
  1.20100000E+01  1.00800000E+00  1.00800000E+00  1.20100000E+01  1.00800000E+00
  1.00800000E+00  1.20100000E+01  1.00800000E+00  1.00800000E+00  1.60000000E+01
  1.20100000E+01  1.60000000E+01  1.20100000E+01  1.20100000E+01  1.20100000E+01
  1.00800000E+00  1.00800000E+00  1.20100000E+01  1.00800000E+00  1.20100000E+01
  1.00800000E+00  1.20100000E+01  1.20100000E+01  1.60000000E+01  1.60000000E+01
  1.20100000E+01  1.00800000E+00  1.00800000E+00  1.20100000E+01  1.00800000E+00
  1.00800000E+00  1.20100000E+01  1.00800000E+00  1.00800000E+00  1.20100000E+01
  1.00800000E+00  1.00800000E+00  1.60000000E+01  1.20100000E+01  1.60000000E+01
  1.20100000E+01  1.20100000E+01  1.20100000E+01  1.00800000E+00  1.00800000E+00
  1.20100000E+01  1.00800000E+00  1.20100000E+01  1.00800000E+00  1.20100000E+01
  1.20100000E+01  1.60000000E+01  1.60000000E+01  1.20100000E+01  1.00800000E+00
  1.00800000E+00  1.20100000E+01  1.00800000E+00  1.00800000E+00  1.20100000E+01
  1.00800000E+00  1.00800000E+00  1.20100000E+01  1.00800000E+00  1.00800000E+00
  1.60000000E+01  1.20100000E+01  1.60000000E+01  1.20100000E+01  1.20100000E+01
  1.20100000E+01  1.00800000E+00  1.00800000E+00  1.20100000E+01  1.00800000E+00
  1.20100000E+01  1.00800000E+00  1.20100000E+01  1.20100000E+01  1.60000000E+01
  1.60000000E+01  1.20100000E+01  1.00800000E+00  1.00800000E+00  1.20100000E+01
  1.00800000E+00  1.00800000E+00  1.20100000E+01  1.00800000E+00  1.00800000E+00
%FLAG ATOM_TYPE_INDEX                                                           
%FORMAT(10I8)                                                                   
       1       2       2       3       4       5       4       4       4       6
       6       4       6       4       6       4       4       5       3       1
       2       2       1       7       7       1       7       7       1       2
       2       3       4       5       4       4       4       6       6       4
       6       4       6       4       4       5       3       1       2       2
       1       7       7       1       7       7       1       2       2       3
       4       5       4       4       4       6       6       4       6       4
       6       4       4       5       3       1       2       2       1       7
       7       1       7       7       1       2       2       3       4       5
       4       4       4       6       6       4       6       4       6       4
       4       5       3       1       2       2       1       7       7       1
       7       7       1       2       2       3       4       5       4       4
       4       6       6       4       6       4       6       4       4       5
       3       1       2       2       1       7       7       1       7       7
       1       2       2       3       4       5       4       4       4       6
       6       4       6       4       6       4       4       5       3       1
       2       2       1       7       7       1       7       7       1       2
       2       3       4       5       4       4       4       6       6       4
       6       4       6       4       4       5       3       1       2       2
       1       7       7       1       7       7       1       2       2       3
       4       5       4       4       4       6       6       4       6       4
       6       4       4       5       3       1       2       2       1       7
       7       1       7       7       1       2       2       3       4       5
       4       4       4       6       6       4       6       4       6       4
       4       5       3       1       2       2       1       7       7       1
       7       7       1       2       2       3       4       5       4       4
       4       6       6       4       6       4       6       4       4       5
       3       1       2       2       1       7       7       1       7       7
       1       2       2       3       4       5       4       4       4       6
       6       4       6       4       6       4       4       5       3       1
       2       2       1       7       7       1       7       7       1       2
       2       3       4       5       4       4       4       6       6       4
       6       4       6       4       4       5       3       1       2       2
       1       7       7       1       7       7       1       2       2       3
       4       5       4       4       4       6       6       4       6       4
       6       4       4       5       3       1       2       2       1       7
       7       1       7       7       1       2       2       3       4       5
       4       4       4       6       6       4       6       4       6       4
       4       5       3       1       2       2       1       7       7       1
       7       7       1       2       2       3       4       5       4       4
       4       6       6       4       6       4       6       4       4       5
       3       1       2       2       1       7       7       1       7       7
       1       2       2       3       4       5       4       4       4       6
       6       4       6       4       6       4       4       5       3       1
       2       2       1       7       7       1       7       7       1       2
       2       3       4       5       4       4       4       6       6       4
       6       4       6       4       4       5       3       1       2       2
       1       7       7       1       7       7       1       2       2       3
       4       5       4       4       4       6       6       4       6       4
       6       4       4       5       3       1       2       2       1       7
       7       1       7       7       1       2       2       3       4       5
       4       4       4       6       6       4       6       4       6       4
       4       5       3       1       2       2       1       7       7       1
       7       7       1       2       2       3       4       5       4       4
       4       6       6       4       6       4       6       4       4       5
       3       1       2       2       1       7       7       1       7       7
       1       2       2       3       4       5       4       4       4       6
       6       4       6       4       6       4       4       5       3       1
       2       2       1       7       7       1       7       7       1       2
       2       3       4       5       4       4       4       6       6       4
       6       4       6       4       4       5       3       1       2       2
       1       7       7       1       7       7       1       2       2       3
       4       5       4       4       4       6       6       4       6       4
       6       4       4       5       3       1       2       2       1       7
       7       1       7       7       1       2       2       3       4       5
       4       4       4       6       6       4       6       4       6       4
       4       5       3       1       2       2       1       7       7       1
       7       7       1       2       2       3       4       5       4       4
       4       6       6       4       6       4       6       4       4       5
       3       1       2       2       1       7       7       1       7       7
%FLAG NUMBER_EXCLUDED_ATOMS                                                     
%FORMAT(10I8)                                                                   
       6       3       2       5       8       3       9       8       9       4
       2       5       3       5       2       4       6       2       7       9
       5       4       9       5       4       7       5       4       6       3
       2       5       8       3       9       8       9       4       2       5
       3       5       2       4       6       2       7       9       5       4
       9       5       4       7       5       4       6       3       2       5
       8       3       9       8       9       4       2       5       3       5
       2       4       6       2       7       9       5       4       9       5
       4       7       5       4       6       3       2       5       8       3
       9       8       9       4       2       5       3       5       2       4
       6       2       7       9       5       4       9       5       4       7
       5       4       6       3       2       5       8       3       9       8
       9       4       2       5       3       5       2       4       6       2
       7       9       5       4       9       5       4       7       5       4
       6       3       2       5       8       3       9       8       9       4
       2       5       3       5       2       4       6       2       7       9
       5       4       9       5       4       7       5       4       6       3
       2       5       8       3       9       8       9       4       2       5
       3       5       2       4       6       2       7       9       5       4
       9       5       4       7       5       4       6       3       2       5
       8       3       9       8       9       4       2       5       3       5
       2       4       6       2       7       9       5       4       9       5
       4       7       5       4       6       3       2       5       8       3
       9       8       9       4       2       5       3       5       2       4
       6       2       7       9       5       4       9       5       4       7
       5       4       6       3       2       5       8       3       9       8
       9       4       2       5       3       5       2       4       6       2
       7       9       5       4       9       5       4       7       5       4
       6       3       2       5       8       3       9       8       9       4
       2       5       3       5       2       4       6       2       7       9
       5       4       9       5       4       7       5       4       6       3
       2       5       8       3       9       8       9       4       2       5
       3       5       2       4       6       2       7       9       5       4
       9       5       4       7       5       4       6       3       2       5
       8       3       9       8       9       4       2       5       3       5
       2       4       6       2       7       9       5       4       9       5
       4       7       5       4       6       3       2       5       8       3
       9       8       9       4       2       5       3       5       2       4
       6       2       7       9       5       4       9       5       4       7
       5       4       6       3       2       5       8       3       9       8
       9       4       2       5       3       5       2       4       6       2
       7       9       5       4       9       5       4       7       5       4
       6       3       2       5       8       3       9       8       9       4
       2       5       3       5       2       4       6       2       7       9
       5       4       9       5       4       7       5       4       6       3
       2       5       8       3       9       8       9       4       2       5
       3       5       2       4       6       2       7       9       5       4
       9       5       4       7       5       4       6       3       2       5
       8       3       9       8       9       4       2       5       3       5
       2       4       6       2       7       9       5       4       9       5
       4       7       5       4       6       3       2       5       8       3
       9       8       9       4       2       5       3       5       2       4
       6       2       7       9       5       4       9       5       4       7
       5       4       6       3       2       5       8       3       9       8
       9       4       2       5       3       5       2       4       6       2
       7       9       5       4       9       5       4       7       5       4
       6       3       2       5       8       3       9       8       9       4
       2       5       3       5       2       4       6       2       7       9
       5       4       9       5       4       7       5       4       6       3
       2       5       8       3       9       8       9       4       2       5
       3       5       2       4       6       2       7       9       5       4
       9       5       4       7       5       4       6       3       2       5
       8       3       9       8       9       4       2       5       3       5
       2       4       6       2       7       9       5       4       9       5
       4       7       5       4       6       3       2       5       8       3
       9       8       9       4       2       5       3       5       2       4
       6       2       7       9       5       4       9       5       4       7
       5       4       6       3       2       5       8       3       9       8
       9       4       2       5       3       5       2       4       6       2
       7       8       5       4       5       4       3       2       1       1
%FLAG NONBONDED_PARM_INDEX                                                      
%FORMAT(10I8)                                                                   
       1       2       4       7      11      16      22       2       3       5
       8      12      17      23       4       5       6       9      13      18
      24       7       8       9      10      14      19      25      11      12
      13      14      15      20      26      16      17      18      19      20
      21      27      22      23      24      25      26      27      28
%FLAG RESIDUE_LABEL                                                             
%FORMAT(20a4)                                                                   
PET PET PET PET PET PET PET PET PET PET PET PET PET PET PET PET PET PET PET PET 
PET PET PET PET PET 
%FLAG RESIDUE_POINTER                                                           
%FORMAT(10I8)                                                                   
       1      29      57      85     113     141     169     197     225     253
     281     309     337     365     393     421     449     477     505     533
     561     589     617     645     673
%FLAG BOND_FORCE_CONSTANT                                                       
%FORMAT(5E16.8)                                                                 
  3.45250000E+02  2.28890000E+02  3.44220000E+02  2.82270000E+02  5.90600000E+02
  3.51310000E+02  2.62840000E+02  3.60690000E+02  3.54250000E+02
%FLAG BOND_EQUIL_VALUE                                                          
%FORMAT(5E16.8)                                                                 
  1.09620000E+00  1.53540000E+00  1.09690000E+00  1.42730000E+00  1.21900000E+00
  1.36210000E+00  1.49070000E+00  1.08600000E+00  1.39860000E+00
%FLAG ANGLE_FORCE_CONSTANT                                                      
%FORMAT(5E16.8)                                                                 
  4.32700000E+01  3.58000000E+01  4.32800000E+01  7.74400000E+01  5.98700000E+01
  3.56400000E+01  5.62000000E+01  1.01260000E+02  8.94300000E+01  7.79600000E+01
  7.85800000E+01  4.49000000E+01  6.14400000E+01  6.36700000E+01
%FLAG ANGLE_EQUIL_VALUE                                                         
%FORMAT(5E16.8)                                                                 
  1.91427794E+00  1.88024401E+00  1.91270715E+00  1.87832415E+00  1.96576518E+00
  1.89455572E+00  1.92579712E+00  2.15024656E+00  2.02144121E+00  2.13977458E+00
  1.96192545E+00  2.09230160E+00  2.10015559E+00  2.09474507E+00
%FLAG DIHEDRAL_FORCE_CONSTANT                                                   
%FORMAT(5E16.8)                                                                 
  1.55555556E-01  2.50000000E-01  0.00000000E+00  8.00000000E-01  3.83000000E-01
  1.20000000E-01  1.30000000E-01  5.20000000E-01  1.40000000E+00  2.70000000E+00
  3.83333333E-01  1.60000000E+00  3.67000000E+00  3.10000000E-01  3.62500000E+00
  5.80000000E-01  1.00000000E+00  1.05000000E+01  1.10000000E+00
%FLAG DIHEDRAL_PERIODICITY                                                      
%FORMAT(5E16.8)                                                                 
  3.00000000E+00  1.00000000E+00  3.00000000E+00  1.00000000E+00  3.00000000E+00
  3.00000000E+00  3.00000000E+00  3.00000000E+00  1.00000000E+00  2.00000000E+00
  3.00000000E+00  1.00000000E+00  2.00000000E+00  3.00000000E+00  2.00000000E+00
  2.00000000E+00  2.00000000E+00  2.00000000E+00  2.00000000E+00
%FLAG DIHEDRAL_PHASE                                                            
%FORMAT(5E16.8)                                                                 
  0.00000000E+00  0.00000000E+00  0.00000000E+00  3.14159400E+00  0.00000000E+00
  0.00000000E+00  0.00000000E+00  0.00000000E+00  3.14159400E+00  3.14159400E+00
  0.00000000E+00  3.14159400E+00  3.14159400E+00  0.00000000E+00  3.14159400E+00
  3.14159400E+00  3.14159400E+00  3.14159400E+00  3.14159400E+00
%FLAG SCEE_SCALE_FACTOR                                                         
%FORMAT(5E16.8)                                                                 
  1.20000000E+00  1.20000000E+00  1.20000000E+00  1.20000000E+00  1.20000000E+00
  1.20000000E+00  1.20000000E+00  1.20000000E+00  1.20000000E+00  1.20000000E+00
  1.20000000E+00  1.20000000E+00  1.20000000E+00  1.20000000E+00  1.20000000E+00
  1.20000000E+00  1.20000000E+00  0.00000000E+00  0.00000000E+00
%FLAG SCNB_SCALE_FACTOR                                                         
%FORMAT(5E16.8)                                                                 
  2.00000000E+00  2.00000000E+00  2.00000000E+00  2.00000000E+00  2.00000000E+00
  2.00000000E+00  2.00000000E+00  2.00000000E+00  2.00000000E+00  2.00000000E+00
  2.00000000E+00  2.00000000E+00  2.00000000E+00  2.00000000E+00  2.00000000E+00
  2.00000000E+00  2.00000000E+00  0.00000000E+00  0.00000000E+00
%FLAG SOLTY                                                                     
%FORMAT(5E16.8)                                                                 
  0.00000000E+00  0.00000000E+00  0.00000000E+00  0.00000000E+00  0.00000000E+00
  0.00000000E+00  0.00000000E+00  0.00000000E+00
%FLAG LENNARD_JONES_ACOEF                                                       
%FORMAT(5E16.8)                                                                 
  1.02073671E+06  6.97998263E+04  3.39005767E+03  5.42502534E+05  3.44374471E+04
  2.83662575E+05  8.43969952E+05  5.63013422E+04  4.46121722E+05  6.96551276E+05
  6.30925504E+05  3.86646725E+04  3.27367585E+05  5.17507491E+05  3.76435470E+05
  9.27554496E+04  4.88692384E+03  4.65732396E+04  7.52549148E+04  5.27277400E+04
  6.90855956E+03  1.00235148E+05  5.22955465E+03  5.02224902E+04  8.12662403E+04
  5.68021765E+04  7.41026906E+03  7.94617769E+03
%FLAG LENNARD_JONES_BCOEF                                                       
%FORMAT(5E16.8)                                                                 
  6.63431737E+02  1.14981426E+02  1.67944276E+01  4.38146883E+02  7.31636661E+01
  2.87011518E+02  5.90251928E+02  1.01040256E+02  3.88758656E+02  5.24668528E+02
  5.62969425E+02  9.23664132E+01  3.67361018E+02  4.98871431E+02  4.69350655E+02
  1.24325688E+02  1.89134207E+01  7.98066064E+01  1.09570372E+02  1.01173582E+02
  2.10929191E+01  1.37787728E+02  2.08590256E+01  8.83545880E+01  1.21392023E+02
  1.11953944E+02  2.32899892E+01  2.57122925E+01
%FLAG BONDS_INC_HYDROGEN                                                        
%FORMAT(10I8)                                                                   
      75      78       1      75      81       1      66      69       1      66
      72       1      57      60       3      57      63       3      39      42
       8      33      36       8      24      27       8      21      30       8
       0       3       3       0       6       3     159     162       1     159
     165       1     150     153       1     150     156       1     141     144
       3     141     147       3     123     126       8     117     120       8
     108     111       8     105     114       8      84      87       3      84
      90       3     243     246       1     243     249       1     234     237
       1     234     240       1     225     228       3     225     231       3
     207     210       8     201     204       8     192     195       8     189
     198       8     168     171       3     168     174       3     327     330
       1     327     333       1     318     321       1     318     324       1
     309     312       3     309     315       3     291     294       8     285
     288       8     276     279       8     273     282       8     252     255
       3     252     258       3     411     414       1     411     417       1
     402     405       1     402     408       1     393     396       3     393
     399       3     375     378       8     369     372       8     360     363
       8     357     366       8     336     339       3     336     342       3
     495     498       1     495     501       1     486     489       1     486
     492       1     477     480       3     477     483       3     459     462
       8     453     456       8     444     447       8     441     450       8
     420     423       3     420     426       3     579     582       1     579
     585       1     570     573       1     570     576       1     561     564
       3     561     567       3     543     546       8     537     540       8
     528     531       8     525     534       8     504     507       3     504
     510       3     663     666       1     663     669       1     654     657
       1     654     660       1     645     648       3     645     651       3
     627     630       8     621     624       8     612     615       8     609
     618       8     588     591       3     588     594       3     747     750
       1     747     753       1     738     741       1     738     744       1
     729     732       3     729     735       3     711     714       8     705
     708       8     696     699       8     693     702       8     672     675
       3     672     678       3     831     834       1     831     837       1
     822     825       1     822     828       1     813     816       3     813
     819       3     795     798       8     789     792       8     780     783
       8     777     786       8     756     759       3     756     762       3
     915     918       1     915     921       1     906     909       1     906
     912       1     897     900       3     897     903       3     879     882
       8     873     876       8     864     867       8     861     870       8
     840     843       3     840     846       3     999    1002       1     999
    1005       1     990     993       1     990     996       1     981     984
       3     981     987       3     963     966       8     957     960       8
     948     951       8     945     954       8     924     927       3     924
     930       3    1083    1086       1    1083    1089       1    1074    1077
       1    1074    1080       1    1065    1068       3    1065    1071       3
    1047    1050       8    1041    1044       8    1032    1035       8    1029
    1038       8    1008    1011       3    1008    1014       3    1167    1170
       1    1167    1173       1    1158    1161       1    1158    1164       1
    1149    1152       3    1149    1155       3    1131    1134       8    1125
    1128       8    1116    1119       8    1113    1122       8    1092    1095
       3    1092    1098       3    1251    1254       1    1251    1257       1
    1242    1245       1    1242    1248       1    1233    1236       3    1233
    1239       3    1215    1218       8    1209    1212       8    1200    1203
       8    1197    1206       8    1176    1179       3    1176    1182       3
    1335    1338       1    1335    1341       1    1326    1329       1    1326
    1332       1    1317    1320       3    1317    1323       3    1299    1302
       8    1293    1296       8    1284    1287       8    1281    1290       8
    1260    1263       3    1260    1266       3    1419    1422       1    1419
    1425       1    1410    1413       1    1410    1416       1    1401    1404
       3    1401    1407       3    1383    1386       8    1377    1380       8
    1368    1371       8    1365    1374       8    1344    1347       3    1344
    1350       3    1503    1506       1    1503    1509       1    1494    1497
       1    1494    1500       1    1485    1488       3    1485    1491       3
    1467    1470       8    1461    1464       8    1452    1455       8    1449
    1458       8    1428    1431       3    1428    1434       3    1587    1590
       1    1587    1593       1    1578    1581       1    1578    1584       1
    1569    1572       3    1569    1575       3    1551    1554       8    1545
    1548       8    1536    1539       8    1533    1542       8    1512    1515
       3    1512    1518       3    1671    1674       1    1671    1677       1
    1662    1665       1    1662    1668       1    1653    1656       3    1653
    1659       3    1635    1638       8    1629    1632       8    1620    1623
       8    1617    1626       8    1596    1599       3    1596    1602       3
    1755    1758       1    1755    1761       1    1746    1749       1    1746
    1752       1    1737    1740       3    1737    1743       3    1719    1722
       8    1713    1716       8    1704    1707       8    1701    1710       8
    1680    1683       3    1680    1686       3    1839    1842       1    1839
    1845       1    1830    1833       1    1830    1836       1    1821    1824
       3    1821    1827       3    1803    1806       8    1797    1800       8
    1788    1791       8    1785    1794       8    1764    1767       3    1764
    1770       3    1923    1926       1    1923    1929       1    1914    1917
       1    1914    1920       1    1905    1908       3    1905    1911       3
    1887    1890       8    1881    1884       8    1872    1875       8    1869
    1878       8    1848    1851       3    1848    1854       3    2007    2010
       1    2007    2013       1    1998    2001       1    1998    2004       1
    1989    1992       3    1989    1995       3    1971    1974       8    1965
    1968       8    1956    1959       8    1953    1962       8    1932    1935
       3    1932    1938       3    2091    2094       1    2091    2097       1
    2082    2085       1    2082    2088       1    2073    2076       3    2073
    2079       3    2055    2058       8    2049    2052       8    2040    2043
       8    2037    2046       8    2016    2019       3    2016    2022       3
%FLAG BONDS_WITHOUT_HYDROGEN                                                    
%FORMAT(10I8)                                                                   
      75      84       2      66      75       2      57      66       2      54
      57       4      48      51       5      48      54       6      45      48
       7      39      45       9      33      39       9      24      45       9
      21      24       9      18      21       9      18      33       9      12
      15       5      12      18       7       9      12       6       0       9
       4     159     168       2     150     159       2     141     150       2
     138     141       4     132     135       5     132     138       6     129
     132       7     123     129       9     117     123       9     108     129
       9     105     108       9     102     105       9     102     117       9
      96      99       5      96     102       7      93      96       6      84
      93       4     243     252       2     234     243       2     225     234
       2     222     225       4     216     219       5     216     222       6
     213     216       7     207     213       9     201     207       9     192
     213       9     189     192       9     186     189       9     186     201
       9     180     183       5     180     186       7     177     180       6
     168     177       4     327     336       2     318     327       2     309
     318       2     306     309       4     300     303       5     300     306
       6     297     300       7     291     297       9     285     291       9
     276     297       9     273     276       9     270     273       9     270
     285       9     264     267       5     264     270       7     261     264
       6     252     261       4     411     420       2     402     411       2
     393     402       2     390     393       4     384     387       5     384
     390       6     381     384       7     375     381       9     369     375
       9     360     381       9     357     360       9     354     357       9
     354     369       9     348     351       5     348     354       7     345
     348       6     336     345       4     495     504       2     486     495
       2     477     486       2     474     477       4     468     471       5
     468     474       6     465     468       7     459     465       9     453
     459       9     444     465       9     441     444       9     438     441
       9     438     453       9     432     435       5     432     438       7
     429     432       6     420     429       4     579     588       2     570
     579       2     561     570       2     558     561       4     552     555
       5     552     558       6     549     552       7     543     549       9
     537     543       9     528     549       9     525     528       9     522
     525       9     522     537       9     516     519       5     516     522
       7     513     516       6     504     513       4     663     672       2
     654     663       2     645     654       2     642     645       4     636
     639       5     636     642       6     633     636       7     627     633
       9     621     627       9     612     633       9     609     612       9
     606     609       9     606     621       9     600     603       5     600
     606       7     597     600       6     588     597       4     747     756
       2     738     747       2     729     738       2     726     729       4
     720     723       5     720     726       6     717     720       7     711
     717       9     705     711       9     696     717       9     693     696
       9     690     693       9     690     705       9     684     687       5
     684     690       7     681     684       6     672     681       4     831
     840       2     822     831       2     813     822       2     810     813
       4     804     807       5     804     810       6     801     804       7
     795     801       9     789     795       9     780     801       9     777
     780       9     774     777       9     774     789       9     768     771
       5     768     774       7     765     768       6     756     765       4
     915     924       2     906     915       2     897     906       2     894
     897       4     888     891       5     888     894       6     885     888
       7     879     885       9     873     879       9     864     885       9
     861     864       9     858     861       9     858     873       9     852
     855       5     852     858       7     849     852       6     840     849
       4     999    1008       2     990     999       2     981     990       2
     978     981       4     972     975       5     972     978       6     969
     972       7     963     969       9     957     963       9     948     969
       9     945     948       9     942     945       9     942     957       9
     936     939       5     936     942       7     933     936       6     924
     933       4    1083    1092       2    1074    1083       2    1065    1074
       2    1062    1065       4    1056    1059       5    1056    1062       6
    1053    1056       7    1047    1053       9    1041    1047       9    1032
    1053       9    1029    1032       9    1026    1029       9    1026    1041
       9    1020    1023       5    1020    1026       7    1017    1020       6
    1008    1017       4    1167    1176       2    1158    1167       2    1149
    1158       2    1146    1149       4    1140    1143       5    1140    1146
       6    1137    1140       7    1131    1137       9    1125    1131       9
    1116    1137       9    1113    1116       9    1110    1113       9    1110
    1125       9    1104    1107       5    1104    1110       7    1101    1104
       6    1092    1101       4    1251    1260       2    1242    1251       2
    1233    1242       2    1230    1233       4    1224    1227       5    1224
    1230       6    1221    1224       7    1215    1221       9    1209    1215
       9    1200    1221       9    1197    1200       9    1194    1197       9
    1194    1209       9    1188    1191       5    1188    1194       7    1185
    1188       6    1176    1185       4    1335    1344       2    1326    1335
       2    1317    1326       2    1314    1317       4    1308    1311       5
    1308    1314       6    1305    1308       7    1299    1305       9    1293
    1299       9    1284    1305       9    1281    1284       9    1278    1281
       9    1278    1293       9    1272    1275       5    1272    1278       7
    1269    1272       6    1260    1269       4    1419    1428       2    1410
    1419       2    1401    1410       2    1398    1401       4    1392    1395
       5    1392    1398       6    1389    1392       7    1383    1389       9
    1377    1383       9    1368    1389       9    1365    1368       9    1362
    1365       9    1362    1377       9    1356    1359       5    1356    1362
       7    1353    1356       6    1344    1353       4    1503    1512       2
    1494    1503       2    1485    1494       2    1482    1485       4    1476
    1479       5    1476    1482       6    1473    1476       7    1467    1473
       9    1461    1467       9    1452    1473       9    1449    1452       9
    1446    1449       9    1446    1461       9    1440    1443       5    1440
    1446       7    1437    1440       6    1428    1437       4    1587    1596
       2    1578    1587       2    1569    1578       2    1566    1569       4
    1560    1563       5    1560    1566       6    1557    1560       7    1551
    1557       9    1545    1551       9    1536    1557       9    1533    1536
       9    1530    1533       9    1530    1545       9    1524    1527       5
    1524    1530       7    1521    1524       6    1512    1521       4    1671
    1680       2    1662    1671       2    1653    1662       2    1650    1653
       4    1644    1647       5    1644    1650       6    1641    1644       7
    1635    1641       9    1629    1635       9    1620    1641       9    1617
    1620       9    1614    1617       9    1614    1629       9    1608    1611
       5    1608    1614       7    1605    1608       6    1596    1605       4
    1755    1764       2    1746    1755       2    1737    1746       2    1734
    1737       4    1728    1731       5    1728    1734       6    1725    1728
       7    1719    1725       9    1713    1719       9    1704    1725       9
    1701    1704       9    1698    1701       9    1698    1713       9    1692
    1695       5    1692    1698       7    1689    1692       6    1680    1689
       4    1839    1848       2    1830    1839       2    1821    1830       2
    1818    1821       4    1812    1815       5    1812    1818       6    1809
    1812       7    1803    1809       9    1797    1803       9    1788    1809
       9    1785    1788       9    1782    1785       9    1782    1797       9
    1776    1779       5    1776    1782       7    1773    1776       6    1764
    1773       4    1923    1932       2    1914    1923       2    1905    1914
       2    1902    1905       4    1896    1899       5    1896    1902       6
    1893    1896       7    1887    1893       9    1881    1887       9    1872
    1893       9    1869    1872       9    1866    1869       9    1866    1881
       9    1860    1863       5    1860    1866       7    1857    1860       6
    1848    1857       4    2007    2016       2    1998    2007       2    1989
    1998       2    1986    1989       4    1980    1983       5    1980    1986
       6    1977    1980       7    1971    1977       9    1965    1971       9
    1956    1977       9    1953    1956       9    1950    1953       9    1950
    1965       9    1944    1947       5    1944    1950       7    1941    1944
       6    1932    1941       4    2082    2091       2    2073    2082       2
    2070    2073       4    2064    2067       5    2064    2070       6    2061
    2064       7    2055    2061       9    2049    2055       9    2040    2061
       9    2037    2040       9    2034    2037       9    2034    2049       9
    2028    2031       5    2028    2034       7    2025    2028       6    2016
    2025       4
%FLAG ANGLES_INC_HYDROGEN                                                       
%FORMAT(10I8)                                                                   
      81      75      84       1      78      75      81       2      78      75
      84       1      75      84      87       3      75      84      90       3
      72      66      75       1      69      66      72       2      69      66
      75       1      66      75      78       1      66      75      81       1
      63      57      66       3      60      57      63       6      60      57
      66       3      57      66      69       1      57      66      72       1
      54      57      60       7      54      57      63       7      42      39
      45      12      36      33      39      12      33      39      42      12
      27      24      45      12      24      21      30      12      21      24
      27      12      18      21      30      12      18      33      36      12
       6       0       9       7       3       0       6       6       3       0
       9       7     165     159     168       1     162     159     165       2
     162     159     168       1     159     168     171       3     159     168
     174       3     156     150     159       1     153     150     156       2
     153     150     159       1     150     159     162       1     150     159
     165       1     147     141     150       3     144     141     147       6
     144     141     150       3     141     150     153       1     141     150
     156       1     138     141     144       7     138     141     147       7
     126     123     129      12     120     117     123      12     117     123
     126      12     111     108     129      12     108     105     114      12
     105     108     111      12     102     105     114      12     102     117
     120      12      90      84      93       7      87      84      90       6
      87      84      93       7     249     243     252       1     246     243
     249       2     246     243     252       1     243     252     255       3
     243     252     258       3     240     234     243       1     237     234
     240       2     237     234     243       1     234     243     246       1
     234     243     249       1     231     225     234       3     228     225
     231       6     228     225     234       3     225     234     237       1
     225     234     240       1     222     225     228       7     222     225
     231       7     210     207     213      12     204     201     207      12
     201     207     210      12     195     192     213      12     192     189
     198      12     189     192     195      12     186     189     198      12
     186     201     204      12     174     168     177       7     171     168
     174       6     171     168     177       7     333     327     336       1
     330     327     333       2     330     327     336       1     327     336
     339       3     327     336     342       3     324     318     327       1
     321     318     324       2     321     318     327       1     318     327
     330       1     318     327     333       1     315     309     318       3
     312     309     315       6     312     309     318       3     309     318
     321       1     309     318     324       1     306     309     312       7
     306     309     315       7     294     291     297      12     288     285
     291      12     285     291     294      12     279     276     297      12
     276     273     282      12     273     276     279      12     270     273
     282      12     270     285     288      12     258     252     261       7
     255     252     258       6     255     252     261       7     417     411
     420       1     414     411     417       2     414     411     420       1
     411     420     423       3     411     420     426       3     408     402
     411       1     405     402     408       2     405     402     411       1
     402     411     414       1     402     411     417       1     399     393
     402       3     396     393     399       6     396     393     402       3
     393     402     405       1     393     402     408       1     390     393
     396       7     390     393     399       7     378     375     381      12
     372     369     375      12     369     375     378      12     363     360
     381      12     360     357     366      12     357     360     363      12
     354     357     366      12     354     369     372      12     342     336
     345       7     339     336     342       6     339     336     345       7
     501     495     504       1     498     495     501       2     498     495
     504       1     495     504     507       3     495     504     510       3
     492     486     495       1     489     486     492       2     489     486
     495       1     486     495     498       1     486     495     501       1
     483     477     486       3     480     477     483       6     480     477
     486       3     477     486     489       1     477     486     492       1
     474     477     480       7     474     477     483       7     462     459
     465      12     456     453     459      12     453     459     462      12
     447     444     465      12     444     441     450      12     441     444
     447      12     438     441     450      12     438     453     456      12
     426     420     429       7     423     420     426       6     423     420
     429       7     585     579     588       1     582     579     585       2
     582     579     588       1     579     588     591       3     579     588
     594       3     576     570     579       1     573     570     576       2
     573     570     579       1     570     579     582       1     570     579
     585       1     567     561     570       3     564     561     567       6
     564     561     570       3     561     570     573       1     561     570
     576       1     558     561     564       7     558     561     567       7
     546     543     549      12     540     537     543      12     537     543
     546      12     531     528     549      12     528     525     534      12
     525     528     531      12     522     525     534      12     522     537
     540      12     510     504     513       7     507     504     510       6
     507     504     513       7     669     663     672       1     666     663
     669       2     666     663     672       1     663     672     675       3
     663     672     678       3     660     654     663       1     657     654
     660       2     657     654     663       1     654     663     666       1
     654     663     669       1     651     645     654       3     648     645
     651       6     648     645     654       3     645     654     657       1
     645     654     660       1     642     645     648       7     642     645
     651       7     630     627     633      12     624     621     627      12
     621     627     630      12     615     612     633      12     612     609
     618      12     609     612     615      12     606     609     618      12
     606     621     624      12     594     588     597       7     591     588
     594       6     591     588     597       7     753     747     756       1
     750     747     753       2     750     747     756       1     747     756
     759       3     747     756     762       3     744     738     747       1
     741     738     744       2     741     738     747       1     738     747
     750       1     738     747     753       1     735     729     738       3
     732     729     735       6     732     729     738       3     729     738
     741       1     729     738     744       1     726     729     732       7
     726     729     735       7     714     711     717      12     708     705
     711      12     705     711     714      12     699     696     717      12
     696     693     702      12     693     696     699      12     690     693
     702      12     690     705     708      12     678     672     681       7
     675     672     678       6     675     672     681       7     837     831
     840       1     834     831     837       2     834     831     840       1
     831     840     843       3     831     840     846       3     828     822
     831       1     825     822     828       2     825     822     831       1
     822     831     834       1     822     831     837       1     819     813
     822       3     816     813     819       6     816     813     822       3
     813     822     825       1     813     822     828       1     810     813
     816       7     810     813     819       7     798     795     801      12
     792     789     795      12     789     795     798      12     783     780
     801      12     780     777     786      12     777     780     783      12
     774     777     786      12     774     789     792      12     762     756
     765       7     759     756     762       6     759     756     765       7
     921     915     924       1     918     915     921       2     918     915
     924       1     915     924     927       3     915     924     930       3
     912     906     915       1     909     906     912       2     909     906
     915       1     906     915     918       1     906     915     921       1
     903     897     906       3     900     897     903       6     900     897
     906       3     897     906     909       1     897     906     912       1
     894     897     900       7     894     897     903       7     882     879
     885      12     876     873     879      12     873     879     882      12
     867     864     885      12     864     861     870      12     861     864
     867      12     858     861     870      12     858     873     876      12
     846     840     849       7     843     840     846       6     843     840
     849       7    1005     999    1008       1    1002     999    1005       2
    1002     999    1008       1     999    1008    1011       3     999    1008
    1014       3     996     990     999       1     993     990     996       2
     993     990     999       1     990     999    1002       1     990     999
    1005       1     987     981     990       3     984     981     987       6
     984     981     990       3     981     990     993       1     981     990
     996       1     978     981     984       7     978     981     987       7
     966     963     969      12     960     957     963      12     957     963
     966      12     951     948     969      12     948     945     954      12
     945     948     951      12     942     945     954      12     942     957
     960      12     930     924     933       7     927     924     930       6
     927     924     933       7    1089    1083    1092       1    1086    1083
    1089       2    1086    1083    1092       1    1083    1092    1095       3
    1083    1092    1098       3    1080    1074    1083       1    1077    1074
    1080       2    1077    1074    1083       1    1074    1083    1086       1
    1074    1083    1089       1    1071    1065    1074       3    1068    1065
    1071       6    1068    1065    1074       3    1065    1074    1077       1
    1065    1074    1080       1    1062    1065    1068       7    1062    1065
    1071       7    1050    1047    1053      12    1044    1041    1047      12
    1041    1047    1050      12    1035    1032    1053      12    1032    1029
    1038      12    1029    1032    1035      12    1026    1029    1038      12
    1026    1041    1044      12    1014    1008    1017       7    1011    1008
    1014       6    1011    1008    1017       7    1173    1167    1176       1
    1170    1167    1173       2    1170    1167    1176       1    1167    1176
    1179       3    1167    1176    1182       3    1164    1158    1167       1
    1161    1158    1164       2    1161    1158    1167       1    1158    1167
    1170       1    1158    1167    1173       1    1155    1149    1158       3
    1152    1149    1155       6    1152    1149    1158       3    1149    1158
    1161       1    1149    1158    1164       1    1146    1149    1152       7
    1146    1149    1155       7    1134    1131    1137      12    1128    1125
    1131      12    1125    1131    1134      12    1119    1116    1137      12
    1116    1113    1122      12    1113    1116    1119      12    1110    1113
    1122      12    1110    1125    1128      12    1098    1092    1101       7
    1095    1092    1098       6    1095    1092    1101       7    1257    1251
    1260       1    1254    1251    1257       2    1254    1251    1260       1
    1251    1260    1263       3    1251    1260    1266       3    1248    1242
    1251       1    1245    1242    1248       2    1245    1242    1251       1
    1242    1251    1254       1    1242    1251    1257       1    1239    1233
    1242       3    1236    1233    1239       6    1236    1233    1242       3
    1233    1242    1245       1    1233    1242    1248       1    1230    1233
    1236       7    1230    1233    1239       7    1218    1215    1221      12
    1212    1209    1215      12    1209    1215    1218      12    1203    1200
    1221      12    1200    1197    1206      12    1197    1200    1203      12
    1194    1197    1206      12    1194    1209    1212      12    1182    1176
    1185       7    1179    1176    1182       6    1179    1176    1185       7
    1341    1335    1344       1    1338    1335    1341       2    1338    1335
    1344       1    1335    1344    1347       3    1335    1344    1350       3
    1332    1326    1335       1    1329    1326    1332       2    1329    1326
    1335       1    1326    1335    1338       1    1326    1335    1341       1
    1323    1317    1326       3    1320    1317    1323       6    1320    1317
    1326       3    1317    1326    1329       1    1317    1326    1332       1
    1314    1317    1320       7    1314    1317    1323       7    1302    1299
    1305      12    1296    1293    1299      12    1293    1299    1302      12
    1287    1284    1305      12    1284    1281    1290      12    1281    1284
    1287      12    1278    1281    1290      12    1278    1293    1296      12
    1266    1260    1269       7    1263    1260    1266       6    1263    1260
    1269       7    1425    1419    1428       1    1422    1419    1425       2
    1422    1419    1428       1    1419    1428    1431       3    1419    1428
    1434       3    1416    1410    1419       1    1413    1410    1416       2
    1413    1410    1419       1    1410    1419    1422       1    1410    1419
    1425       1    1407    1401    1410       3    1404    1401    1407       6
    1404    1401    1410       3    1401    1410    1413       1    1401    1410
    1416       1    1398    1401    1404       7    1398    1401    1407       7
    1386    1383    1389      12    1380    1377    1383      12    1377    1383
    1386      12    1371    1368    1389      12    1368    1365    1374      12
    1365    1368    1371      12    1362    1365    1374      12    1362    1377
    1380      12    1350    1344    1353       7    1347    1344    1350       6
    1347    1344    1353       7    1509    1503    1512       1    1506    1503
    1509       2    1506    1503    1512       1    1503    1512    1515       3
    1503    1512    1518       3    1500    1494    1503       1    1497    1494
    1500       2    1497    1494    1503       1    1494    1503    1506       1
    1494    1503    1509       1    1491    1485    1494       3    1488    1485
    1491       6    1488    1485    1494       3    1485    1494    1497       1
    1485    1494    1500       1    1482    1485    1488       7    1482    1485
    1491       7    1470    1467    1473      12    1464    1461    1467      12
    1461    1467    1470      12    1455    1452    1473      12    1452    1449
    1458      12    1449    1452    1455      12    1446    1449    1458      12
    1446    1461    1464      12    1434    1428    1437       7    1431    1428
    1434       6    1431    1428    1437       7    1593    1587    1596       1
    1590    1587    1593       2    1590    1587    1596       1    1587    1596
    1599       3    1587    1596    1602       3    1584    1578    1587       1
    1581    1578    1584       2    1581    1578    1587       1    1578    1587
    1590       1    1578    1587    1593       1    1575    1569    1578       3
    1572    1569    1575       6    1572    1569    1578       3    1569    1578
    1581       1    1569    1578    1584       1    1566    1569    1572       7
    1566    1569    1575       7    1554    1551    1557      12    1548    1545
    1551      12    1545    1551    1554      12    1539    1536    1557      12
    1536    1533    1542      12    1533    1536    1539      12    1530    1533
    1542      12    1530    1545    1548      12    1518    1512    1521       7
    1515    1512    1518       6    1515    1512    1521       7    1677    1671
    1680       1    1674    1671    1677       2    1674    1671    1680       1
    1671    1680    1683       3    1671    1680    1686       3    1668    1662
    1671       1    1665    1662    1668       2    1665    1662    1671       1
    1662    1671    1674       1    1662    1671    1677       1    1659    1653
    1662       3    1656    1653    1659       6    1656    1653    1662       3
    1653    1662    1665       1    1653    1662    1668       1    1650    1653
    1656       7    1650    1653    1659       7    1638    1635    1641      12
    1632    1629    1635      12    1629    1635    1638      12    1623    1620
    1641      12    1620    1617    1626      12    1617    1620    1623      12
    1614    1617    1626      12    1614    1629    1632      12    1602    1596
    1605       7    1599    1596    1602       6    1599    1596    1605       7
    1761    1755    1764       1    1758    1755    1761       2    1758    1755
    1764       1    1755    1764    1767       3    1755    1764    1770       3
    1752    1746    1755       1    1749    1746    1752       2    1749    1746
    1755       1    1746    1755    1758       1    1746    1755    1761       1
    1743    1737    1746       3    1740    1737    1743       6    1740    1737
    1746       3    1737    1746    1749       1    1737    1746    1752       1
    1734    1737    1740       7    1734    1737    1743       7    1722    1719
    1725      12    1716    1713    1719      12    1713    1719    1722      12
    1707    1704    1725      12    1704    1701    1710      12    1701    1704
    1707      12    1698    1701    1710      12    1698    1713    1716      12
    1686    1680    1689       7    1683    1680    1686       6    1683    1680
    1689       7    1845    1839    1848       1    1842    1839    1845       2
    1842    1839    1848       1    1839    1848    1851       3    1839    1848
    1854       3    1836    1830    1839       1    1833    1830    1836       2
    1833    1830    1839       1    1830    1839    1842       1    1830    1839
    1845       1    1827    1821    1830       3    1824    1821    1827       6
    1824    1821    1830       3    1821    1830    1833       1    1821    1830
    1836       1    1818    1821    1824       7    1818    1821    1827       7
    1806    1803    1809      12    1800    1797    1803      12    1797    1803
    1806      12    1791    1788    1809      12    1788    1785    1794      12
    1785    1788    1791      12    1782    1785    1794      12    1782    1797
    1800      12    1770    1764    1773       7    1767    1764    1770       6
    1767    1764    1773       7    1929    1923    1932       1    1926    1923
    1929       2    1926    1923    1932       1    1923    1932    1935       3
    1923    1932    1938       3    1920    1914    1923       1    1917    1914
    1920       2    1917    1914    1923       1    1914    1923    1926       1
    1914    1923    1929       1    1911    1905    1914       3    1908    1905
    1911       6    1908    1905    1914       3    1905    1914    1917       1
    1905    1914    1920       1    1902    1905    1908       7    1902    1905
    1911       7    1890    1887    1893      12    1884    1881    1887      12
    1881    1887    1890      12    1875    1872    1893      12    1872    1869
    1878      12    1869    1872    1875      12    1866    1869    1878      12
    1866    1881    1884      12    1854    1848    1857       7    1851    1848
    1854       6    1851    1848    1857       7    2013    2007    2016       1
    2010    2007    2013       2    2010    2007    2016       1    2007    2016
    2019       3    2007    2016    2022       3    2004    1998    2007       1
    2001    1998    2004       2    2001    1998    2007       1    1998    2007
    2010       1    1998    2007    2013       1    1995    1989    1998       3
    1992    1989    1995       6    1992    1989    1998       3    1989    1998
    2001       1    1989    1998    2004       1    1986    1989    1992       7
    1986    1989    1995       7    1974    1971    1977      12    1968    1965
    1971      12    1965    1971    1974      12    1959    1956    1977      12
    1956    1953    1962      12    1953    1956    1959      12    1950    1953
    1962      12    1950    1965    1968      12    1938    1932    1941       7
    1935    1932    1938       6    1935    1932    1941       7    2094    2091
    2097       2    2088    2082    2091       1    2085    2082    2088       2
    2085    2082    2091       1    2082    2091    2094       1    2082    2091
    2097       1    2079    2073    2082       3    2076    2073    2079       6
    2076    2073    2082       3    2073    2082    2085       1    2073    2082
    2088       1    2070    2073    2076       7    2070    2073    2079       7
    2058    2055    2061      12    2052    2049    2055      12    2049    2055
    2058      12    2043    2040    2061      12    2040    2037    2046      12
    2037    2040    2043      12    2034    2037    2046      12    2034    2049
    2052      12    2022    2016    2025       7    2019    2016    2022       6
    2019    2016    2025       7
%FLAG ANGLES_WITHOUT_HYDROGEN                                                   
%FORMAT(10I8)                                                                   
      75      84      93       4      66      75      84       5      57      66
      75       5      54      57      66       4      51      48      54       8
      48      54      57       9      45      48      51      10      45      48
      54      11      39      45      48      13      33      39      45      14
      24      45      39      14      24      45      48      13      21      18
      33      14      21      24      45      14      18      21      24      14
      18      33      39      14      15      12      18      10      12      18
      21      13      12      18      33      13       9      12      15       8
       9      12      18      11       0       9      12       9     159     168
     177       4     150     159     168       5     141     150     159       5
     138     141     150       4     135     132     138       8     132     138
     141       9     129     132     135      10     129     132     138      11
     123     129     132      13     117     123     129      14     108     129
     123      14     108     129     132      13     105     102     117      14
     105     108     129      14     102     105     108      14     102     117
     123      14      99      96     102      10      96     102     105      13
      96     102     117      13      93      96      99       8      93      96
     102      11      84      93      96       9     243     252     261       4
     234     243     252       5     225     234     243       5     222     225
     234       4     219     216     222       8     216     222     225       9
     213     216     219      10     213     216     222      11     207     213
     216      13     201     207     213      14     192     213     207      14
     192     213     216      13     189     186     201      14     189     192
     213      14     186     189     192      14     186     201     207      14
     183     180     186      10     180     186     189      13     180     186
     201      13     177     180     183       8     177     180     186      11
     168     177     180       9     327     336     345       4     318     327
     336       5     309     318     327       5     306     309     318       4
     303     300     306       8     300     306     309       9     297     300
     303      10     297     300     306      11     291     297     300      13
     285     291     297      14     276     297     291      14     276     297
     300      13     273     270     285      14     273     276     297      14
     270     273     276      14     270     285     291      14     267     264
     270      10     264     270     273      13     264     270     285      13
     261     264     267       8     261     264     270      11     252     261
     264       9     411     420     429       4     402     411     420       5
     393     402     411       5     390     393     402       4     387     384
     390       8     384     390     393       9     381     384     387      10
     381     384     390      11     375     381     384      13     369     375
     381      14     360     381     375      14     360     381     384      13
     357     354     369      14     357     360     381      14     354     357
     360      14     354     369     375      14     351     348     354      10
     348     354     357      13     348     354     369      13     345     348
     351       8     345     348     354      11     336     345     348       9
     495     504     513       4     486     495     504       5     477     486
     495       5     474     477     486       4     471     468     474       8
     468     474     477       9     465     468     471      10     465     468
     474      11     459     465     468      13     453     459     465      14
     444     465     459      14     444     465     468      13     441     438
     453      14     441     444     465      14     438     441     444      14
     438     453     459      14     435     432     438      10     432     438
     441      13     432     438     453      13     429     432     435       8
     429     432     438      11     420     429     432       9     579     588
     597       4     570     579     588       5     561     570     579       5
     558     561     570       4     555     552     558       8     552     558
     561       9     549     552     555      10     549     552     558      11
     543     549     552      13     537     543     549      14     528     549
     543      14     528     549     552      13     525     522     537      14
     525     528     549      14     522     525     528      14     522     537
     543      14     519     516     522      10     516     522     525      13
     516     522     537      13     513     516     519       8     513     516
     522      11     504     513     516       9     663     672     681       4
     654     663     672       5     645     654     663       5     642     645
     654       4     639     636     642       8     636     642     645       9
     633     636     639      10     633     636     642      11     627     633
     636      13     621     627     633      14     612     633     627      14
     612     633     636      13     609     606     621      14     609     612
     633      14     606     609     612      14     606     621     627      14
     603     600     606      10     600     606     609      13     600     606
     621      13     597     600     603       8     597     600     606      11
     588     597     600       9     747     756     765       4     738     747
     756       5     729     738     747       5     726     729     738       4
     723     720     726       8     720     726     729       9     717     720
     723      10     717     720     726      11     711     717     720      13
     705     711     717      14     696     717     711      14     696     717
     720      13     693     690     705      14     693     696     717      14
     690     693     696      14     690     705     711      14     687     684
     690      10     684     690     693      13     684     690     705      13
     681     684     687       8     681     684     690      11     672     681
     684       9     831     840     849       4     822     831     840       5
     813     822     831       5     810     813     822       4     807     804
     810       8     804     810     813       9     801     804     807      10
     801     804     810      11     795     801     804      13     789     795
     801      14     780     801     795      14     780     801     804      13
     777     774     789      14     777     780     801      14     774     777
     780      14     774     789     795      14     771     768     774      10
     768     774     777      13     768     774     789      13     765     768
     771       8     765     768     774      11     756     765     768       9
     915     924     933       4     906     915     924       5     897     906
     915       5     894     897     906       4     891     888     894       8
     888     894     897       9     885     888     891      10     885     888
     894      11     879     885     888      13     873     879     885      14
     864     885     879      14     864     885     888      13     861     858
     873      14     861     864     885      14     858     861     864      14
     858     873     879      14     855     852     858      10     852     858
     861      13     852     858     873      13     849     852     855       8
     849     852     858      11     840     849     852       9     999    1008
    1017       4     990     999    1008       5     981     990     999       5
     978     981     990       4     975     972     978       8     972     978
     981       9     969     972     975      10     969     972     978      11
     963     969     972      13     957     963     969      14     948     969
     963      14     948     969     972      13     945     942     957      14
     945     948     969      14     942     945     948      14     942     957
     963      14     939     936     942      10     936     942     945      13
     936     942     957      13     933     936     939       8     933     936
     942      11     924     933     936       9    1083    1092    1101       4
    1074    1083    1092       5    1065    1074    1083       5    1062    1065
    1074       4    1059    1056    1062       8    1056    1062    1065       9
    1053    1056    1059      10    1053    1056    1062      11    1047    1053
    1056      13    1041    1047    1053      14    1032    1053    1047      14
    1032    1053    1056      13    1029    1026    1041      14    1029    1032
    1053      14    1026    1029    1032      14    1026    1041    1047      14
    1023    1020    1026      10    1020    1026    1029      13    1020    1026
    1041      13    1017    1020    1023       8    1017    1020    1026      11
    1008    1017    1020       9    1167    1176    1185       4    1158    1167
    1176       5    1149    1158    1167       5    1146    1149    1158       4
    1143    1140    1146       8    1140    1146    1149       9    1137    1140
    1143      10    1137    1140    1146      11    1131    1137    1140      13
    1125    1131    1137      14    1116    1137    1131      14    1116    1137
    1140      13    1113    1110    1125      14    1113    1116    1137      14
    1110    1113    1116      14    1110    1125    1131      14    1107    1104
    1110      10    1104    1110    1113      13    1104    1110    1125      13
    1101    1104    1107       8    1101    1104    1110      11    1092    1101
    1104       9    1251    1260    1269       4    1242    1251    1260       5
    1233    1242    1251       5    1230    1233    1242       4    1227    1224
    1230       8    1224    1230    1233       9    1221    1224    1227      10
    1221    1224    1230      11    1215    1221    1224      13    1209    1215
    1221      14    1200    1221    1215      14    1200    1221    1224      13
    1197    1194    1209      14    1197    1200    1221      14    1194    1197
    1200      14    1194    1209    1215      14    1191    1188    1194      10
    1188    1194    1197      13    1188    1194    1209      13    1185    1188
    1191       8    1185    1188    1194      11    1176    1185    1188       9
    1335    1344    1353       4    1326    1335    1344       5    1317    1326
    1335       5    1314    1317    1326       4    1311    1308    1314       8
    1308    1314    1317       9    1305    1308    1311      10    1305    1308
    1314      11    1299    1305    1308      13    1293    1299    1305      14
    1284    1305    1299      14    1284    1305    1308      13    1281    1278
    1293      14    1281    1284    1305      14    1278    1281    1284      14
    1278    1293    1299      14    1275    1272    1278      10    1272    1278
    1281      13    1272    1278    1293      13    1269    1272    1275       8
    1269    1272    1278      11    1260    1269    1272       9    1419    1428
    1437       4    1410    1419    1428       5    1401    1410    1419       5
    1398    1401    1410       4    1395    1392    1398       8    1392    1398
    1401       9    1389    1392    1395      10    1389    1392    1398      11
    1383    1389    1392      13    1377    1383    1389      14    1368    1389
    1383      14    1368    1389    1392      13    1365    1362    1377      14
    1365    1368    1389      14    1362    1365    1368      14    1362    1377
    1383      14    1359    1356    1362      10    1356    1362    1365      13
    1356    1362    1377      13    1353    1356    1359       8    1353    1356
    1362      11    1344    1353    1356       9    1503    1512    1521       4
    1494    1503    1512       5    1485    1494    1503       5    1482    1485
    1494       4    1479    1476    1482       8    1476    1482    1485       9
    1473    1476    1479      10    1473    1476    1482      11    1467    1473
    1476      13    1461    1467    1473      14    1452    1473    1467      14
    1452    1473    1476      13    1449    1446    1461      14    1449    1452
    1473      14    1446    1449    1452      14    1446    1461    1467      14
    1443    1440    1446      10    1440    1446    1449      13    1440    1446
    1461      13    1437    1440    1443       8    1437    1440    1446      11
    1428    1437    1440       9    1587    1596    1605       4    1578    1587
    1596       5    1569    1578    1587       5    1566    1569    1578       4
    1563    1560    1566       8    1560    1566    1569       9    1557    1560
    1563      10    1557    1560    1566      11    1551    1557    1560      13
    1545    1551    1557      14    1536    1557    1551      14    1536    1557
    1560      13    1533    1530    1545      14    1533    1536    1557      14
    1530    1533    1536      14    1530    1545    1551      14    1527    1524
    1530      10    1524    1530    1533      13    1524    1530    1545      13
    1521    1524    1527       8    1521    1524    1530      11    1512    1521
    1524       9    1671    1680    1689       4    1662    1671    1680       5
    1653    1662    1671       5    1650    1653    1662       4    1647    1644
    1650       8    1644    1650    1653       9    1641    1644    1647      10
    1641    1644    1650      11    1635    1641    1644      13    1629    1635
    1641      14    1620    1641    1635      14    1620    1641    1644      13
    1617    1614    1629      14    1617    1620    1641      14    1614    1617
    1620      14    1614    1629    1635      14    1611    1608    1614      10
    1608    1614    1617      13    1608    1614    1629      13    1605    1608
    1611       8    1605    1608    1614      11    1596    1605    1608       9
    1755    1764    1773       4    1746    1755    1764       5    1737    1746
    1755       5    1734    1737    1746       4    1731    1728    1734       8
    1728    1734    1737       9    1725    1728    1731      10    1725    1728
    1734      11    1719    1725    1728      13    1713    1719    1725      14
    1704    1725    1719      14    1704    1725    1728      13    1701    1698
    1713      14    1701    1704    1725      14    1698    1701    1704      14
    1698    1713    1719      14    1695    1692    1698      10    1692    1698
    1701      13    1692    1698    1713      13    1689    1692    1695       8
    1689    1692    1698      11    1680    1689    1692       9    1839    1848
    1857       4    1830    1839    1848       5    1821    1830    1839       5
    1818    1821    1830       4    1815    1812    1818       8    1812    1818
    1821       9    1809    1812    1815      10    1809    1812    1818      11
    1803    1809    1812      13    1797    1803    1809      14    1788    1809
    1803      14    1788    1809    1812      13    1785    1782    1797      14
    1785    1788    1809      14    1782    1785    1788      14    1782    1797
    1803      14    1779    1776    1782      10    1776    1782    1785      13
    1776    1782    1797      13    1773    1776    1779       8    1773    1776
    1782      11    1764    1773    1776       9    1923    1932    1941       4
    1914    1923    1932       5    1905    1914    1923       5    1902    1905
    1914       4    1899    1896    1902       8    1896    1902    1905       9
    1893    1896    1899      10    1893    1896    1902      11    1887    1893
    1896      13    1881    1887    1893      14    1872    1893    1887      14
    1872    1893    1896      13    1869    1866    1881      14    1869    1872
    1893      14    1866    1869    1872      14    1866    1881    1887      14
    1863    1860    1866      10    1860    1866    1869      13    1860    1866
    1881      13    1857    1860    1863       8    1857    1860    1866      11
    1848    1857    1860       9    2007    2016    2025       4    1998    2007
    2016       5    1989    1998    2007       5    1986    1989    1998       4
    1983    1980    1986       8    1980    1986    1989       9    1977    1980
    1983      10    1977    1980    1986      11    1971    1977    1980      13
    1965    1971    1977      14    1956    1977    1971      14    1956    1977
    1980      13    1953    1950    1965      14    1953    1956    1977      14
    1950    1953    1956      14    1950    1965    1971      14    1947    1944
    1950      10    1944    1950    1953      13    1944    1950    1965      13
    1941    1944    1947       8    1941    1944    1950      11    1932    1941
    1944       9    2073    2082    2091       5    2070    2073    2082       4
    2067    2064    2070       8    2064    2070    2073       9    2061    2064
    2067      10    2061    2064    2070      11    2055    2061    2064      13
    2049    2055    2061      14    2040    2061    2055      14    2040    2061
    2064      13    2037    2034    2049      14    2037    2040    2061      14
    2034    2037    2040      14    2034    2049    2055      14    2031    2028
    2034      10    2028    2034    2037      13    2028    2034    2049      13
    2025    2028    2031       8    2025    2028    2034      11    2016    2025
    2028       9
%FLAG DIHEDRALS_INC_HYDROGEN                                                    
%FORMAT(10I8)                                                                   
      81      75      84      87       1      81      75      84      90       1
      81      75      84      93       2      81      75     -84      93       3
      78      75      84      87       1      78      75      84      90       1
      78      75      84      93       2      78      75     -84      93       3
      72      66      75      78       6      72      66      75      81       6
      72      66      75      84       7      69      66      75      78       6
      69      66      75      81       6      69      66      75      84       7
      66      75      84      87       1      66      75      84      90       1
      63      57      66      69       1      63      57      66      72       1
      63      57      66      75       1      60      57      66      69       1
      60      57      66      72       1      60      57      66      75       1
      57      66      75      78       7      57      66      75      81       7
      54      57      66      69       2      54      57     -66      69       3
      54      57      66      72       2      54      57     -66      72       3
      48      54      57      60      11      48      54      57      63      11
      42      39      45      48      15      36      33      39      42      15
      36      33      39      45      15      30      21      18      33      15
      30      21      24      45      15      27      24      21      30      15
      27      24      45      39      15      27      24      45      48      15
      24      45      39      42      15      21      18      33      36      15
      18      21      24      27      15      18      33      39      42      15
      12      18      21      30      15      12      18      33      36      15
       6       0       9      12      11       3       0       9      12      11
     165     159     168     171       1     165     159     168     174       1
     165     159     168     177       2     165     159    -168     177       3
     162     159     168     171       1     162     159     168     174       1
     162     159     168     177       2     162     159    -168     177       3
     156     150     159     162       6     156     150     159     165       6
     156     150     159     168       7     153     150     159     162       6
     153     150     159     165       6     153     150     159     168       7
     150     159     168     171       1     150     159     168     174       1
     147     141     150     153       1     147     141     150     156       1
     147     141     150     159       1     144     141     150     153       1
     144     141     150     156       1     144     141     150     159       1
     141     150     159     162       7     141     150     159     165       7
     138     141     150     153       2     138     141    -150     153       3
     138     141     150     156       2     138     141    -150     156       3
     132     138     141     144      11     132     138     141     147      11
     126     123     129     132      15     120     117     123     126      15
     120     117     123     129      15     114     105     102     117      15
     114     105     108     129      15     111     108     105     114      15
     111     108     129     123      15     111     108     129     132      15
     108     129     123     126      15     105     102     117     120      15
     102     105     108     111      15     102     117     123     126      15
      96     102     105     114      15      96     102     117     120      15
      90      84      93      96      11      87      84      93      96      11
     249     243     252     255       1     249     243     252     258       1
     249     243     252     261       2     249     243    -252     261       3
     246     243     252     255       1     246     243     252     258       1
     246     243     252     261       2     246     243    -252     261       3
     240     234     243     246       6     240     234     243     249       6
     240     234     243     252       7     237     234     243     246       6
     237     234     243     249       6     237     234     243     252       7
     234     243     252     255       1     234     243     252     258       1
     231     225     234     237       1     231     225     234     240       1
     231     225     234     243       1     228     225     234     237       1
     228     225     234     240       1     228     225     234     243       1
     225     234     243     246       7     225     234     243     249       7
     222     225     234     237       2     222     225    -234     237       3
     222     225     234     240       2     222     225    -234     240       3
     216     222     225     228      11     216     222     225     231      11
     210     207     213     216      15     204     201     207     210      15
     204     201     207     213      15     198     189     186     201      15
     198     189     192     213      15     195     192     189     198      15
     195     192     213     207      15     195     192     213     216      15
     192     213     207     210      15     189     186     201     204      15
     186     189     192     195      15     186     201     207     210      15
     180     186     189     198      15     180     186     201     204      15
     174     168     177     180      11     171     168     177     180      11
     333     327     336     339       1     333     327     336     342       1
     333     327     336     345       2     333     327    -336     345       3
     330     327     336     339       1     330     327     336     342       1
     330     327     336     345       2     330     327    -336     345       3
     324     318     327     330       6     324     318     327     333       6
     324     318     327     336       7     321     318     327     330       6
     321     318     327     333       6     321     318     327     336       7
     318     327     336     339       1     318     327     336     342       1
     315     309     318     321       1     315     309     318     324       1
     315     309     318     327       1     312     309     318     321       1
     312     309     318     324       1     312     309     318     327       1
     309     318     327     330       7     309     318     327     333       7
     306     309     318     321       2     306     309    -318     321       3
     306     309     318     324       2     306     309    -318     324       3
     300     306     309     312      11     300     306     309     315      11
     294     291     297     300      15     288     285     291     294      15
     288     285     291     297      15     282     273     270     285      15
     282     273     276     297      15     279     276     273     282      15
     279     276     297     291      15     279     276     297     300      15
     276     297     291     294      15     273     270     285     288      15
     270     273     276     279      15     270     285     291     294      15
     264     270     273     282      15     264     270     285     288      15
     258     252     261     264      11     255     252     261     264      11
     417     411     420     423       1     417     411     420     426       1
     417     411     420     429       2     417     411    -420     429       3
     414     411     420     423       1     414     411     420     426       1
     414     411     420     429       2     414     411    -420     429       3
     408     402     411     414       6     408     402     411     417       6
     408     402     411     420       7     405     402     411     414       6
     405     402     411     417       6     405     402     411     420       7
     402     411     420     423       1     402     411     420     426       1
     399     393     402     405       1     399     393     402     408       1
     399     393     402     411       1     396     393     402     405       1
     396     393     402     408       1     396     393     402     411       1
     393     402     411     414       7     393     402     411     417       7
     390     393     402     405       2     390     393    -402     405       3
     390     393     402     408       2     390     393    -402     408       3
     384     390     393     396      11     384     390     393     399      11
     378     375     381     384      15     372     369     375     378      15
     372     369     375     381      15     366     357     354     369      15
     366     357     360     381      15     363     360     357     366      15
     363     360     381     375      15     363     360     381     384      15
     360     381     375     378      15     357     354     369     372      15
     354     357     360     363      15     354     369     375     378      15
     348     354     357     366      15     348     354     369     372      15
     342     336     345     348      11     339     336     345     348      11
     501     495     504     507       1     501     495     504     510       1
     501     495     504     513       2     501     495    -504     513       3
     498     495     504     507       1     498     495     504     510       1
     498     495     504     513       2     498     495    -504     513       3
     492     486     495     498       6     492     486     495     501       6
     492     486     495     504       7     489     486     495     498       6
     489     486     495     501       6     489     486     495     504       7
     486     495     504     507       1     486     495     504     510       1
     483     477     486     489       1     483     477     486     492       1
     483     477     486     495       1     480     477     486     489       1
     480     477     486     492       1     480     477     486     495       1
     477     486     495     498       7     477     486     495     501       7
     474     477     486     489       2     474     477    -486     489       3
     474     477     486     492       2     474     477    -486     492       3
     468     474     477     480      11     468     474     477     483      11
     462     459     465     468      15     456     453     459     462      15
     456     453     459     465      15     450     441     438     453      15
     450     441     444     465      15     447     444     441     450      15
     447     444     465     459      15     447     444     465     468      15
     444     465     459     462      15     441     438     453     456      15
     438     441     444     447      15     438     453     459     462      15
     432     438     441     450      15     432     438     453     456      15
     426     420     429     432      11     423     420     429     432      11
     585     579     588     591       1     585     579     588     594       1
     585     579     588     597       2     585     579    -588     597       3
     582     579     588     591       1     582     579     588     594       1
     582     579     588     597       2     582     579    -588     597       3
     576     570     579     582       6     576     570     579     585       6
     576     570     579     588       7     573     570     579     582       6
     573     570     579     585       6     573     570     579     588       7
     570     579     588     591       1     570     579     588     594       1
     567     561     570     573       1     567     561     570     576       1
     567     561     570     579       1     564     561     570     573       1
     564     561     570     576       1     564     561     570     579       1
     561     570     579     582       7     561     570     579     585       7
     558     561     570     573       2     558     561    -570     573       3
     558     561     570     576       2     558     561    -570     576       3
     552     558     561     564      11     552     558     561     567      11
     546     543     549     552      15     540     537     543     546      15
     540     537     543     549      15     534     525     522     537      15
     534     525     528     549      15     531     528     525     534      15
     531     528     549     543      15     531     528     549     552      15
     528     549     543     546      15     525     522     537     540      15
     522     525     528     531      15     522     537     543     546      15
     516     522     525     534      15     516     522     537     540      15
     510     504     513     516      11     507     504     513     516      11
     669     663     672     675       1     669     663     672     678       1
     669     663     672     681       2     669     663    -672     681       3
     666     663     672     675       1     666     663     672     678       1
     666     663     672     681       2     666     663    -672     681       3
     660     654     663     666       6     660     654     663     669       6
     660     654     663     672       7     657     654     663     666       6
     657     654     663     669       6     657     654     663     672       7
     654     663     672     675       1     654     663     672     678       1
     651     645     654     657       1     651     645     654     660       1
     651     645     654     663       1     648     645     654     657       1
     648     645     654     660       1     648     645     654     663       1
     645     654     663     666       7     645     654     663     669       7
     642     645     654     657       2     642     645    -654     657       3
     642     645     654     660       2     642     645    -654     660       3
     636     642     645     648      11     636     642     645     651      11
     630     627     633     636      15     624     621     627     630      15
     624     621     627     633      15     618     609     606     621      15
     618     609     612     633      15     615     612     609     618      15
     615     612     633     627      15     615     612     633     636      15
     612     633     627     630      15     609     606     621     624      15
     606     609     612     615      15     606     621     627     630      15
     600     606     609     618      15     600     606     621     624      15
     594     588     597     600      11     591     588     597     600      11
     753     747     756     759       1     753     747     756     762       1
     753     747     756     765       2     753     747    -756     765       3
     750     747     756     759       1     750     747     756     762       1
     750     747     756     765       2     750     747    -756     765       3
     744     738     747     750       6     744     738     747     753       6
     744     738     747     756       7     741     738     747     750       6
     741     738     747     753       6     741     738     747     756       7
     738     747     756     759       1     738     747     756     762       1
     735     729     738     741       1     735     729     738     744       1
     735     729     738     747       1     732     729     738     741       1
     732     729     738     744       1     732     729     738     747       1
     729     738     747     750       7     729     738     747     753       7
     726     729     738     741       2     726     729    -738     741       3
     726     729     738     744       2     726     729    -738     744       3
     720     726     729     732      11     720     726     729     735      11
     714     711     717     720      15     708     705     711     714      15
     708     705     711     717      15     702     693     690     705      15
     702     693     696     717      15     699     696     693     702      15
     699     696     717     711      15     699     696     717     720      15
     696     717     711     714      15     693     690     705     708      15
     690     693     696     699      15     690     705     711     714      15
     684     690     693     702      15     684     690     705     708      15
     678     672     681     684      11     675     672     681     684      11
     837     831     840     843       1     837     831     840     846       1
     837     831     840     849       2     837     831    -840     849       3
     834     831     840     843       1     834     831     840     846       1
     834     831     840     849       2     834     831    -840     849       3
     828     822     831     834       6     828     822     831     837       6
     828     822     831     840       7     825     822     831     834       6
     825     822     831     837       6     825     822     831     840       7
     822     831     840     843       1     822     831     840     846       1
     819     813     822     825       1     819     813     822     828       1
     819     813     822     831       1     816     813     822     825       1
     816     813     822     828       1     816     813     822     831       1
     813     822     831     834       7     813     822     831     837       7
     810     813     822     825       2     810     813    -822     825       3
     810     813     822     828       2     810     813    -822     828       3
     804     810     813     816      11     804     810     813     819      11
     798     795     801     804      15     792     789     795     798      15
     792     789     795     801      15     786     777     774     789      15
     786     777     780     801      15     783     780     777     786      15
     783     780     801     795      15     783     780     801     804      15
     780     801     795     798      15     777     774     789     792      15
     774     777     780     783      15     774     789     795     798      15
     768     774     777     786      15     768     774     789     792      15
     762     756     765     768      11     759     756     765     768      11
     921     915     924     927       1     921     915     924     930       1
     921     915     924     933       2     921     915    -924     933       3
     918     915     924     927       1     918     915     924     930       1
     918     915     924     933       2     918     915    -924     933       3
     912     906     915     918       6     912     906     915     921       6
     912     906     915     924       7     909     906     915     918       6
     909     906     915     921       6     909     906     915     924       7
     906     915     924     927       1     906     915     924     930       1
     903     897     906     909       1     903     897     906     912       1
     903     897     906     915       1     900     897     906     909       1
     900     897     906     912       1     900     897     906     915       1
     897     906     915     918       7     897     906     915     921       7
     894     897     906     909       2     894     897    -906     909       3
     894     897     906     912       2     894     897    -906     912       3
     888     894     897     900      11     888     894     897     903      11
     882     879     885     888      15     876     873     879     882      15
     876     873     879     885      15     870     861     858     873      15
     870     861     864     885      15     867     864     861     870      15
     867     864     885     879      15     867     864     885     888      15
     864     885     879     882      15     861     858     873     876      15
     858     861     864     867      15     858     873     879     882      15
     852     858     861     870      15     852     858     873     876      15
     846     840     849     852      11     843     840     849     852      11
    1005     999    1008    1011       1    1005     999    1008    1014       1
    1005     999    1008    1017       2    1005     999   -1008    1017       3
    1002     999    1008    1011       1    1002     999    1008    1014       1
    1002     999    1008    1017       2    1002     999   -1008    1017       3
     996     990     999    1002       6     996     990     999    1005       6
     996     990     999    1008       7     993     990     999    1002       6
     993     990     999    1005       6     993     990     999    1008       7
     990     999    1008    1011       1     990     999    1008    1014       1
     987     981     990     993       1     987     981     990     996       1
     987     981     990     999       1     984     981     990     993       1
     984     981     990     996       1     984     981     990     999       1
     981     990     999    1002       7     981     990     999    1005       7
     978     981     990     993       2     978     981    -990     993       3
     978     981     990     996       2     978     981    -990     996       3
     972     978     981     984      11     972     978     981     987      11
     966     963     969     972      15     960     957     963     966      15
     960     957     963     969      15     954     945     942     957      15
     954     945     948     969      15     951     948     945     954      15
     951     948     969     963      15     951     948     969     972      15
     948     969     963     966      15     945     942     957     960      15
     942     945     948     951      15     942     957     963     966      15
     936     942     945     954      15     936     942     957     960      15
     930     924     933     936      11     927     924     933     936      11
    1089    1083    1092    1095       1    1089    1083    1092    1098       1
    1089    1083    1092    1101       2    1089    1083   -1092    1101       3
    1086    1083    1092    1095       1    1086    1083    1092    1098       1
    1086    1083    1092    1101       2    1086    1083   -1092    1101       3
    1080    1074    1083    1086       6    1080    1074    1083    1089       6
    1080    1074    1083    1092       7    1077    1074    1083    1086       6
    1077    1074    1083    1089       6    1077    1074    1083    1092       7
    1074    1083    1092    1095       1    1074    1083    1092    1098       1
    1071    1065    1074    1077       1    1071    1065    1074    1080       1
    1071    1065    1074    1083       1    1068    1065    1074    1077       1
    1068    1065    1074    1080       1    1068    1065    1074    1083       1
    1065    1074    1083    1086       7    1065    1074    1083    1089       7
    1062    1065    1074    1077       2    1062    1065   -1074    1077       3
    1062    1065    1074    1080       2    1062    1065   -1074    1080       3
    1056    1062    1065    1068      11    1056    1062    1065    1071      11
    1050    1047    1053    1056      15    1044    1041    1047    1050      15
    1044    1041    1047    1053      15    1038    1029    1026    1041      15
    1038    1029    1032    1053      15    1035    1032    1029    1038      15
    1035    1032    1053    1047      15    1035    1032    1053    1056      15
    1032    1053    1047    1050      15    1029    1026    1041    1044      15
    1026    1029    1032    1035      15    1026    1041    1047    1050      15
    1020    1026    1029    1038      15    1020    1026    1041    1044      15
    1014    1008    1017    1020      11    1011    1008    1017    1020      11
    1173    1167    1176    1179       1    1173    1167    1176    1182       1
    1173    1167    1176    1185       2    1173    1167   -1176    1185       3
    1170    1167    1176    1179       1    1170    1167    1176    1182       1
    1170    1167    1176    1185       2    1170    1167   -1176    1185       3
    1164    1158    1167    1170       6    1164    1158    1167    1173       6
    1164    1158    1167    1176       7    1161    1158    1167    1170       6
    1161    1158    1167    1173       6    1161    1158    1167    1176       7
    1158    1167    1176    1179       1    1158    1167    1176    1182       1
    1155    1149    1158    1161       1    1155    1149    1158    1164       1
    1155    1149    1158    1167       1    1152    1149    1158    1161       1
    1152    1149    1158    1164       1    1152    1149    1158    1167       1
    1149    1158    1167    1170       7    1149    1158    1167    1173       7
    1146    1149    1158    1161       2    1146    1149   -1158    1161       3
    1146    1149    1158    1164       2    1146    1149   -1158    1164       3
    1140    1146    1149    1152      11    1140    1146    1149    1155      11
    1134    1131    1137    1140      15    1128    1125    1131    1134      15
    1128    1125    1131    1137      15    1122    1113    1110    1125      15
    1122    1113    1116    1137      15    1119    1116    1113    1122      15
    1119    1116    1137    1131      15    1119    1116    1137    1140      15
    1116    1137    1131    1134      15    1113    1110    1125    1128      15
    1110    1113    1116    1119      15    1110    1125    1131    1134      15
    1104    1110    1113    1122      15    1104    1110    1125    1128      15
    1098    1092    1101    1104      11    1095    1092    1101    1104      11
    1257    1251    1260    1263       1    1257    1251    1260    1266       1
    1257    1251    1260    1269       2    1257    1251   -1260    1269       3
    1254    1251    1260    1263       1    1254    1251    1260    1266       1
    1254    1251    1260    1269       2    1254    1251   -1260    1269       3
    1248    1242    1251    1254       6    1248    1242    1251    1257       6
    1248    1242    1251    1260       7    1245    1242    1251    1254       6
    1245    1242    1251    1257       6    1245    1242    1251    1260       7
    1242    1251    1260    1263       1    1242    1251    1260    1266       1
    1239    1233    1242    1245       1    1239    1233    1242    1248       1
    1239    1233    1242    1251       1    1236    1233    1242    1245       1
    1236    1233    1242    1248       1    1236    1233    1242    1251       1
    1233    1242    1251    1254       7    1233    1242    1251    1257       7
    1230    1233    1242    1245       2    1230    1233   -1242    1245       3
    1230    1233    1242    1248       2    1230    1233   -1242    1248       3
    1224    1230    1233    1236      11    1224    1230    1233    1239      11
    1218    1215    1221    1224      15    1212    1209    1215    1218      15
    1212    1209    1215    1221      15    1206    1197    1194    1209      15
    1206    1197    1200    1221      15    1203    1200    1197    1206      15
    1203    1200    1221    1215      15    1203    1200    1221    1224      15
    1200    1221    1215    1218      15    1197    1194    1209    1212      15
    1194    1197    1200    1203      15    1194    1209    1215    1218      15
    1188    1194    1197    1206      15    1188    1194    1209    1212      15
    1182    1176    1185    1188      11    1179    1176    1185    1188      11
    1341    1335    1344    1347       1    1341    1335    1344    1350       1
    1341    1335    1344    1353       2    1341    1335   -1344    1353       3
    1338    1335    1344    1347       1    1338    1335    1344    1350       1
    1338    1335    1344    1353       2    1338    1335   -1344    1353       3
    1332    1326    1335    1338       6    1332    1326    1335    1341       6
    1332    1326    1335    1344       7    1329    1326    1335    1338       6
    1329    1326    1335    1341       6    1329    1326    1335    1344       7
    1326    1335    1344    1347       1    1326    1335    1344    1350       1
    1323    1317    1326    1329       1    1323    1317    1326    1332       1
    1323    1317    1326    1335       1    1320    1317    1326    1329       1
    1320    1317    1326    1332       1    1320    1317    1326    1335       1
    1317    1326    1335    1338       7    1317    1326    1335    1341       7
    1314    1317    1326    1329       2    1314    1317   -1326    1329       3
    1314    1317    1326    1332       2    1314    1317   -1326    1332       3
    1308    1314    1317    1320      11    1308    1314    1317    1323      11
    1302    1299    1305    1308      15    1296    1293    1299    1302      15
    1296    1293    1299    1305      15    1290    1281    1278    1293      15
    1290    1281    1284    1305      15    1287    1284    1281    1290      15
    1287    1284    1305    1299      15    1287    1284    1305    1308      15
    1284    1305    1299    1302      15    1281    1278    1293    1296      15
    1278    1281    1284    1287      15    1278    1293    1299    1302      15
    1272    1278    1281    1290      15    1272    1278    1293    1296      15
    1266    1260    1269    1272      11    1263    1260    1269    1272      11
    1425    1419    1428    1431       1    1425    1419    1428    1434       1
    1425    1419    1428    1437       2    1425    1419   -1428    1437       3
    1422    1419    1428    1431       1    1422    1419    1428    1434       1
    1422    1419    1428    1437       2    1422    1419   -1428    1437       3
    1416    1410    1419    1422       6    1416    1410    1419    1425       6
    1416    1410    1419    1428       7    1413    1410    1419    1422       6
    1413    1410    1419    1425       6    1413    1410    1419    1428       7
    1410    1419    1428    1431       1    1410    1419    1428    1434       1
    1407    1401    1410    1413       1    1407    1401    1410    1416       1
    1407    1401    1410    1419       1    1404    1401    1410    1413       1
    1404    1401    1410    1416       1    1404    1401    1410    1419       1
    1401    1410    1419    1422       7    1401    1410    1419    1425       7
    1398    1401    1410    1413       2    1398    1401   -1410    1413       3
    1398    1401    1410    1416       2    1398    1401   -1410    1416       3
    1392    1398    1401    1404      11    1392    1398    1401    1407      11
    1386    1383    1389    1392      15    1380    1377    1383    1386      15
    1380    1377    1383    1389      15    1374    1365    1362    1377      15
    1374    1365    1368    1389      15    1371    1368    1365    1374      15
    1371    1368    1389    1383      15    1371    1368    1389    1392      15
    1368    1389    1383    1386      15    1365    1362    1377    1380      15
    1362    1365    1368    1371      15    1362    1377    1383    1386      15
    1356    1362    1365    1374      15    1356    1362    1377    1380      15
    1350    1344    1353    1356      11    1347    1344    1353    1356      11
    1509    1503    1512    1515       1    1509    1503    1512    1518       1
    1509    1503    1512    1521       2    1509    1503   -1512    1521       3
    1506    1503    1512    1515       1    1506    1503    1512    1518       1
    1506    1503    1512    1521       2    1506    1503   -1512    1521       3
    1500    1494    1503    1506       6    1500    1494    1503    1509       6
    1500    1494    1503    1512       7    1497    1494    1503    1506       6
    1497    1494    1503    1509       6    1497    1494    1503    1512       7
    1494    1503    1512    1515       1    1494    1503    1512    1518       1
    1491    1485    1494    1497       1    1491    1485    1494    1500       1
    1491    1485    1494    1503       1    1488    1485    1494    1497       1
    1488    1485    1494    1500       1    1488    1485    1494    1503       1
    1485    1494    1503    1506       7    1485    1494    1503    1509       7
    1482    1485    1494    1497       2    1482    1485   -1494    1497       3
    1482    1485    1494    1500       2    1482    1485   -1494    1500       3
    1476    1482    1485    1488      11    1476    1482    1485    1491      11
    1470    1467    1473    1476      15    1464    1461    1467    1470      15
    1464    1461    1467    1473      15    1458    1449    1446    1461      15
    1458    1449    1452    1473      15    1455    1452    1449    1458      15
    1455    1452    1473    1467      15    1455    1452    1473    1476      15
    1452    1473    1467    1470      15    1449    1446    1461    1464      15
    1446    1449    1452    1455      15    1446    1461    1467    1470      15
    1440    1446    1449    1458      15    1440    1446    1461    1464      15
    1434    1428    1437    1440      11    1431    1428    1437    1440      11
    1593    1587    1596    1599       1    1593    1587    1596    1602       1
    1593    1587    1596    1605       2    1593    1587   -1596    1605       3
    1590    1587    1596    1599       1    1590    1587    1596    1602       1
    1590    1587    1596    1605       2    1590    1587   -1596    1605       3
    1584    1578    1587    1590       6    1584    1578    1587    1593       6
    1584    1578    1587    1596       7    1581    1578    1587    1590       6
    1581    1578    1587    1593       6    1581    1578    1587    1596       7
    1578    1587    1596    1599       1    1578    1587    1596    1602       1
    1575    1569    1578    1581       1    1575    1569    1578    1584       1
    1575    1569    1578    1587       1    1572    1569    1578    1581       1
    1572    1569    1578    1584       1    1572    1569    1578    1587       1
    1569    1578    1587    1590       7    1569    1578    1587    1593       7
    1566    1569    1578    1581       2    1566    1569   -1578    1581       3
    1566    1569    1578    1584       2    1566    1569   -1578    1584       3
    1560    1566    1569    1572      11    1560    1566    1569    1575      11
    1554    1551    1557    1560      15    1548    1545    1551    1554      15
    1548    1545    1551    1557      15    1542    1533    1530    1545      15
    1542    1533    1536    1557      15    1539    1536    1533    1542      15
    1539    1536    1557    1551      15    1539    1536    1557    1560      15
    1536    1557    1551    1554      15    1533    1530    1545    1548      15
    1530    1533    1536    1539      15    1530    1545    1551    1554      15
    1524    1530    1533    1542      15    1524    1530    1545    1548      15
    1518    1512    1521    1524      11    1515    1512    1521    1524      11
    1677    1671    1680    1683       1    1677    1671    1680    1686       1
    1677    1671    1680    1689       2    1677    1671   -1680    1689       3
    1674    1671    1680    1683       1    1674    1671    1680    1686       1
    1674    1671    1680    1689       2    1674    1671   -1680    1689       3
    1668    1662    1671    1674       6    1668    1662    1671    1677       6
    1668    1662    1671    1680       7    1665    1662    1671    1674       6
    1665    1662    1671    1677       6    1665    1662    1671    1680       7
    1662    1671    1680    1683       1    1662    1671    1680    1686       1
    1659    1653    1662    1665       1    1659    1653    1662    1668       1
    1659    1653    1662    1671       1    1656    1653    1662    1665       1
    1656    1653    1662    1668       1    1656    1653    1662    1671       1
    1653    1662    1671    1674       7    1653    1662    1671    1677       7
    1650    1653    1662    1665       2    1650    1653   -1662    1665       3
    1650    1653    1662    1668       2    1650    1653   -1662    1668       3
    1644    1650    1653    1656      11    1644    1650    1653    1659      11
    1638    1635    1641    1644      15    1632    1629    1635    1638      15
    1632    1629    1635    1641      15    1626    1617    1614    1629      15
    1626    1617    1620    1641      15    1623    1620    1617    1626      15
    1623    1620    1641    1635      15    1623    1620    1641    1644      15
    1620    1641    1635    1638      15    1617    1614    1629    1632      15
    1614    1617    1620    1623      15    1614    1629    1635    1638      15
    1608    1614    1617    1626      15    1608    1614    1629    1632      15
    1602    1596    1605    1608      11    1599    1596    1605    1608      11
    1761    1755    1764    1767       1    1761    1755    1764    1770       1
    1761    1755    1764    1773       2    1761    1755   -1764    1773       3
    1758    1755    1764    1767       1    1758    1755    1764    1770       1
    1758    1755    1764    1773       2    1758    1755   -1764    1773       3
    1752    1746    1755    1758       6    1752    1746    1755    1761       6
    1752    1746    1755    1764       7    1749    1746    1755    1758       6
    1749    1746    1755    1761       6    1749    1746    1755    1764       7
    1746    1755    1764    1767       1    1746    1755    1764    1770       1
    1743    1737    1746    1749       1    1743    1737    1746    1752       1
    1743    1737    1746    1755       1    1740    1737    1746    1749       1
    1740    1737    1746    1752       1    1740    1737    1746    1755       1
    1737    1746    1755    1758       7    1737    1746    1755    1761       7
    1734    1737    1746    1749       2    1734    1737   -1746    1749       3
    1734    1737    1746    1752       2    1734    1737   -1746    1752       3
    1728    1734    1737    1740      11    1728    1734    1737    1743      11
    1722    1719    1725    1728      15    1716    1713    1719    1722      15
    1716    1713    1719    1725      15    1710    1701    1698    1713      15
    1710    1701    1704    1725      15    1707    1704    1701    1710      15
    1707    1704    1725    1719      15    1707    1704    1725    1728      15
    1704    1725    1719    1722      15    1701    1698    1713    1716      15
    1698    1701    1704    1707      15    1698    1713    1719    1722      15
    1692    1698    1701    1710      15    1692    1698    1713    1716      15
    1686    1680    1689    1692      11    1683    1680    1689    1692      11
    1845    1839    1848    1851       1    1845    1839    1848    1854       1
    1845    1839    1848    1857       2    1845    1839   -1848    1857       3
    1842    1839    1848    1851       1    1842    1839    1848    1854       1
    1842    1839    1848    1857       2    1842    1839   -1848    1857       3
    1836    1830    1839    1842       6    1836    1830    1839    1845       6
    1836    1830    1839    1848       7    1833    1830    1839    1842       6
    1833    1830    1839    1845       6    1833    1830    1839    1848       7
    1830    1839    1848    1851       1    1830    1839    1848    1854       1
    1827    1821    1830    1833       1    1827    1821    1830    1836       1
    1827    1821    1830    1839       1    1824    1821    1830    1833       1
    1824    1821    1830    1836       1    1824    1821    1830    1839       1
    1821    1830    1839    1842       7    1821    1830    1839    1845       7
    1818    1821    1830    1833       2    1818    1821   -1830    1833       3
    1818    1821    1830    1836       2    1818    1821   -1830    1836       3
    1812    1818    1821    1824      11    1812    1818    1821    1827      11
    1806    1803    1809    1812      15    1800    1797    1803    1806      15
    1800    1797    1803    1809      15    1794    1785    1782    1797      15
    1794    1785    1788    1809      15    1791    1788    1785    1794      15
    1791    1788    1809    1803      15    1791    1788    1809    1812      15
    1788    1809    1803    1806      15    1785    1782    1797    1800      15
    1782    1785    1788    1791      15    1782    1797    1803    1806      15
    1776    1782    1785    1794      15    1776    1782    1797    1800      15
    1770    1764    1773    1776      11    1767    1764    1773    1776      11
    1929    1923    1932    1935       1    1929    1923    1932    1938       1
    1929    1923    1932    1941       2    1929    1923   -1932    1941       3
    1926    1923    1932    1935       1    1926    1923    1932    1938       1
    1926    1923    1932    1941       2    1926    1923   -1932    1941       3
    1920    1914    1923    1926       6    1920    1914    1923    1929       6
    1920    1914    1923    1932       7    1917    1914    1923    1926       6
    1917    1914    1923    1929       6    1917    1914    1923    1932       7
    1914    1923    1932    1935       1    1914    1923    1932    1938       1
    1911    1905    1914    1917       1    1911    1905    1914    1920       1
    1911    1905    1914    1923       1    1908    1905    1914    1917       1
    1908    1905    1914    1920       1    1908    1905    1914    1923       1
    1905    1914    1923    1926       7    1905    1914    1923    1929       7
    1902    1905    1914    1917       2    1902    1905   -1914    1917       3
    1902    1905    1914    1920       2    1902    1905   -1914    1920       3
    1896    1902    1905    1908      11    1896    1902    1905    1911      11
    1890    1887    1893    1896      15    1884    1881    1887    1890      15
    1884    1881    1887    1893      15    1878    1869    1866    1881      15
    1878    1869    1872    1893      15    1875    1872    1869    1878      15
    1875    1872    1893    1887      15    1875    1872    1893    1896      15
    1872    1893    1887    1890      15    1869    1866    1881    1884      15
    1866    1869    1872    1875      15    1866    1881    1887    1890      15
    1860    1866    1869    1878      15    1860    1866    1881    1884      15
    1854    1848    1857    1860      11    1851    1848    1857    1860      11
    2013    2007    2016    2019       1    2013    2007    2016    2022       1
    2013    2007    2016    2025       2    2013    2007   -2016    2025       3
    2010    2007    2016    2019       1    2010    2007    2016    2022       1
    2010    2007    2016    2025       2    2010    2007   -2016    2025       3
    2004    1998    2007    2010       6    2004    1998    2007    2013       6
    2004    1998    2007    2016       7    2001    1998    2007    2010       6
    2001    1998    2007    2013       6    2001    1998    2007    2016       7
    1998    2007    2016    2019       1    1998    2007    2016    2022       1
    1995    1989    1998    2001       1    1995    1989    1998    2004       1
    1995    1989    1998    2007       1    1992    1989    1998    2001       1
    1992    1989    1998    2004       1    1992    1989    1998    2007       1
    1989    1998    2007    2010       7    1989    1998    2007    2013       7
    1986    1989    1998    2001       2    1986    1989   -1998    2001       3
    1986    1989    1998    2004       2    1986    1989   -1998    2004       3
    1980    1986    1989    1992      11    1980    1986    1989    1995      11
    1974    1971    1977    1980      15    1968    1965    1971    1974      15
    1968    1965    1971    1977      15    1962    1953    1950    1965      15
    1962    1953    1956    1977      15    1959    1956    1953    1962      15
    1959    1956    1977    1971      15    1959    1956    1977    1980      15
    1956    1977    1971    1974      15    1953    1950    1965    1968      15
    1950    1953    1956    1959      15    1950    1965    1971    1974      15
    1944    1950    1953    1962      15    1944    1950    1965    1968      15
    1938    1932    1941    1944      11    1935    1932    1941    1944      11
    2088    2082    2091    2094       6    2088    2082    2091    2097       6
    2085    2082    2091    2094       6    2085    2082    2091    2097       6
    2079    2073    2082    2085       1    2079    2073    2082    2088       1
    2079    2073    2082    2091       1    2076    2073    2082    2085       1
    2076    2073    2082    2088       1    2076    2073    2082    2091       1
    2073    2082    2091    2094       7    2073    2082    2091    2097       7
    2070    2073    2082    2085       2    2070    2073   -2082    2085       3
    2070    2073    2082    2088       2    2070    2073   -2082    2088       3
    2064    2070    2073    2076      11    2064    2070    2073    2079      11
    2058    2055    2061    2064      15    2052    2049    2055    2058      15
    2052    2049    2055    2061      15    2046    2037    2034    2049      15
    2046    2037    2040    2061      15    2043    2040    2037    2046      15
    2043    2040    2061    2055      15    2043    2040    2061    2064      15
    2040    2061    2055    2058      15    2037    2034    2049    2052      15
    2034    2037    2040    2043      15    2034    2049    2055    2058      15
    2028    2034    2037    2046      15    2028    2034    2049    2052      15
    2022    2016    2025    2028      11    2019    2016    2025    2028      11
      33      45     -39     -42      19      18      39     -33     -36      19
      21      45     -24     -27      19      18      24     -21     -30      19
     117     129    -123    -126      19     102     123    -117    -120      19
     105     129    -108    -111      19     102     108    -105    -114      19
     201     213    -207    -210      19     186     207    -201    -204      19
     189     213    -192    -195      19     186     192    -189    -198      19
     285     297    -291    -294      19     270     291    -285    -288      19
     273     297    -276    -279      19     270     276    -273    -282      19
     369     381    -375    -378      19     354     375    -369    -372      19
     357     381    -360    -363      19     354     360    -357    -366      19
     453     465    -459    -462      19     438     459    -453    -456      19
     441     465    -444    -447      19     438     444    -441    -450      19
     537     549    -543    -546      19     522     543    -537    -540      19
     525     549    -528    -531      19     522     528    -525    -534      19
     621     633    -627    -630      19     606     627    -621    -624      19
     609     633    -612    -615      19     606     612    -609    -618      19
     705     717    -711    -714      19     690     711    -705    -708      19
     693     717    -696    -699      19     690     696    -693    -702      19
     789     801    -795    -798      19     774     795    -789    -792      19
     777     801    -780    -783      19     774     780    -777    -786      19
     873     885    -879    -882      19     858     879    -873    -876      19
     861     885    -864    -867      19     858     864    -861    -870      19
     957     969    -963    -966      19     942     963    -957    -960      19
     945     969    -948    -951      19     942     948    -945    -954      19
    1041    1053   -1047   -1050      19    1026    1047   -1041   -1044      19
    1029    1053   -1032   -1035      19    1026    1032   -1029   -1038      19
    1125    1137   -1131   -1134      19    1110    1131   -1125   -1128      19
    1113    1137   -1116   -1119      19    1110    1116   -1113   -1122      19
    1209    1221   -1215   -1218      19    1194    1215   -1209   -1212      19
    1197    1221   -1200   -1203      19    1194    1200   -1197   -1206      19
    1293    1305   -1299   -1302      19    1278    1299   -1293   -1296      19
    1281    1305   -1284   -1287      19    1278    1284   -1281   -1290      19
    1377    1389   -1383   -1386      19    1362    1383   -1377   -1380      19
    1365    1389   -1368   -1371      19    1362    1368   -1365   -1374      19
    1461    1473   -1467   -1470      19    1446    1467   -1461   -1464      19
    1449    1473   -1452   -1455      19    1446    1452   -1449   -1458      19
    1545    1557   -1551   -1554      19    1530    1551   -1545   -1548      19
    1533    1557   -1536   -1539      19    1530    1536   -1533   -1542      19
    1629    1641   -1635   -1638      19    1614    1635   -1629   -1632      19
    1617    1641   -1620   -1623      19    1614    1620   -1617   -1626      19
    1713    1725   -1719   -1722      19    1698    1719   -1713   -1716      19
    1701    1725   -1704   -1707      19    1698    1704   -1701   -1710      19
    1797    1809   -1803   -1806      19    1782    1803   -1797   -1800      19
    1785    1809   -1788   -1791      19    1782    1788   -1785   -1794      19
    1881    1893   -1887   -1890      19    1866    1887   -1881   -1884      19
    1869    1893   -1872   -1875      19    1866    1872   -1869   -1878      19
    1965    1977   -1971   -1974      19    1950    1971   -1965   -1968      19
    1953    1977   -1956   -1959      19    1950    1956   -1953   -1962      19
    2049    2061   -2055   -2058      19    2034    2055   -2049   -2052      19
    2037    2061   -2040   -2043      19    2034    2040   -2037   -2046      19
%FLAG DIHEDRALS_WITHOUT_HYDROGEN                                                
%FORMAT(10I8)                                                                   
      75      84      93      96       4      75      84     -93      96       5
      66      75      84      93       1      57      66      75      84       8
      54      57      66      75       1      51      48      54      57       9
      51      48     -54      57      10      48      54      57      66       4
      48      54     -57      66       5      45      48      54      57      12
      45      48     -54      57      13      45      48     -54      57      14
      39      45      48      51      16      39      45      48      54      17
      33      39      45      48      15      24      21      18      33      15
      24      45     -39      33      15      24      45      48      51      16
      24      45      48      54      17      21      18      33      39      15
      21      24     -45      39      15      21      24      45      48      15
      18      21      24      45      15      18      33     -39      45      15
      15      12      18      21      16      15      12      18      33      16
      12      18      21      24      15      12      18      33      39      15
       9      12      18      21      17       9      12      18      33      17
       0       9      12      15       9       0       9     -12      15      10
       0       9      12      18      12       0       9     -12      18      13
       0       9     -12      18      14     159     168     177     180       4
     159     168    -177     180       5     150     159     168     177       1
     141     150     159     168       8     138     141     150     159       1
     135     132     138     141       9     135     132    -138     141      10
     132     138     141     150       4     132     138    -141     150       5
     129     132     138     141      12     129     132    -138     141      13
     129     132    -138     141      14     123     129     132     135      16
     123     129     132     138      17     117     123     129     132      15
     108     105     102     117      15     108     129    -123     117      15
     108     129     132     135      16     108     129     132     138      17
     105     102     117     123      15     105     108    -129     123      15
     105     108     129     132      15     102     105     108     129      15
     102     117    -123     129      15      99      96     102     105      16
      99      96     102     117      16      96     102     105     108      15
      96     102     117     123      15      93      96     102     105      17
      93      96     102     117      17      84      93      96      99       9
      84      93     -96      99      10      84      93      96     102      12
      84      93     -96     102      13      84      93     -96     102      14
     243     252     261     264       4     243     252    -261     264       5
     234     243     252     261       1     225     234     243     252       8
     222     225     234     243       1     219     216     222     225       9
     219     216    -222     225      10     216     222     225     234       4
     216     222    -225     234       5     213     216     222     225      12
     213     216    -222     225      13     213     216    -222     225      14
     207     213     216     219      16     207     213     216     222      17
     201     207     213     216      15     192     189     186     201      15
     192     213    -207     201      15     192     213     216     219      16
     192     213     216     222      17     189     186     201     207      15
     189     192    -213     207      15     189     192     213     216      15
     186     189     192     213      15     186     201    -207     213      15
     183     180     186     189      16     183     180     186     201      16
     180     186     189     192      15     180     186     201     207      15
     177     180     186     189      17     177     180     186     201      17
     168     177     180     183       9     168     177    -180     183      10
     168     177     180     186      12     168     177    -180     186      13
     168     177    -180     186      14     327     336     345     348       4
     327     336    -345     348       5     318     327     336     345       1
     309     318     327     336       8     306     309     318     327       1
     303     300     306     309       9     303     300    -306     309      10
     300     306     309     318       4     300     306    -309     318       5
     297     300     306     309      12     297     300    -306     309      13
     297     300    -306     309      14     291     297     300     303      16
     291     297     300     306      17     285     291     297     300      15
     276     273     270     285      15     276     297    -291     285      15
     276     297     300     303      16     276     297     300     306      17
     273     270     285     291      15     273     276    -297     291      15
     273     276     297     300      15     270     273     276     297      15
     270     285    -291     297      15     267     264     270     273      16
     267     264     270     285      16     264     270     273     276      15
     264     270     285     291      15     261     264     270     273      17
     261     264     270     285      17     252     261     264     267       9
     252     261    -264     267      10     252     261     264     270      12
     252     261    -264     270      13     252     261    -264     270      14
     411     420     429     432       4     411     420    -429     432       5
     402     411     420     429       1     393     402     411     420       8
     390     393     402     411       1     387     384     390     393       9
     387     384    -390     393      10     384     390     393     402       4
     384     390    -393     402       5     381     384     390     393      12
     381     384    -390     393      13     381     384    -390     393      14
     375     381     384     387      16     375     381     384     390      17
     369     375     381     384      15     360     357     354     369      15
     360     381    -375     369      15     360     381     384     387      16
     360     381     384     390      17     357     354     369     375      15
     357     360    -381     375      15     357     360     381     384      15
     354     357     360     381      15     354     369    -375     381      15
     351     348     354     357      16     351     348     354     369      16
     348     354     357     360      15     348     354     369     375      15
     345     348     354     357      17     345     348     354     369      17
     336     345     348     351       9     336     345    -348     351      10
     336     345     348     354      12     336     345    -348     354      13
     336     345    -348     354      14     495     504     513     516       4
     495     504    -513     516       5     486     495     504     513       1
     477     486     495     504       8     474     477     486     495       1
     471     468     474     477       9     471     468    -474     477      10
     468     474     477     486       4     468     474    -477     486       5
     465     468     474     477      12     465     468    -474     477      13
     465     468    -474     477      14     459     465     468     471      16
     459     465     468     474      17     453     459     465     468      15
     444     441     438     453      15     444     465    -459     453      15
     444     465     468     471      16     444     465     468     474      17
     441     438     453     459      15     441     444    -465     459      15
     441     444     465     468      15     438     441     444     465      15
     438     453    -459     465      15     435     432     438     441      16
     435     432     438     453      16     432     438     441     444      15
     432     438     453     459      15     429     432     438     441      17
     429     432     438     453      17     420     429     432     435       9
     420     429    -432     435      10     420     429     432     438      12
     420     429    -432     438      13     420     429    -432     438      14
     579     588     597     600       4     579     588    -597     600       5
     570     579     588     597       1     561     570     579     588       8
     558     561     570     579       1     555     552     558     561       9
     555     552    -558     561      10     552     558     561     570       4
     552     558    -561     570       5     549     552     558     561      12
     549     552    -558     561      13     549     552    -558     561      14
     543     549     552     555      16     543     549     552     558      17
     537     543     549     552      15     528     525     522     537      15
     528     549    -543     537      15     528     549     552     555      16
     528     549     552     558      17     525     522     537     543      15
     525     528    -549     543      15     525     528     549     552      15
     522     525     528     549      15     522     537    -543     549      15
     519     516     522     525      16     519     516     522     537      16
     516     522     525     528      15     516     522     537     543      15
     513     516     522     525      17     513     516     522     537      17
     504     513     516     519       9     504     513    -516     519      10
     504     513     516     522      12     504     513    -516     522      13
     504     513    -516     522      14     663     672     681     684       4
     663     672    -681     684       5     654     663     672     681       1
     645     654     663     672       8     642     645     654     663       1
     639     636     642     645       9     639     636    -642     645      10
     636     642     645     654       4     636     642    -645     654       5
     633     636     642     645      12     633     636    -642     645      13
     633     636    -642     645      14     627     633     636     639      16
     627     633     636     642      17     621     627     633     636      15
     612     609     606     621      15     612     633    -627     621      15
     612     633     636     639      16     612     633     636     642      17
     609     606     621     627      15     609     612    -633     627      15
     609     612     633     636      15     606     609     612     633      15
     606     621    -627     633      15     603     600     606     609      16
     603     600     606     621      16     600     606     609     612      15
     600     606     621     627      15     597     600     606     609      17
     597     600     606     621      17     588     597     600     603       9
     588     597    -600     603      10     588     597     600     606      12
     588     597    -600     606      13     588     597    -600     606      14
     747     756     765     768       4     747     756    -765     768       5
     738     747     756     765       1     729     738     747     756       8
     726     729     738     747       1     723     720     726     729       9
     723     720    -726     729      10     720     726     729     738       4
     720     726    -729     738       5     717     720     726     729      12
     717     720    -726     729      13     717     720    -726     729      14
     711     717     720     723      16     711     717     720     726      17
     705     711     717     720      15     696     693     690     705      15
     696     717    -711     705      15     696     717     720     723      16
     696     717     720     726      17     693     690     705     711      15
     693     696    -717     711      15     693     696     717     720      15
     690     693     696     717      15     690     705    -711     717      15
     687     684     690     693      16     687     684     690     705      16
     684     690     693     696      15     684     690     705     711      15
     681     684     690     693      17     681     684     690     705      17
     672     681     684     687       9     672     681    -684     687      10
     672     681     684     690      12     672     681    -684     690      13
     672     681    -684     690      14     831     840     849     852       4
     831     840    -849     852       5     822     831     840     849       1
     813     822     831     840       8     810     813     822     831       1
     807     804     810     813       9     807     804    -810     813      10
     804     810     813     822       4     804     810    -813     822       5
     801     804     810     813      12     801     804    -810     813      13
     801     804    -810     813      14     795     801     804     807      16
     795     801     804     810      17     789     795     801     804      15
     780     777     774     789      15     780     801    -795     789      15
     780     801     804     807      16     780     801     804     810      17
     777     774     789     795      15     777     780    -801     795      15
     777     780     801     804      15     774     777     780     801      15
     774     789    -795     801      15     771     768     774     777      16
     771     768     774     789      16     768     774     777     780      15
     768     774     789     795      15     765     768     774     777      17
     765     768     774     789      17     756     765     768     771       9
     756     765    -768     771      10     756     765     768     774      12
     756     765    -768     774      13     756     765    -768     774      14
     915     924     933     936       4     915     924    -933     936       5
     906     915     924     933       1     897     906     915     924       8
     894     897     906     915       1     891     888     894     897       9
     891     888    -894     897      10     888     894     897     906       4
     888     894    -897     906       5     885     888     894     897      12
     885     888    -894     897      13     885     888    -894     897      14
     879     885     888     891      16     879     885     888     894      17
     873     879     885     888      15     864     861     858     873      15
     864     885    -879     873      15     864     885     888     891      16
     864     885     888     894      17     861     858     873     879      15
     861     864    -885     879      15     861     864     885     888      15
     858     861     864     885      15     858     873    -879     885      15
     855     852     858     861      16     855     852     858     873      16
     852     858     861     864      15     852     858     873     879      15
     849     852     858     861      17     849     852     858     873      17
     840     849     852     855       9     840     849    -852     855      10
     840     849     852     858      12     840     849    -852     858      13
     840     849    -852     858      14     999    1008    1017    1020       4
     999    1008   -1017    1020       5     990     999    1008    1017       1
     981     990     999    1008       8     978     981     990     999       1
     975     972     978     981       9     975     972    -978     981      10
     972     978     981     990       4     972     978    -981     990       5
     969     972     978     981      12     969     972    -978     981      13
     969     972    -978     981      14     963     969     972     975      16
     963     969     972     978      17     957     963     969     972      15
     948     945     942     957      15     948     969    -963     957      15
     948     969     972     975      16     948     969     972     978      17
     945     942     957     963      15     945     948    -969     963      15
     945     948     969     972      15     942     945     948     969      15
     942     957    -963     969      15     939     936     942     945      16
     939     936     942     957      16     936     942     945     948      15
     936     942     957     963      15     933     936     942     945      17
     933     936     942     957      17     924     933     936     939       9
     924     933    -936     939      10     924     933     936     942      12
     924     933    -936     942      13     924     933    -936     942      14
    1083    1092    1101    1104       4    1083    1092   -1101    1104       5
    1074    1083    1092    1101       1    1065    1074    1083    1092       8
    1062    1065    1074    1083       1    1059    1056    1062    1065       9
    1059    1056   -1062    1065      10    1056    1062    1065    1074       4
    1056    1062   -1065    1074       5    1053    1056    1062    1065      12
    1053    1056   -1062    1065      13    1053    1056   -1062    1065      14
    1047    1053    1056    1059      16    1047    1053    1056    1062      17
    1041    1047    1053    1056      15    1032    1029    1026    1041      15
    1032    1053   -1047    1041      15    1032    1053    1056    1059      16
    1032    1053    1056    1062      17    1029    1026    1041    1047      15
    1029    1032   -1053    1047      15    1029    1032    1053    1056      15
    1026    1029    1032    1053      15    1026    1041   -1047    1053      15
    1023    1020    1026    1029      16    1023    1020    1026    1041      16
    1020    1026    1029    1032      15    1020    1026    1041    1047      15
    1017    1020    1026    1029      17    1017    1020    1026    1041      17
    1008    1017    1020    1023       9    1008    1017   -1020    1023      10
    1008    1017    1020    1026      12    1008    1017   -1020    1026      13
    1008    1017   -1020    1026      14    1167    1176    1185    1188       4
    1167    1176   -1185    1188       5    1158    1167    1176    1185       1
    1149    1158    1167    1176       8    1146    1149    1158    1167       1
    1143    1140    1146    1149       9    1143    1140   -1146    1149      10
    1140    1146    1149    1158       4    1140    1146   -1149    1158       5
    1137    1140    1146    1149      12    1137    1140   -1146    1149      13
    1137    1140   -1146    1149      14    1131    1137    1140    1143      16
    1131    1137    1140    1146      17    1125    1131    1137    1140      15
    1116    1113    1110    1125      15    1116    1137   -1131    1125      15
    1116    1137    1140    1143      16    1116    1137    1140    1146      17
    1113    1110    1125    1131      15    1113    1116   -1137    1131      15
    1113    1116    1137    1140      15    1110    1113    1116    1137      15
    1110    1125   -1131    1137      15    1107    1104    1110    1113      16
    1107    1104    1110    1125      16    1104    1110    1113    1116      15
    1104    1110    1125    1131      15    1101    1104    1110    1113      17
    1101    1104    1110    1125      17    1092    1101    1104    1107       9
    1092    1101   -1104    1107      10    1092    1101    1104    1110      12
    1092    1101   -1104    1110      13    1092    1101   -1104    1110      14
    1251    1260    1269    1272       4    1251    1260   -1269    1272       5
    1242    1251    1260    1269       1    1233    1242    1251    1260       8
    1230    1233    1242    1251       1    1227    1224    1230    1233       9
    1227    1224   -1230    1233      10    1224    1230    1233    1242       4
    1224    1230   -1233    1242       5    1221    1224    1230    1233      12
    1221    1224   -1230    1233      13    1221    1224   -1230    1233      14
    1215    1221    1224    1227      16    1215    1221    1224    1230      17
    1209    1215    1221    1224      15    1200    1197    1194    1209      15
    1200    1221   -1215    1209      15    1200    1221    1224    1227      16
    1200    1221    1224    1230      17    1197    1194    1209    1215      15
    1197    1200   -1221    1215      15    1197    1200    1221    1224      15
    1194    1197    1200    1221      15    1194    1209   -1215    1221      15
    1191    1188    1194    1197      16    1191    1188    1194    1209      16
    1188    1194    1197    1200      15    1188    1194    1209    1215      15
    1185    1188    1194    1197      17    1185    1188    1194    1209      17
    1176    1185    1188    1191       9    1176    1185   -1188    1191      10
    1176    1185    1188    1194      12    1176    1185   -1188    1194      13
    1176    1185   -1188    1194      14    1335    1344    1353    1356       4
    1335    1344   -1353    1356       5    1326    1335    1344    1353       1
    1317    1326    1335    1344       8    1314    1317    1326    1335       1
    1311    1308    1314    1317       9    1311    1308   -1314    1317      10
    1308    1314    1317    1326       4    1308    1314   -1317    1326       5
    1305    1308    1314    1317      12    1305    1308   -1314    1317      13
    1305    1308   -1314    1317      14    1299    1305    1308    1311      16
    1299    1305    1308    1314      17    1293    1299    1305    1308      15
    1284    1281    1278    1293      15    1284    1305   -1299    1293      15
    1284    1305    1308    1311      16    1284    1305    1308    1314      17
    1281    1278    1293    1299      15    1281    1284   -1305    1299      15
    1281    1284    1305    1308      15    1278    1281    1284    1305      15
    1278    1293   -1299    1305      15    1275    1272    1278    1281      16
    1275    1272    1278    1293      16    1272    1278    1281    1284      15
    1272    1278    1293    1299      15    1269    1272    1278    1281      17
    1269    1272    1278    1293      17    1260    1269    1272    1275       9
    1260    1269   -1272    1275      10    1260    1269    1272    1278      12
    1260    1269   -1272    1278      13    1260    1269   -1272    1278      14
    1419    1428    1437    1440       4    1419    1428   -1437    1440       5
    1410    1419    1428    1437       1    1401    1410    1419    1428       8
    1398    1401    1410    1419       1    1395    1392    1398    1401       9
    1395    1392   -1398    1401      10    1392    1398    1401    1410       4
    1392    1398   -1401    1410       5    1389    1392    1398    1401      12
    1389    1392   -1398    1401      13    1389    1392   -1398    1401      14
    1383    1389    1392    1395      16    1383    1389    1392    1398      17
    1377    1383    1389    1392      15    1368    1365    1362    1377      15
    1368    1389   -1383    1377      15    1368    1389    1392    1395      16
    1368    1389    1392    1398      17    1365    1362    1377    1383      15
    1365    1368   -1389    1383      15    1365    1368    1389    1392      15
    1362    1365    1368    1389      15    1362    1377   -1383    1389      15
    1359    1356    1362    1365      16    1359    1356    1362    1377      16
    1356    1362    1365    1368      15    1356    1362    1377    1383      15
    1353    1356    1362    1365      17    1353    1356    1362    1377      17
    1344    1353    1356    1359       9    1344    1353   -1356    1359      10
    1344    1353    1356    1362      12    1344    1353   -1356    1362      13
    1344    1353   -1356    1362      14    1503    1512    1521    1524       4
    1503    1512   -1521    1524       5    1494    1503    1512    1521       1
    1485    1494    1503    1512       8    1482    1485    1494    1503       1
    1479    1476    1482    1485       9    1479    1476   -1482    1485      10
    1476    1482    1485    1494       4    1476    1482   -1485    1494       5
    1473    1476    1482    1485      12    1473    1476   -1482    1485      13
    1473    1476   -1482    1485      14    1467    1473    1476    1479      16
    1467    1473    1476    1482      17    1461    1467    1473    1476      15
    1452    1449    1446    1461      15    1452    1473   -1467    1461      15
    1452    1473    1476    1479      16    1452    1473    1476    1482      17
    1449    1446    1461    1467      15    1449    1452   -1473    1467      15
    1449    1452    1473    1476      15    1446    1449    1452    1473      15
    1446    1461   -1467    1473      15    1443    1440    1446    1449      16
    1443    1440    1446    1461      16    1440    1446    1449    1452      15
    1440    1446    1461    1467      15    1437    1440    1446    1449      17
    1437    1440    1446    1461      17    1428    1437    1440    1443       9
    1428    1437   -1440    1443      10    1428    1437    1440    1446      12
    1428    1437   -1440    1446      13    1428    1437   -1440    1446      14
    1587    1596    1605    1608       4    1587    1596   -1605    1608       5
    1578    1587    1596    1605       1    1569    1578    1587    1596       8
    1566    1569    1578    1587       1    1563    1560    1566    1569       9
    1563    1560   -1566    1569      10    1560    1566    1569    1578       4
    1560    1566   -1569    1578       5    1557    1560    1566    1569      12
    1557    1560   -1566    1569      13    1557    1560   -1566    1569      14
    1551    1557    1560    1563      16    1551    1557    1560    1566      17
    1545    1551    1557    1560      15    1536    1533    1530    1545      15
    1536    1557   -1551    1545      15    1536    1557    1560    1563      16
    1536    1557    1560    1566      17    1533    1530    1545    1551      15
    1533    1536   -1557    1551      15    1533    1536    1557    1560      15
    1530    1533    1536    1557      15    1530    1545   -1551    1557      15
    1527    1524    1530    1533      16    1527    1524    1530    1545      16
    1524    1530    1533    1536      15    1524    1530    1545    1551      15
    1521    1524    1530    1533      17    1521    1524    1530    1545      17
    1512    1521    1524    1527       9    1512    1521   -1524    1527      10
    1512    1521    1524    1530      12    1512    1521   -1524    1530      13
    1512    1521   -1524    1530      14    1671    1680    1689    1692       4
    1671    1680   -1689    1692       5    1662    1671    1680    1689       1
    1653    1662    1671    1680       8    1650    1653    1662    1671       1
    1647    1644    1650    1653       9    1647    1644   -1650    1653      10
    1644    1650    1653    1662       4    1644    1650   -1653    1662       5
    1641    1644    1650    1653      12    1641    1644   -1650    1653      13
    1641    1644   -1650    1653      14    1635    1641    1644    1647      16
    1635    1641    1644    1650      17    1629    1635    1641    1644      15
    1620    1617    1614    1629      15    1620    1641   -1635    1629      15
    1620    1641    1644    1647      16    1620    1641    1644    1650      17
    1617    1614    1629    1635      15    1617    1620   -1641    1635      15
    1617    1620    1641    1644      15    1614    1617    1620    1641      15
    1614    1629   -1635    1641      15    1611    1608    1614    1617      16
    1611    1608    1614    1629      16    1608    1614    1617    1620      15
    1608    1614    1629    1635      15    1605    1608    1614    1617      17
    1605    1608    1614    1629      17    1596    1605    1608    1611       9
    1596    1605   -1608    1611      10    1596    1605    1608    1614      12
    1596    1605   -1608    1614      13    1596    1605   -1608    1614      14
    1755    1764    1773    1776       4    1755    1764   -1773    1776       5
    1746    1755    1764    1773       1    1737    1746    1755    1764       8
    1734    1737    1746    1755       1    1731    1728    1734    1737       9
    1731    1728   -1734    1737      10    1728    1734    1737    1746       4
    1728    1734   -1737    1746       5    1725    1728    1734    1737      12
    1725    1728   -1734    1737      13    1725    1728   -1734    1737      14
    1719    1725    1728    1731      16    1719    1725    1728    1734      17
    1713    1719    1725    1728      15    1704    1701    1698    1713      15
    1704    1725   -1719    1713      15    1704    1725    1728    1731      16
    1704    1725    1728    1734      17    1701    1698    1713    1719      15
    1701    1704   -1725    1719      15    1701    1704    1725    1728      15
    1698    1701    1704    1725      15    1698    1713   -1719    1725      15
    1695    1692    1698    1701      16    1695    1692    1698    1713      16
    1692    1698    1701    1704      15    1692    1698    1713    1719      15
    1689    1692    1698    1701      17    1689    1692    1698    1713      17
    1680    1689    1692    1695       9    1680    1689   -1692    1695      10
    1680    1689    1692    1698      12    1680    1689   -1692    1698      13
    1680    1689   -1692    1698      14    1839    1848    1857    1860       4
    1839    1848   -1857    1860       5    1830    1839    1848    1857       1
    1821    1830    1839    1848       8    1818    1821    1830    1839       1
    1815    1812    1818    1821       9    1815    1812   -1818    1821      10
    1812    1818    1821    1830       4    1812    1818   -1821    1830       5
    1809    1812    1818    1821      12    1809    1812   -1818    1821      13
    1809    1812   -1818    1821      14    1803    1809    1812    1815      16
    1803    1809    1812    1818      17    1797    1803    1809    1812      15
    1788    1785    1782    1797      15    1788    1809   -1803    1797      15
    1788    1809    1812    1815      16    1788    1809    1812    1818      17
    1785    1782    1797    1803      15    1785    1788   -1809    1803      15
    1785    1788    1809    1812      15    1782    1785    1788    1809      15
    1782    1797   -1803    1809      15    1779    1776    1782    1785      16
    1779    1776    1782    1797      16    1776    1782    1785    1788      15
    1776    1782    1797    1803      15    1773    1776    1782    1785      17
    1773    1776    1782    1797      17    1764    1773    1776    1779       9
    1764    1773   -1776    1779      10    1764    1773    1776    1782      12
    1764    1773   -1776    1782      13    1764    1773   -1776    1782      14
    1923    1932    1941    1944       4    1923    1932   -1941    1944       5
    1914    1923    1932    1941       1    1905    1914    1923    1932       8
    1902    1905    1914    1923       1    1899    1896    1902    1905       9
    1899    1896   -1902    1905      10    1896    1902    1905    1914       4
    1896    1902   -1905    1914       5    1893    1896    1902    1905      12
    1893    1896   -1902    1905      13    1893    1896   -1902    1905      14
    1887    1893    1896    1899      16    1887    1893    1896    1902      17
    1881    1887    1893    1896      15    1872    1869    1866    1881      15
    1872    1893   -1887    1881      15    1872    1893    1896    1899      16
    1872    1893    1896    1902      17    1869    1866    1881    1887      15
    1869    1872   -1893    1887      15    1869    1872    1893    1896      15
    1866    1869    1872    1893      15    1866    1881   -1887    1893      15
    1863    1860    1866    1869      16    1863    1860    1866    1881      16
    1860    1866    1869    1872      15    1860    1866    1881    1887      15
    1857    1860    1866    1869      17    1857    1860    1866    1881      17
    1848    1857    1860    1863       9    1848    1857   -1860    1863      10
    1848    1857    1860    1866      12    1848    1857   -1860    1866      13
    1848    1857   -1860    1866      14    2007    2016    2025    2028       4
    2007    2016   -2025    2028       5    1998    2007    2016    2025       1
    1989    1998    2007    2016       8    1986    1989    1998    2007       1
    1983    1980    1986    1989       9    1983    1980   -1986    1989      10
    1980    1986    1989    1998       4    1980    1986   -1989    1998       5
    1977    1980    1986    1989      12    1977    1980   -1986    1989      13
    1977    1980   -1986    1989      14    1971    1977    1980    1983      16
    1971    1977    1980    1986      17    1965    1971    1977    1980      15
    1956    1953    1950    1965      15    1956    1977   -1971    1965      15
    1956    1977    1980    1983      16    1956    1977    1980    1986      17
    1953    1950    1965    1971      15    1953    1956   -1977    1971      15
    1953    1956    1977    1980      15    1950    1953    1956    1977      15
    1950    1965   -1971    1977      15    1947    1944    1950    1953      16
    1947    1944    1950    1965      16    1944    1950    1953    1956      15
    1944    1950    1965    1971      15    1941    1944    1950    1953      17
    1941    1944    1950    1965      17    1932    1941    1944    1947       9
    1932    1941   -1944    1947      10    1932    1941    1944    1950      12
    1932    1941   -1944    1950      13    1932    1941   -1944    1950      14
    2070    2073    2082    2091       1    2067    2064    2070    2073       9
    2067    2064   -2070    2073      10    2064    2070    2073    2082       4
    2064    2070   -2073    2082       5    2061    2064    2070    2073      12
    2061    2064   -2070    2073      13    2061    2064   -2070    2073      14
    2055    2061    2064    2067      16    2055    2061    2064    2070      17
    2049    2055    2061    2064      15    2040    2037    2034    2049      15
    2040    2061   -2055    2049      15    2040    2061    2064    2067      16
    2040    2061    2064    2070      17    2037    2034    2049    2055      15
    2037    2040   -2061    2055      15    2037    2040    2061    2064      15
    2034    2037    2040    2061      15    2034    2049   -2055    2061      15
    2031    2028    2034    2037      16    2031    2028    2034    2049      16
    2028    2034    2037    2040      15    2028    2034    2049    2055      15
    2025    2028    2034    2037      17    2025    2028    2034    2049      17
    2016    2025    2028    2031       9    2016    2025   -2028    2031      10
    2016    2025    2028    2034      12    2016    2025   -2028    2034      13
    2016    2025   -2028    2034      14      45      54     -48     -51      18
       9      18     -12     -15      18     129     138    -132    -135      18
      93     102     -96     -99      18     213     222    -216    -219      18
     177     186    -180    -183      18     297     306    -300    -303      18
     261     270    -264    -267      18     381     390    -384    -387      18
     345     354    -348    -351      18     465     474    -468    -471      18
     429     438    -432    -435      18     549     558    -552    -555      18
     513     522    -516    -519      18     633     642    -636    -639      18
     597     606    -600    -603      18     717     726    -720    -723      18
     681     690    -684    -687      18     801     810    -804    -807      18
     765     774    -768    -771      18     885     894    -888    -891      18
     849     858    -852    -855      18     969     978    -972    -975      18
     933     942    -936    -939      18    1053    1062   -1056   -1059      18
    1017    1026   -1020   -1023      18    1137    1146   -1140   -1143      18
    1101    1110   -1104   -1107      18    1221    1230   -1224   -1227      18
    1185    1194   -1188   -1191      18    1305    1314   -1308   -1311      18
    1269    1278   -1272   -1275      18    1389    1398   -1392   -1395      18
    1353    1362   -1356   -1359      18    1473    1482   -1476   -1479      18
    1437    1446   -1440   -1443      18    1557    1566   -1560   -1563      18
    1521    1530   -1524   -1527      18    1641    1650   -1644   -1647      18
    1605    1614   -1608   -1611      18    1725    1734   -1728   -1731      18
    1689    1698   -1692   -1695      18    1809    1818   -1812   -1815      18
    1773    1782   -1776   -1779      18    1893    1902   -1896   -1899      18
    1857    1866   -1860   -1863      18    1977    1986   -1980   -1983      18
    1941    1950   -1944   -1947      18    2061    2070   -2064   -2067      18
    2025    2034   -2028   -2031      18
%FLAG EXCLUDED_ATOMS_LIST                                                       
%FORMAT(10I8)                                                                   
       2       3       4       5       6       7       3       4       5       4
       5       5       6       7       8      12       6       7       8       9
      11      12      13      14       7       8      12       8       9      10
      11      12      13      14      15      16       9      10      11      12
      13      14      16      17      10      11      12      14      15      16
      17      18      19      11      14      16      17      12      16      13
      14      15      16      17      14      15      16      15      16      17
      18      19      16      17      17      18      19      20      18      19
      20      21      22      23      19      20      20      21      22      23
      24      25      26      21      22      23      24      25      26      27
      28      29      22      23      24      25      26      23      24      25
      26      24      25      26      27      28      29      30      31      32
      25      26      27      28      29      26      27      28      29      27
      28      29      30      31      32      33      28      29      30      31
      32      29      30      31      32      30      31      32      33      34
      35      31      32      33      32      33      33      34      35      36
      40      34      35      36      37      39      40      41      42      35
      36      40      36      37      38      39      40      41      42      43
      44      37      38      39      40      41      42      44      45      38
      39      40      42      43      44      45      46      47      39      42
      44      45      40      44      41      42      43      44      45      42
      43      44      43      44      45      46      47      44      45      45
      46      47      48      46      47      48      49      50      51      47
      48      48      49      50      51      52      53      54      49      50
      51      52      53      54      55      56      57      50      51      52
      53      54      51      52      53      54      52      53      54      55
      56      57      58      59      60      53      54      55      56      57
      54      55      56      57      55      56      57      58      59      60
      61      56      57      58      59      60      57      58      59      60
      58      59      60      61      62      63      59      60      61      60
      61      61      62      63      64      68      62      63      64      65
      67      68      69      70      63      64      68      64      65      66
      67      68      69      70      71      72      65      66      67      68
      69      70      72      73      66      67      68      70      71      72
      73      74      75      67      70      72      73      68      72      69
      70      71      72      73      70      71      72      71      72      73
      74      75      72      73      73      74      75      76      74      75
      76      77      78      79      75      76      76      77      78      79
      80      81      82      77      78      79      80      81      82      83
      84      85      78      79      80      81      82      79      80      81
      82      80      81      82      83      84      85      86      87      88
      81      82      83      84      85      82      83      84      85      83
      84      85      86      87      88      89      84      85      86      87
      88      85      86      87      88      86      87      88      89      90
      91      87      88      89      88      89      89      90      91      92
      96      90      91      92      93      95      96      97      98      91
      92      96      92      93      94      95      96      97      98      99
     100      93      94      95      96      97      98     100     101      94
      95      96      98      99     100     101     102     103      95      98
     100     101      96     100      97      98      99     100     101      98
      99     100      99     100     101     102     103     100     101     101
     102     103     104     102     103     104     105     106     107     103
     104     104     105     106     107     108     109     110     105     106
     107     108     109     110     111     112     113     106     107     108
     109     110     107     108     109     110     108     109     110     111
     112     113     114     115     116     109     110     111     112     113
     110     111     112     113     111     112     113     114     115     116
     117     112     113     114     115     116     113     114     115     116
     114     115     116     117     118     119     115     116     117     116
     117     117     118     119     120     124     118     119     120     121
     123     124     125     126     119     120     124     120     121     122
     123     124     125     126     127     128     121     122     123     124
     125     126     128     129     122     123     124     126     127     128
     129     130     131     123     126     128     129     124     128     125
     126     127     128     129     126     127     128     127     128     129
     130     131     128     129     129     130     131     132     130     131
     132     133     134     135     131     132     132     133     134     135
     136     137     138     133     134     135     136     137     138     139
     140     141     134     135     136     137     138     135     136     137
     138     136     137     138     139     140     141     142     143     144
     137     138     139     140     141     138     139     140     141     139
     140     141     142     143     144     145     140     141     142     143
     144     141     142     143     144     142     143     144     145     146
     147     143     144     145     144     145     145     146     147     148
     152     146     147     148     149     151     152     153     154     147
     148     152     148     149     150     151     152     153     154     155
     156     149     150     151     152     153     154     156     157     150
     151     152     154     155     156     157     158     159     151     154
     156     157     152     156     153     154     155     156     157     154
     155     156     155     156     157     158     159     156     157     157
     158     159     160     158     159     160     161     162     163     159
     160     160     161     162     163     164     165     166     161     162
     163     164     165     166     167     168     169     162     163     164
     165     166     163     164     165     166     164     165     166     167
     168     169     170     171     172     165     166     167     168     169
     166     167     168     169     167     168     169     170     171     172
     173     168     169     170     171     172     169     170     171     172
     170     171     172     173     174     175     171     172     173     172
     173     173     174     175     176     180     174     175     176     177
     179     180     181     182     175     176     180     176     177     178
     179     180     181     182     183     184     177     178     179     180
     181     182     184     185     178     179     180     182     183     184
     185     186     187     179     182     184     185     180     184     181
     182     183     184     185     182     183     184     183     184     185
     186     187     184     185     185     186     187     188     186     187
     188     189     190     191     187     188     188     189     190     191
     192     193     194     189     190     191     192     193     194     195
     196     197     190     191     192     193     194     191     192     193
     194     192     193     194     195     196     197     198     199     200
     193     194     195     196     197     194     195     196     197     195
     196     197     198     199     200     201     196     197     198     199
     200     197     198     199     200     198     199     200     201     202
     203     199     200     201     200     201     201     202     203     204
     208     202     203     204     205     207     208     209     210     203
     204     208     204     205     206     207     208     209     210     211
     212     205     206     207     208     209     210     212     213     206
     207     208     210     211     212     213     214     215     207     210
     212     213     208     212     209     210     211     212     213     210
     211     212     211     212     213     214     215     212     213     213
     214     215     216     214     215     216     217     218     219     215
     216     216     217     218     219     220     221     222     217     218
     219     220     221     222     223     224     225     218     219     220
     221     222     219     220     221     222     220     221     222     223
     224     225     226     227     228     221     222     223     224     225
     222     223     224     225     223     224     225     226     227     228
     229     224     225     226     227     228     225     226     227     228
     226     227     228     229     230     231     227     228     229     228
     229     229     230     231     232     236     230     231     232     233
     235     236     237     238     231     232     236     232     233     234
     235     236     237     238     239     240     233     234     235     236
     237     238     240     241     234     235     236     238     239     240
     241     242     243     235     238     240     241     236     240     237
     238     239     240     241     238     239     240     239     240     241
     242     243     240     241     241     242     243     244     242     243
     244     245     246     247     243     244     244     245     246     247
     248     249     250     245     246     247     248     249     250     251
     252     253     246     247     248     249     250     247     248     249
     250     248     249     250     251     252     253     254     255     256
     249     250     251     252     253     250     251     252     253     251
     252     253     254     255     256     257     252     253     254     255
     256     253     254     255     256     254     255     256     257     258
     259     255     256     257     256     257     257     258     259     260
     264     258     259     260     261     263     264     265     266     259
     260     264     260     261     262     263     264     265     266     267
     268     261     262     263     264     265     266     268     269     262
     263     264     266     267     268     269     270     271     263     266
     268     269     264     268     265     266     267     268     269     266
     267     268     267     268     269     270     271     268     269     269
     270     271     272     270     271     272     273     274     275     271
     272     272     273     274     275     276     277     278     273     274
     275     276     277     278     279     280     281     274     275     276
     277     278     275     276     277     278     276     277     278     279
     280     281     282     283     284     277     278     279     280     281
     278     279     280     281     279     280     281     282     283     284
     285     280     281     282     283     284     281     282     283     284
     282     283     284     285     286     287     283     284     285     284
     285     285     286     287     288     292     286     287     288     289
     291     292     293     294     287     288     292     288     289     290
     291     292     293     294     295     296     289     290     291     292
     293     294     296     297     290     291     292     294     295     296
     297     298     299     291     294     296     297     292     296     293
     294     295     296     297     294     295     296     295     296     297
     298     299     296     297     297     298     299     300     298     299
     300     301     302     303     299     300     300     301     302     303
     304     305     306     301     302     303     304     305     306     307
     308     309     302     303     304     305     306     303     304     305
     306     304     305     306     307     308     309     310     311     312
     305     306     307     308     309     306     307     308     309     307
     308     309     310     311     312     313     308     309     310     311
     312     309     310     311     312     310     311     312     313     314
     315     311     312     313     312     313     313     314     315     316
     320     314     315     316     317     319     320     321     322     315
     316     320     316     317     318     319     320     321     322     323
     324     317     318     319     320     321     322     324     325     318
     319     320     322     323     324     325     326     327     319     322
     324     325     320     324     321     322     323     324     325     322
     323     324     323     324     325     326     327     324     325     325
     326     327     328     326     327     328     329     330     331     327
     328     328     329     330     331     332     333     334     329     330
     331     332     333     334     335     336     337     330     331     332
     333     334     331     332     333     334     332     333     334     335
     336     337     338     339     340     333     334     335     336     337
     334     335     336     337     335     336     337     338     339     340
     341     336     337     338     339     340     337     338     339     340
     338     339     340     341     342     343     339     340     341     340
     341     341     342     343     344     348     342     343     344     345
     347     348     349     350     343     344     348     344     345     346
     347     348     349     350     351     352     345     346     347     348
     349     350     352     353     346     347     348     350     351     352
     353     354     355     347     350     352     353     348     352     349
     350     351     352     353     350     351     352     351     352     353
     354     355     352     353     353     354     355     356     354     355
     356     357     358     359     355     356     356     357     358     359
     360     361     362     357     358     359     360     361     362     363
     364     365     358     359     360     361     362     359     360     361
     362     360     361     362     363     364     365     366     367     368
     361     362     363     364     365     362     363     364     365     363
     364     365     366     367     368     369     364     365     366     367
     368     365     366     367     368     366     367     368     369     370
     371     367     368     369     368     369     369     370     371     372
     376     370     371     372     373     375     376     377     378     371
     372     376     372     373     374     375     376     377     378     379
     380     373     374     375     376     377     378     380     381     374
     375     376     378     379     380     381     382     383     375     378
     380     381     376     380     377     378     379     380     381     378
     379     380     379     380     381     382     383     380     381     381
     382     383     384     382     383     384     385     386     387     383
     384     384     385     386     387     388     389     390     385     386
     387     388     389     390     391     392     393     386     387     388
     389     390     387     388     389     390     388     389     390     391
     392     393     394     395     396     389     390     391     392     393
     390     391     392     393     391     392     393     394     395     396
     397     392     393     394     395     396     393     394     395     396
     394     395     396     397     398     399     395     396     397     396
     397     397     398     399     400     404     398     399     400     401
     403     404     405     406     399     400     404     400     401     402
     403     404     405     406     407     408     401     402     403     404
     405     406     408     409     402     403     404     406     407     408
     409     410     411     403     406     408     409     404     408     405
     406     407     408     409     406     407     408     407     408     409
     410     411     408     409     409     410     411     412     410     411
     412     413     414     415     411     412     412     413     414     415
     416     417     418     413     414     415     416     417     418     419
     420     421     414     415     416     417     418     415     416     417
     418     416     417     418     419     420     421     422     423     424
     417     418     419     420     421     418     419     420     421     419
     420     421     422     423     424     425     420     421     422     423
     424     421     422     423     424     422     423     424     425     426
     427     423     424     425     424     425     425     426     427     428
     432     426     427     428     429     431     432     433     434     427
     428     432     428     429     430     431     432     433     434     435
     436     429     430     431     432     433     434     436     437     430
     431     432     434     435     436     437     438     439     431     434
     436     437     432     436     433     434     435     436     437     434
     435     436     435     436     437     438     439     436     437     437
     438     439     440     438     439     440     441     442     443     439
     440     440     441     442     443     444     445     446     441     442
     443     444     445     446     447     448     449     442     443     444
     445     446     443     444     445     446     444     445     446     447
     448     449     450     451     452     445     446     447     448     449
     446     447     448     449     447     448     449     450     451     452
     453     448     449     450     451     452     449     450     451     452
     450     451     452     453     454     455     451     452     453     452
     453     453     454     455     456     460     454     455     456     457
     459     460     461     462     455     456     460     456     457     458
     459     460     461     462     463     464     457     458     459     460
     461     462     464     465     458     459     460     462     463     464
     465     466     467     459     462     464     465     460     464     461
     462     463     464     465     462     463     464     463     464     465
     466     467     464     465     465     466     467     468     466     467
     468     469     470     471     467     468     468     469     470     471
     472     473     474     469     470     471     472     473     474     475
     476     477     470     471     472     473     474     471     472     473
     474     472     473     474     475     476     477     478     479     480
     473     474     475     476     477     474     475     476     477     475
     476     477     478     479     480     481     476     477     478     479
     480     477     478     479     480     478     479     480     481     482
     483     479     480     481     480     481     481     482     483     484
     488     482     483     484     485     487     488     489     490     483
     484     488     484     485     486     487     488     489     490     491
     492     485     486     487     488     489     490     492     493     486
     487     488     490     491     492     493     494     495     487     490
     492     493     488     492     489     490     491     492     493     490
     491     492     491     492     493     494     495     492     493     493
     494     495     496     494     495     496     497     498     499     495
     496     496     497     498     499     500     501     502     497     498
     499     500     501     502     503     504     505     498     499     500
     501     502     499     500     501     502     500     501     502     503
     504     505     506     507     508     501     502     503     504     505
     502     503     504     505     503     504     505     506     507     508
     509     504     505     506     507     508     505     506     507     508
     506     507     508     509     510     511     507     508     509     508
     509     509     510     511     512     516     510     511     512     513
     515     516     517     518     511     512     516     512     513     514
     515     516     517     518     519     520     513     514     515     516
     517     518     520     521     514     515     516     518     519     520
     521     522     523     515     518     520     521     516     520     517
     518     519     520     521     518     519     520     519     520     521
     522     523     520     521     521     522     523     524     522     523
     524     525     526     527     523     524     524     525     526     527
     528     529     530     525     526     527     528     529     530     531
     532     533     526     527     528     529     530     527     528     529
     530     528     529     530     531     532     533     534     535     536
     529     530     531     532     533     530     531     532     533     531
     532     533     534     535     536     537     532     533     534     535
     536     533     534     535     536     534     535     536     537     538
     539     535     536     537     536     537     537     538     539     540
     544     538     539     540     541     543     544     545     546     539
     540     544     540     541     542     543     544     545     546     547
     548     541     542     543     544     545     546     548     549     542
     543     544     546     547     548     549     550     551     543     546
     548     549     544     548     545     546     547     548     549     546
     547     548     547     548     549     550     551     548     549     549
     550     551     552     550     551     552     553     554     555     551
     552     552     553     554     555     556     557     558     553     554
     555     556     557     558     559     560     561     554     555     556
     557     558     555     556     557     558     556     557     558     559
     560     561     562     563     564     557     558     559     560     561
     558     559     560     561     559     560     561     562     563     564
     565     560     561     562     563     564     561     562     563     564
     562     563     564     565     566     567     563     564     565     564
     565     565     566     567     568     572     566     567     568     569
     571     572     573     574     567     568     572     568     569     570
     571     572     573     574     575     576     569     570     571     572
     573     574     576     577     570     571     572     574     575     576
     577     578     579     571     574     576     577     572     576     573
     574     575     576     577     574     575     576     575     576     577
     578     579     576     577     577     578     579     580     578     579
     580     581     582     583     579     580     580     581     582     583
     584     585     586     581     582     583     584     585     586     587
     588     589     582     583     584     585     586     583     584     585
     586     584     585     586     587     588     589     590     591     592
     585     586     587     588     589     586     587     588     589     587
     588     589     590     591     592     593     588     589     590     591
     592     589     590     591     592     590     591     592     593     594
     595     591     592     593     592     593     593     594     595     596
     600     594     595     596     597     599     600     601     602     595
     596     600     596     597     598     599     600     601     602     603
     604     597     598     599     600     601     602     604     605     598
     599     600     602     603     604     605     606     607     599     602
     604     605     600     604     601     602     603     604     605     602
     603     604     603     604     605     606     607     604     605     605
     606     607     608     606     607     608     609     610     611     607
     608     608     609     610     611     612     613     614     609     610
     611     612     613     614     615     616     617     610     611     612
     613     614     611     612     613     614     612     613     614     615
     616     617     618     619     620     613     614     615     616     617
     614     615     616     617     615     616     617     618     619     620
     621     616     617     618     619     620     617     618     619     620
     618     619     620     621     622     623     619     620     621     620
     621     621     622     623     624     628     622     623     624     625
     627     628     629     630     623     624     628     624     625     626
     627     628     629     630     631     632     625     626     627     628
     629     630     632     633     626     627     628     630     631     632
     633     634     635     627     630     632     633     628     632     629
     630     631     632     633     630     631     632     631     632     633
     634     635     632     633     633     634     635     636     634     635
     636     637     638     639     635     636     636     637     638     639
     640     641     642     637     638     639     640     641     642     643
     644     645     638     639     640     641     642     639     640     641
     642     640     641     642     643     644     645     646     647     648
     641     642     643     644     645     642     643     644     645     643
     644     645     646     647     648     649     644     645     646     647
     648     645     646     647     648     646     647     648     649     650
     651     647     648     649     648     649     649     650     651     652
     656     650     651     652     653     655     656     657     658     651
     652     656     652     653     654     655     656     657     658     659
     660     653     654     655     656     657     658     660     661     654
     655     656     658     659     660     661     662     663     655     658
     660     661     656     660     657     658     659     660     661     658
     659     660     659     660     661     662     663     660     661     661
     662     663     664     662     663     664     665     666     667     663
     664     664     665     666     667     668     669     670     665     666
     667     668     669     670     671     672     673     666     667     668
     669     670     667     668     669     670     668     669     670     671
     672     673     674     675     676     669     670     671     672     673
     670     671     672     673     671     672     673     674     675     676
     677     672     673     674     675     676     673     674     675     676
     674     675     676     677     678     679     675     676     677     676
     677     677     678     679     680     684     678     679     680     681
     683     684     685     686     679     680     684     680     681     682
     683     684     685     686     687     688     681     682     683     684
     685     686     688     689     682     683     684     686     687     688
     689     690     691     683     686     688     689     684     688     685
     686     687     688     689     686     687     688     687     688     689
     690     691     688     689     689     690     691     692     690     691
     692     693     694     695     691     692     692     693     694     695
     696     697     698     693     694     695     696     697     698     699
     700     694     695     696     697     698     695     696     697     698
     696     697     698     699     700     697     698     699     700     698
     699     700     699     700     700       0
%FLAG HBOND_ACOEF                                                               
%FORMAT(5E16.8)                                                                 

%FLAG HBOND_BCOEF                                                               
%FORMAT(5E16.8)                                                                 

%FLAG HBCUT                                                                     
%FORMAT(5E16.8)                                                                 

%FLAG AMBER_ATOM_TYPE                                                           
%FORMAT(20a4)                                                                   
c3  h1  h1  os  c   o   ca  ca  ca  ha  ha  ca  ha  ca  ha  ca  c   o   os  c3  
h1  h1  c3  hc  hc  c3  hc  hc  c3  h1  h1  os  c   o   ca  ca  ca  ha  ha  ca  
ha  ca  ha  ca  c   o   os  c3  h1  h1  c3  hc  hc  c3  hc  hc  c3  h1  h1  os  
c   o   ca  ca  ca  ha  ha  ca  ha  ca  ha  ca  c   o   os  c3  h1  h1  c3  hc  
hc  c3  hc  hc  c3  h1  h1  os  c   o   ca  ca  ca  ha  ha  ca  ha  ca  ha  ca  
c   o   os  c3  h1  h1  c3  hc  hc  c3  hc  hc  c3  h1  h1  os  c   o   ca  ca  
ca  ha  ha  ca  ha  ca  ha  ca  c   o   os  c3  h1  h1  c3  hc  hc  c3  hc  hc  
c3  h1  h1  os  c   o   ca  ca  ca  ha  ha  ca  ha  ca  ha  ca  c   o   os  c3  
h1  h1  c3  hc  hc  c3  hc  hc  c3  h1  h1  os  c   o   ca  ca  ca  ha  ha  ca  
ha  ca  ha  ca  c   o   os  c3  h1  h1  c3  hc  hc  c3  hc  hc  c3  h1  h1  os  
c   o   ca  ca  ca  ha  ha  ca  ha  ca  ha  ca  c   o   os  c3  h1  h1  c3  hc  
hc  c3  hc  hc  c3  h1  h1  os  c   o   ca  ca  ca  ha  ha  ca  ha  ca  ha  ca  
c   o   os  c3  h1  h1  c3  hc  hc  c3  hc  hc  c3  h1  h1  os  c   o   ca  ca  
ca  ha  ha  ca  ha  ca  ha  ca  c   o   os  c3  h1  h1  c3  hc  hc  c3  hc  hc  
c3  h1  h1  os  c   o   ca  ca  ca  ha  ha  ca  ha  ca  ha  ca  c   o   os  c3  
h1  h1  c3  hc  hc  c3  hc  hc  c3  h1  h1  os  c   o   ca  ca  ca  ha  ha  ca  
ha  ca  ha  ca  c   o   os  c3  h1  h1  c3  hc  hc  c3  hc  hc  c3  h1  h1  os  
c   o   ca  ca  ca  ha  ha  ca  ha  ca  ha  ca  c   o   os  c3  h1  h1  c3  hc  
hc  c3  hc  hc  c3  h1  h1  os  c   o   ca  ca  ca  ha  ha  ca  ha  ca  ha  ca  
c   o   os  c3  h1  h1  c3  hc  hc  c3  hc  hc  c3  h1  h1  os  c   o   ca  ca  
ca  ha  ha  ca  ha  ca  ha  ca  c   o   os  c3  h1  h1  c3  hc  hc  c3  hc  hc  
c3  h1  h1  os  c   o   ca  ca  ca  ha  ha  ca  ha  ca  ha  ca  c   o   os  c3  
h1  h1  c3  hc  hc  c3  hc  hc  c3  h1  h1  os  c   o   ca  ca  ca  ha  ha  ca  
ha  ca  ha  ca  c   o   os  c3  h1  h1  c3  hc  hc  c3  hc  hc  c3  h1  h1  os  
c   o   ca  ca  ca  ha  ha  ca  ha  ca  ha  ca  c   o   os  c3  h1  h1  c3  hc  
hc  c3  hc  hc  c3  h1  h1  os  c   o   ca  ca  ca  ha  ha  ca  ha  ca  ha  ca  
c   o   os  c3  h1  h1  c3  hc  hc  c3  hc  hc  c3  h1  h1  os  c   o   ca  ca  
ca  ha  ha  ca  ha  ca  ha  ca  c   o   os  c3  h1  h1  c3  hc  hc  c3  hc  hc  
c3  h1  h1  os  c   o   ca  ca  ca  ha  ha  ca  ha  ca  ha  ca  c   o   os  c3  
h1  h1  c3  hc  hc  c3  hc  hc  c3  h1  h1  os  c   o   ca  ca  ca  ha  ha  ca  
ha  ca  ha  ca  c   o   os  c3  h1  h1  c3  hc  hc  c3  hc  hc  c3  h1  h1  os  
c   o   ca  ca  ca  ha  ha  ca  ha  ca  ha  ca  c   o   os  c3  h1  h1  c3  hc  
hc  c3  hc  hc  c3  h1  h1  os  c   o   ca  ca  ca  ha  ha  ca  ha  ca  ha  ca  
c   o   os  c3  h1  h1  c3  hc  hc  c3  hc  hc  c3  h1  h1  os  c   o   ca  ca  
ca  ha  ha  ca  ha  ca  ha  ca  c   o   os  c3  h1  h1  c3  hc  hc  c3  hc  hc  
%FLAG TREE_CHAIN_CLASSIFICATION                                                 
%FORMAT(20a4)                                                                   
M   E   E   M   M   E   M   B   S   E   E   M   E   M   E   M   M   E   M   M   
E   E   M   E   E   M   E   E   M   E   E   M   M   E   M   B   S   E   E   M   
E   M   E   M   M   E   M   M   E   E   M   E   E   M   E   E   M   E   E   M   
M   E   M   B   S   E   E   M   E   M   E   M   M   E   M   M   E   E   M   E   
E   M   E   E   M   E   E   M   M   E   M   B   S   E   E   M   E   M   E   M   
M   E   M   M   E   E   M   E   E   M   E   E   M   E   E   M   M   E   M   B   
S   E   E   M   E   M   E   M   M   E   M   M   E   E   M   E   E   M   E   E   
M   E   E   M   M   E   M   B   S   E   E   M   E   M   E   M   M   E   M   M   
E   E   M   E   E   M   E   E   M   E   E   M   M   E   M   B   S   E   E   M   
E   M   E   M   M   E   M   M   E   E   M   E   E   M   E   E   M   E   E   M   
M   E   M   B   S   E   E   M   E   M   E   M   M   E   M   M   E   E   M   E   
E   M   E   E   M   E   E   M   M   E   M   B   S   E   E   M   E   M   E   M   
M   E   M   M   E   E   M   E   E   M   E   E   M   E   E   M   M   E   M   B   
S   E   E   M   E   M   E   M   M   E   M   M   E   E   M   E   E   M   E   E   
M   E   E   M   M   E   M   B   S   E   E   M   E   M   E   M   M   E   M   M   
E   E   M   E   E   M   E   E   M   E   E   M   M   E   M   B   S   E   E   M   
E   M   E   M   M   E   M   M   E   E   M   E   E   M   E   E   M   E   E   M   
M   E   M   B   S   E   E   M   E   M   E   M   M   E   M   M   E   E   M   E   
E   M   E   E   M   E   E   M   M   E   M   B   S   E   E   M   E   M   E   M   
M   E   M   M   E   E   M   E   E   M   E   E   M   E   E   M   M   E   M   B   
S   E   E   M   E   M   E   M   M   E   M   M   E   E   M   E   E   M   E   E   
M   E   E   M   M   E   M   B   S   E   E   M   E   M   E   M   M   E   M   M   
E   E   M   E   E   M   E   E   M   E   E   M   M   E   M   B   S   E   E   M   
E   M   E   M   M   E   M   M   E   E   M   E   E   M   E   E   M   E   E   M   
M   E   M   B   S   E   E   M   E   M   E   M   M   E   M   M   E   E   M   E   
E   M   E   E   M   E   E   M   M   E   M   B   S   E   E   M   E   M   E   M   
M   E   M   M   E   E   M   E   E   M   E   E   M   E   E   M   M   E   M   B   
S   E   E   M   E   M   E   M   M   E   M   M   E   E   M   E   E   M   E   E   
M   E   E   M   M   E   M   B   S   E   E   M   E   M   E   M   M   E   M   M   
E   E   M   E   E   M   E   E   M   E   E   M   M   E   M   B   S   E   E   M   
E   M   E   M   M   E   M   M   E   E   M   E   E   M   E   E   M   E   E   M   
M   E   M   B   S   E   E   M   E   M   E   M   M   E   M   M   E   E   M   E   
E   M   E   E   M   E   E   M   M   E   M   B   S   E   E   M   E   M   E   M   
M   E   M   M   E   E   M   E   E   M   E   E   M   E   E   M   M   E   M   B   
S   E   E   M   E   M   E   M   M   E   M   M   E   E   M   E   E   M   E   E   
%FLAG JOIN_ARRAY                                                                
%FORMAT(10I8)                                                                   
       0       0       0       0       0       0       0       0       0       0
       0       0       0       0       0       0       0       0       0       0
       0       0       0       0       0       0       0       0       0       0
       0       0       0       0       0       0       0       0       0       0
       0       0       0       0       0       0       0       0       0       0
       0       0       0       0       0       0       0       0       0       0
       0       0       0       0       0       0       0       0       0       0
       0       0       0       0       0       0       0       0       0       0
       0       0       0       0       0       0       0       0       0       0
       0       0       0       0       0       0       0       0       0       0
       0       0       0       0       0       0       0       0       0       0
       0       0       0       0       0       0       0       0       0       0
       0       0       0       0       0       0       0       0       0       0
       0       0       0       0       0       0       0       0       0       0
       0       0       0       0       0       0       0       0       0       0
       0       0       0       0       0       0       0       0       0       0
       0       0       0       0       0       0       0       0       0       0
       0       0       0       0       0       0       0       0       0       0
       0       0       0       0       0       0       0       0       0       0
       0       0       0       0       0       0       0       0       0       0
       0       0       0       0       0       0       0       0       0       0
       0       0       0       0       0       0       0       0       0       0
       0       0       0       0       0       0       0       0       0       0
       0       0       0       0       0       0       0       0       0       0
       0       0       0       0       0       0       0       0       0       0
       0       0       0       0       0       0       0       0       0       0
       0       0       0       0       0       0       0       0       0       0
       0       0       0       0       0       0       0       0       0       0
       0       0       0       0       0       0       0       0       0       0
       0       0       0       0       0       0       0       0       0       0
       0       0       0       0       0       0       0       0       0       0
       0       0       0       0       0       0       0       0       0       0
       0       0       0       0       0       0       0       0       0       0
       0       0       0       0       0       0       0       0       0       0
       0       0       0       0       0       0       0       0       0       0
       0       0       0       0       0       0       0       0       0       0
       0       0       0       0       0       0       0       0       0       0
       0       0       0       0       0       0       0       0       0       0
       0       0       0       0       0       0       0       0       0       0
       0       0       0       0       0       0       0       0       0       0
       0       0       0       0       0       0       0       0       0       0
       0       0       0       0       0       0       0       0       0       0
       0       0       0       0       0       0       0       0       0       0
       0       0       0       0       0       0       0       0       0       0
       0       0       0       0       0       0       0       0       0       0
       0       0       0       0       0       0       0       0       0       0
       0       0       0       0       0       0       0       0       0       0
       0       0       0       0       0       0       0       0       0       0
       0       0       0       0       0       0       0       0       0       0
       0       0       0       0       0       0       0       0       0       0
       0       0       0       0       0       0       0       0       0       0
       0       0       0       0       0       0       0       0       0       0
       0       0       0       0       0       0       0       0       0       0
       0       0       0       0       0       0       0       0       0       0
       0       0       0       0       0       0       0       0       0       0
       0       0       0       0       0       0       0       0       0       0
       0       0       0       0       0       0       0       0       0       0
       0       0       0       0       0       0       0       0       0       0
       0       0       0       0       0       0       0       0       0       0
       0       0       0       0       0       0       0       0       0       0
       0       0       0       0       0       0       0       0       0       0
       0       0       0       0       0       0       0       0       0       0
       0       0       0       0       0       0       0       0       0       0
       0       0       0       0       0       0       0       0       0       0
       0       0       0       0       0       0       0       0       0       0
       0       0       0       0       0       0       0       0       0       0
       0       0       0       0       0       0       0       0       0       0
       0       0       0       0       0       0       0       0       0       0
       0       0       0       0       0       0       0       0       0       0
       0       0       0       0       0       0       0       0       0       0
%FLAG IROTAT                                                                    
%FORMAT(10I8)                                                                   
       0       0       0       0       0       0       0       0       0       0
       0       0       0       0       0       0       0       0       0       0
       0       0       0       0       0       0       0       0       0       0
       0       0       0       0       0       0       0       0       0       0
       0       0       0       0       0       0       0       0       0       0
       0       0       0       0       0       0       0       0       0       0
       0       0       0       0       0       0       0       0       0       0
       0       0       0       0       0       0       0       0       0       0
       0       0       0       0       0       0       0       0       0       0
       0       0       0       0       0       0       0       0       0       0
       0       0       0       0       0       0       0       0       0       0
       0       0       0       0       0       0       0       0       0       0
       0       0       0       0       0       0       0       0       0       0
       0       0       0       0       0       0       0       0       0       0
       0       0       0       0       0       0       0       0       0       0
       0       0       0       0       0       0       0       0       0       0
       0       0       0       0       0       0       0       0       0       0
       0       0       0       0       0       0       0       0       0       0
       0       0       0       0       0       0       0       0       0       0
       0       0       0       0       0       0       0       0       0       0
       0       0       0       0       0       0       0       0       0       0
       0       0       0       0       0       0       0       0       0       0
       0       0       0       0       0       0       0       0       0       0
       0       0       0       0       0       0       0       0       0       0
       0       0       0       0       0       0       0       0       0       0
       0       0       0       0       0       0       0       0       0       0
       0       0       0       0       0       0       0       0       0       0
       0       0       0       0       0       0       0       0       0       0
       0       0       0       0       0       0       0       0       0       0
       0       0       0       0       0       0       0       0       0       0
       0       0       0       0       0       0       0       0       0       0
       0       0       0       0       0       0       0       0       0       0
       0       0       0       0       0       0       0       0       0       0
       0       0       0       0       0       0       0       0       0       0
       0       0       0       0       0       0       0       0       0       0
       0       0       0       0       0       0       0       0       0       0
       0       0       0       0       0       0       0       0       0       0
       0       0       0       0       0       0       0       0       0       0
       0       0       0       0       0       0       0       0       0       0
       0       0       0       0       0       0       0       0       0       0
       0       0       0       0       0       0       0       0       0       0
       0       0       0       0       0       0       0       0       0       0
       0       0       0       0       0       0       0       0       0       0
       0       0       0       0       0       0       0       0       0       0
       0       0       0       0       0       0       0       0       0       0
       0       0       0       0       0       0       0       0       0       0
       0       0       0       0       0       0       0       0       0       0
       0       0       0       0       0       0       0       0       0       0
       0       0       0       0       0       0       0       0       0       0
       0       0       0       0       0       0       0       0       0       0
       0       0       0       0       0       0       0       0       0       0
       0       0       0       0       0       0       0       0       0       0
       0       0       0       0       0       0       0       0       0       0
       0       0       0       0       0       0       0       0       0       0
       0       0       0       0       0       0       0       0       0       0
       0       0       0       0       0       0       0       0       0       0
       0       0       0       0       0       0       0       0       0       0
       0       0       0       0       0       0       0       0       0       0
       0       0       0       0       0       0       0       0       0       0
       0       0       0       0       0       0       0       0       0       0
       0       0       0       0       0       0       0       0       0       0
       0       0       0       0       0       0       0       0       0       0
       0       0       0       0       0       0       0       0       0       0
       0       0       0       0       0       0       0       0       0       0
       0       0       0       0       0       0       0       0       0       0
       0       0       0       0       0       0       0       0       0       0
       0       0       0       0       0       0       0       0       0       0
       0       0       0       0       0       0       0       0       0       0
       0       0       0       0       0       0       0       0       0       0
       0       0       0       0       0       0       0       0       0       0
%FLAG RADIUS_SET                                                                
%FORMAT(1a80)                                                                   
modified Bondi radii (mbondi)                                                   
%FLAG RADII                                                                     
%FORMAT(5E16.8)                                                                 
  1.70000000E+00  1.30000000E+00  1.30000000E+00  1.50000000E+00  1.70000000E+00
  1.50000000E+00  1.70000000E+00  1.70000000E+00  1.70000000E+00  1.30000000E+00
  1.30000000E+00  1.70000000E+00  1.30000000E+00  1.70000000E+00  1.30000000E+00
  1.70000000E+00  1.70000000E+00  1.50000000E+00  1.50000000E+00  1.70000000E+00
  1.30000000E+00  1.30000000E+00  1.70000000E+00  1.30000000E+00  1.30000000E+00
  1.70000000E+00  1.30000000E+00  1.30000000E+00  1.70000000E+00  1.30000000E+00
  1.30000000E+00  1.50000000E+00  1.70000000E+00  1.50000000E+00  1.70000000E+00
  1.70000000E+00  1.70000000E+00  1.30000000E+00  1.30000000E+00  1.70000000E+00
  1.30000000E+00  1.70000000E+00  1.30000000E+00  1.70000000E+00  1.70000000E+00
  1.50000000E+00  1.50000000E+00  1.70000000E+00  1.30000000E+00  1.30000000E+00
  1.70000000E+00  1.30000000E+00  1.30000000E+00  1.70000000E+00  1.30000000E+00
  1.30000000E+00  1.70000000E+00  1.30000000E+00  1.30000000E+00  1.50000000E+00
  1.70000000E+00  1.50000000E+00  1.70000000E+00  1.70000000E+00  1.70000000E+00
  1.30000000E+00  1.30000000E+00  1.70000000E+00  1.30000000E+00  1.70000000E+00
  1.30000000E+00  1.70000000E+00  1.70000000E+00  1.50000000E+00  1.50000000E+00
  1.70000000E+00  1.30000000E+00  1.30000000E+00  1.70000000E+00  1.30000000E+00
  1.30000000E+00  1.70000000E+00  1.30000000E+00  1.30000000E+00  1.70000000E+00
  1.30000000E+00  1.30000000E+00  1.50000000E+00  1.70000000E+00  1.50000000E+00
  1.70000000E+00  1.70000000E+00  1.70000000E+00  1.30000000E+00  1.30000000E+00
  1.70000000E+00  1.30000000E+00  1.70000000E+00  1.30000000E+00  1.70000000E+00
  1.70000000E+00  1.50000000E+00  1.50000000E+00  1.70000000E+00  1.30000000E+00
  1.30000000E+00  1.70000000E+00  1.30000000E+00  1.30000000E+00  1.70000000E+00
  1.30000000E+00  1.30000000E+00  1.70000000E+00  1.30000000E+00  1.30000000E+00
  1.50000000E+00  1.70000000E+00  1.50000000E+00  1.70000000E+00  1.70000000E+00
  1.70000000E+00  1.30000000E+00  1.30000000E+00  1.70000000E+00  1.30000000E+00
  1.70000000E+00  1.30000000E+00  1.70000000E+00  1.70000000E+00  1.50000000E+00
  1.50000000E+00  1.70000000E+00  1.30000000E+00  1.30000000E+00  1.70000000E+00
  1.30000000E+00  1.30000000E+00  1.70000000E+00  1.30000000E+00  1.30000000E+00
  1.70000000E+00  1.30000000E+00  1.30000000E+00  1.50000000E+00  1.70000000E+00
  1.50000000E+00  1.70000000E+00  1.70000000E+00  1.70000000E+00  1.30000000E+00
  1.30000000E+00  1.70000000E+00  1.30000000E+00  1.70000000E+00  1.30000000E+00
  1.70000000E+00  1.70000000E+00  1.50000000E+00  1.50000000E+00  1.70000000E+00
  1.30000000E+00  1.30000000E+00  1.70000000E+00  1.30000000E+00  1.30000000E+00
  1.70000000E+00  1.30000000E+00  1.30000000E+00  1.70000000E+00  1.30000000E+00
  1.30000000E+00  1.50000000E+00  1.70000000E+00  1.50000000E+00  1.70000000E+00
  1.70000000E+00  1.70000000E+00  1.30000000E+00  1.30000000E+00  1.70000000E+00
  1.30000000E+00  1.70000000E+00  1.30000000E+00  1.70000000E+00  1.70000000E+00
  1.50000000E+00  1.50000000E+00  1.70000000E+00  1.30000000E+00  1.30000000E+00
  1.70000000E+00  1.30000000E+00  1.30000000E+00  1.70000000E+00  1.30000000E+00
  1.30000000E+00  1.70000000E+00  1.30000000E+00  1.30000000E+00  1.50000000E+00
  1.70000000E+00  1.50000000E+00  1.70000000E+00  1.70000000E+00  1.70000000E+00
  1.30000000E+00  1.30000000E+00  1.70000000E+00  1.30000000E+00  1.70000000E+00
  1.30000000E+00  1.70000000E+00  1.70000000E+00  1.50000000E+00  1.50000000E+00
  1.70000000E+00  1.30000000E+00  1.30000000E+00  1.70000000E+00  1.30000000E+00
  1.30000000E+00  1.70000000E+00  1.30000000E+00  1.30000000E+00  1.70000000E+00
  1.30000000E+00  1.30000000E+00  1.50000000E+00  1.70000000E+00  1.50000000E+00
  1.70000000E+00  1.70000000E+00  1.70000000E+00  1.30000000E+00  1.30000000E+00
  1.70000000E+00  1.30000000E+00  1.70000000E+00  1.30000000E+00  1.70000000E+00
  1.70000000E+00  1.50000000E+00  1.50000000E+00  1.70000000E+00  1.30000000E+00
  1.30000000E+00  1.70000000E+00  1.30000000E+00  1.30000000E+00  1.70000000E+00
  1.30000000E+00  1.30000000E+00  1.70000000E+00  1.30000000E+00  1.30000000E+00
  1.50000000E+00  1.70000000E+00  1.50000000E+00  1.70000000E+00  1.70000000E+00
  1.70000000E+00  1.30000000E+00  1.30000000E+00  1.70000000E+00  1.30000000E+00
  1.70000000E+00  1.30000000E+00  1.70000000E+00  1.70000000E+00  1.50000000E+00
  1.50000000E+00  1.70000000E+00  1.30000000E+00  1.30000000E+00  1.70000000E+00
  1.30000000E+00  1.30000000E+00  1.70000000E+00  1.30000000E+00  1.30000000E+00
  1.70000000E+00  1.30000000E+00  1.30000000E+00  1.50000000E+00  1.70000000E+00
  1.50000000E+00  1.70000000E+00  1.70000000E+00  1.70000000E+00  1.30000000E+00
  1.30000000E+00  1.70000000E+00  1.30000000E+00  1.70000000E+00  1.30000000E+00
  1.70000000E+00  1.70000000E+00  1.50000000E+00  1.50000000E+00  1.70000000E+00
  1.30000000E+00  1.30000000E+00  1.70000000E+00  1.30000000E+00  1.30000000E+00
  1.70000000E+00  1.30000000E+00  1.30000000E+00  1.70000000E+00  1.30000000E+00
  1.30000000E+00  1.50000000E+00  1.70000000E+00  1.50000000E+00  1.70000000E+00
  1.70000000E+00  1.70000000E+00  1.30000000E+00  1.30000000E+00  1.70000000E+00
  1.30000000E+00  1.70000000E+00  1.30000000E+00  1.70000000E+00  1.70000000E+00
  1.50000000E+00  1.50000000E+00  1.70000000E+00  1.30000000E+00  1.30000000E+00
  1.70000000E+00  1.30000000E+00  1.30000000E+00  1.70000000E+00  1.30000000E+00
  1.30000000E+00  1.70000000E+00  1.30000000E+00  1.30000000E+00  1.50000000E+00
  1.70000000E+00  1.50000000E+00  1.70000000E+00  1.70000000E+00  1.70000000E+00
  1.30000000E+00  1.30000000E+00  1.70000000E+00  1.30000000E+00  1.70000000E+00
  1.30000000E+00  1.70000000E+00  1.70000000E+00  1.50000000E+00  1.50000000E+00
  1.70000000E+00  1.30000000E+00  1.30000000E+00  1.70000000E+00  1.30000000E+00
  1.30000000E+00  1.70000000E+00  1.30000000E+00  1.30000000E+00  1.70000000E+00
  1.30000000E+00  1.30000000E+00  1.50000000E+00  1.70000000E+00  1.50000000E+00
  1.70000000E+00  1.70000000E+00  1.70000000E+00  1.30000000E+00  1.30000000E+00
  1.70000000E+00  1.30000000E+00  1.70000000E+00  1.30000000E+00  1.70000000E+00
  1.70000000E+00  1.50000000E+00  1.50000000E+00  1.70000000E+00  1.30000000E+00
  1.30000000E+00  1.70000000E+00  1.30000000E+00  1.30000000E+00  1.70000000E+00
  1.30000000E+00  1.30000000E+00  1.70000000E+00  1.30000000E+00  1.30000000E+00
  1.50000000E+00  1.70000000E+00  1.50000000E+00  1.70000000E+00  1.70000000E+00
  1.70000000E+00  1.30000000E+00  1.30000000E+00  1.70000000E+00  1.30000000E+00
  1.70000000E+00  1.30000000E+00  1.70000000E+00  1.70000000E+00  1.50000000E+00
  1.50000000E+00  1.70000000E+00  1.30000000E+00  1.30000000E+00  1.70000000E+00
  1.30000000E+00  1.30000000E+00  1.70000000E+00  1.30000000E+00  1.30000000E+00
  1.70000000E+00  1.30000000E+00  1.30000000E+00  1.50000000E+00  1.70000000E+00
  1.50000000E+00  1.70000000E+00  1.70000000E+00  1.70000000E+00  1.30000000E+00
  1.30000000E+00  1.70000000E+00  1.30000000E+00  1.70000000E+00  1.30000000E+00
  1.70000000E+00  1.70000000E+00  1.50000000E+00  1.50000000E+00  1.70000000E+00
  1.30000000E+00  1.30000000E+00  1.70000000E+00  1.30000000E+00  1.30000000E+00
  1.70000000E+00  1.30000000E+00  1.30000000E+00  1.70000000E+00  1.30000000E+00
  1.30000000E+00  1.50000000E+00  1.70000000E+00  1.50000000E+00  1.70000000E+00
  1.70000000E+00  1.70000000E+00  1.30000000E+00  1.30000000E+00  1.70000000E+00
  1.30000000E+00  1.70000000E+00  1.30000000E+00  1.70000000E+00  1.70000000E+00
  1.50000000E+00  1.50000000E+00  1.70000000E+00  1.30000000E+00  1.30000000E+00
  1.70000000E+00  1.30000000E+00  1.30000000E+00  1.70000000E+00  1.30000000E+00
  1.30000000E+00  1.70000000E+00  1.30000000E+00  1.30000000E+00  1.50000000E+00
  1.70000000E+00  1.50000000E+00  1.70000000E+00  1.70000000E+00  1.70000000E+00
  1.30000000E+00  1.30000000E+00  1.70000000E+00  1.30000000E+00  1.70000000E+00
  1.30000000E+00  1.70000000E+00  1.70000000E+00  1.50000000E+00  1.50000000E+00
  1.70000000E+00  1.30000000E+00  1.30000000E+00  1.70000000E+00  1.30000000E+00
  1.30000000E+00  1.70000000E+00  1.30000000E+00  1.30000000E+00  1.70000000E+00
  1.30000000E+00  1.30000000E+00  1.50000000E+00  1.70000000E+00  1.50000000E+00
  1.70000000E+00  1.70000000E+00  1.70000000E+00  1.30000000E+00  1.30000000E+00
  1.70000000E+00  1.30000000E+00  1.70000000E+00  1.30000000E+00  1.70000000E+00
  1.70000000E+00  1.50000000E+00  1.50000000E+00  1.70000000E+00  1.30000000E+00
  1.30000000E+00  1.70000000E+00  1.30000000E+00  1.30000000E+00  1.70000000E+00
  1.30000000E+00  1.30000000E+00  1.70000000E+00  1.30000000E+00  1.30000000E+00
  1.50000000E+00  1.70000000E+00  1.50000000E+00  1.70000000E+00  1.70000000E+00
  1.70000000E+00  1.30000000E+00  1.30000000E+00  1.70000000E+00  1.30000000E+00
  1.70000000E+00  1.30000000E+00  1.70000000E+00  1.70000000E+00  1.50000000E+00
  1.50000000E+00  1.70000000E+00  1.30000000E+00  1.30000000E+00  1.70000000E+00
  1.30000000E+00  1.30000000E+00  1.70000000E+00  1.30000000E+00  1.30000000E+00
  1.70000000E+00  1.30000000E+00  1.30000000E+00  1.50000000E+00  1.70000000E+00
  1.50000000E+00  1.70000000E+00  1.70000000E+00  1.70000000E+00  1.30000000E+00
  1.30000000E+00  1.70000000E+00  1.30000000E+00  1.70000000E+00  1.30000000E+00
  1.70000000E+00  1.70000000E+00  1.50000000E+00  1.50000000E+00  1.70000000E+00
  1.30000000E+00  1.30000000E+00  1.70000000E+00  1.30000000E+00  1.30000000E+00
  1.70000000E+00  1.30000000E+00  1.30000000E+00  1.70000000E+00  1.30000000E+00
  1.30000000E+00  1.50000000E+00  1.70000000E+00  1.50000000E+00  1.70000000E+00
  1.70000000E+00  1.70000000E+00  1.30000000E+00  1.30000000E+00  1.70000000E+00
  1.30000000E+00  1.70000000E+00  1.30000000E+00  1.70000000E+00  1.70000000E+00
  1.50000000E+00  1.50000000E+00  1.70000000E+00  1.30000000E+00  1.30000000E+00
  1.70000000E+00  1.30000000E+00  1.30000000E+00  1.70000000E+00  1.30000000E+00
  1.30000000E+00  1.70000000E+00  1.30000000E+00  1.30000000E+00  1.50000000E+00
  1.70000000E+00  1.50000000E+00  1.70000000E+00  1.70000000E+00  1.70000000E+00
  1.30000000E+00  1.30000000E+00  1.70000000E+00  1.30000000E+00  1.70000000E+00
  1.30000000E+00  1.70000000E+00  1.70000000E+00  1.50000000E+00  1.50000000E+00
  1.70000000E+00  1.30000000E+00  1.30000000E+00  1.70000000E+00  1.30000000E+00
  1.30000000E+00  1.70000000E+00  1.30000000E+00  1.30000000E+00  1.70000000E+00
  1.30000000E+00  1.30000000E+00  1.50000000E+00  1.70000000E+00  1.50000000E+00
  1.70000000E+00  1.70000000E+00  1.70000000E+00  1.30000000E+00  1.30000000E+00
  1.70000000E+00  1.30000000E+00  1.70000000E+00  1.30000000E+00  1.70000000E+00
  1.70000000E+00  1.50000000E+00  1.50000000E+00  1.70000000E+00  1.30000000E+00
  1.30000000E+00  1.70000000E+00  1.30000000E+00  1.30000000E+00  1.70000000E+00
  1.30000000E+00  1.30000000E+00  1.70000000E+00  1.30000000E+00  1.30000000E+00
  1.50000000E+00  1.70000000E+00  1.50000000E+00  1.70000000E+00  1.70000000E+00
  1.70000000E+00  1.30000000E+00  1.30000000E+00  1.70000000E+00  1.30000000E+00
  1.70000000E+00  1.30000000E+00  1.70000000E+00  1.70000000E+00  1.50000000E+00
  1.50000000E+00  1.70000000E+00  1.30000000E+00  1.30000000E+00  1.70000000E+00
  1.30000000E+00  1.30000000E+00  1.70000000E+00  1.30000000E+00  1.30000000E+00
%FLAG SCREEN                                                                    
%FORMAT(5E16.8)                                                                 
  7.20000000E-01  8.50000000E-01  8.50000000E-01  8.50000000E-01  7.20000000E-01
  8.50000000E-01  7.20000000E-01  7.20000000E-01  7.20000000E-01  8.50000000E-01
  8.50000000E-01  7.20000000E-01  8.50000000E-01  7.20000000E-01  8.50000000E-01
  7.20000000E-01  7.20000000E-01  8.50000000E-01  8.50000000E-01  7.20000000E-01
  8.50000000E-01  8.50000000E-01  7.20000000E-01  8.50000000E-01  8.50000000E-01
  7.20000000E-01  8.50000000E-01  8.50000000E-01  7.20000000E-01  8.50000000E-01
  8.50000000E-01  8.50000000E-01  7.20000000E-01  8.50000000E-01  7.20000000E-01
  7.20000000E-01  7.20000000E-01  8.50000000E-01  8.50000000E-01  7.20000000E-01
  8.50000000E-01  7.20000000E-01  8.50000000E-01  7.20000000E-01  7.20000000E-01
  8.50000000E-01  8.50000000E-01  7.20000000E-01  8.50000000E-01  8.50000000E-01
  7.20000000E-01  8.50000000E-01  8.50000000E-01  7.20000000E-01  8.50000000E-01
  8.50000000E-01  7.20000000E-01  8.50000000E-01  8.50000000E-01  8.50000000E-01
  7.20000000E-01  8.50000000E-01  7.20000000E-01  7.20000000E-01  7.20000000E-01
  8.50000000E-01  8.50000000E-01  7.20000000E-01  8.50000000E-01  7.20000000E-01
  8.50000000E-01  7.20000000E-01  7.20000000E-01  8.50000000E-01  8.50000000E-01
  7.20000000E-01  8.50000000E-01  8.50000000E-01  7.20000000E-01  8.50000000E-01
  8.50000000E-01  7.20000000E-01  8.50000000E-01  8.50000000E-01  7.20000000E-01
  8.50000000E-01  8.50000000E-01  8.50000000E-01  7.20000000E-01  8.50000000E-01
  7.20000000E-01  7.20000000E-01  7.20000000E-01  8.50000000E-01  8.50000000E-01
  7.20000000E-01  8.50000000E-01  7.20000000E-01  8.50000000E-01  7.20000000E-01
  7.20000000E-01  8.50000000E-01  8.50000000E-01  7.20000000E-01  8.50000000E-01
  8.50000000E-01  7.20000000E-01  8.50000000E-01  8.50000000E-01  7.20000000E-01
  8.50000000E-01  8.50000000E-01  7.20000000E-01  8.50000000E-01  8.50000000E-01
  8.50000000E-01  7.20000000E-01  8.50000000E-01  7.20000000E-01  7.20000000E-01
  7.20000000E-01  8.50000000E-01  8.50000000E-01  7.20000000E-01  8.50000000E-01
  7.20000000E-01  8.50000000E-01  7.20000000E-01  7.20000000E-01  8.50000000E-01
  8.50000000E-01  7.20000000E-01  8.50000000E-01  8.50000000E-01  7.20000000E-01
  8.50000000E-01  8.50000000E-01  7.20000000E-01  8.50000000E-01  8.50000000E-01
  7.20000000E-01  8.50000000E-01  8.50000000E-01  8.50000000E-01  7.20000000E-01
  8.50000000E-01  7.20000000E-01  7.20000000E-01  7.20000000E-01  8.50000000E-01
  8.50000000E-01  7.20000000E-01  8.50000000E-01  7.20000000E-01  8.50000000E-01
  7.20000000E-01  7.20000000E-01  8.50000000E-01  8.50000000E-01  7.20000000E-01
  8.50000000E-01  8.50000000E-01  7.20000000E-01  8.50000000E-01  8.50000000E-01
  7.20000000E-01  8.50000000E-01  8.50000000E-01  7.20000000E-01  8.50000000E-01
  8.50000000E-01  8.50000000E-01  7.20000000E-01  8.50000000E-01  7.20000000E-01
  7.20000000E-01  7.20000000E-01  8.50000000E-01  8.50000000E-01  7.20000000E-01
  8.50000000E-01  7.20000000E-01  8.50000000E-01  7.20000000E-01  7.20000000E-01
  8.50000000E-01  8.50000000E-01  7.20000000E-01  8.50000000E-01  8.50000000E-01
  7.20000000E-01  8.50000000E-01  8.50000000E-01  7.20000000E-01  8.50000000E-01
  8.50000000E-01  7.20000000E-01  8.50000000E-01  8.50000000E-01  8.50000000E-01
  7.20000000E-01  8.50000000E-01  7.20000000E-01  7.20000000E-01  7.20000000E-01
  8.50000000E-01  8.50000000E-01  7.20000000E-01  8.50000000E-01  7.20000000E-01
  8.50000000E-01  7.20000000E-01  7.20000000E-01  8.50000000E-01  8.50000000E-01
  7.20000000E-01  8.50000000E-01  8.50000000E-01  7.20000000E-01  8.50000000E-01
  8.50000000E-01  7.20000000E-01  8.50000000E-01  8.50000000E-01  7.20000000E-01
  8.50000000E-01  8.50000000E-01  8.50000000E-01  7.20000000E-01  8.50000000E-01
  7.20000000E-01  7.20000000E-01  7.20000000E-01  8.50000000E-01  8.50000000E-01
  7.20000000E-01  8.50000000E-01  7.20000000E-01  8.50000000E-01  7.20000000E-01
  7.20000000E-01  8.50000000E-01  8.50000000E-01  7.20000000E-01  8.50000000E-01
  8.50000000E-01  7.20000000E-01  8.50000000E-01  8.50000000E-01  7.20000000E-01
  8.50000000E-01  8.50000000E-01  7.20000000E-01  8.50000000E-01  8.50000000E-01
  8.50000000E-01  7.20000000E-01  8.50000000E-01  7.20000000E-01  7.20000000E-01
  7.20000000E-01  8.50000000E-01  8.50000000E-01  7.20000000E-01  8.50000000E-01
  7.20000000E-01  8.50000000E-01  7.20000000E-01  7.20000000E-01  8.50000000E-01
  8.50000000E-01  7.20000000E-01  8.50000000E-01  8.50000000E-01  7.20000000E-01
  8.50000000E-01  8.50000000E-01  7.20000000E-01  8.50000000E-01  8.50000000E-01
  7.20000000E-01  8.50000000E-01  8.50000000E-01  8.50000000E-01  7.20000000E-01
  8.50000000E-01  7.20000000E-01  7.20000000E-01  7.20000000E-01  8.50000000E-01
  8.50000000E-01  7.20000000E-01  8.50000000E-01  7.20000000E-01  8.50000000E-01
  7.20000000E-01  7.20000000E-01  8.50000000E-01  8.50000000E-01  7.20000000E-01
  8.50000000E-01  8.50000000E-01  7.20000000E-01  8.50000000E-01  8.50000000E-01
  7.20000000E-01  8.50000000E-01  8.50000000E-01  7.20000000E-01  8.50000000E-01
  8.50000000E-01  8.50000000E-01  7.20000000E-01  8.50000000E-01  7.20000000E-01
  7.20000000E-01  7.20000000E-01  8.50000000E-01  8.50000000E-01  7.20000000E-01
  8.50000000E-01  7.20000000E-01  8.50000000E-01  7.20000000E-01  7.20000000E-01
  8.50000000E-01  8.50000000E-01  7.20000000E-01  8.50000000E-01  8.50000000E-01
  7.20000000E-01  8.50000000E-01  8.50000000E-01  7.20000000E-01  8.50000000E-01
  8.50000000E-01  7.20000000E-01  8.50000000E-01  8.50000000E-01  8.50000000E-01
  7.20000000E-01  8.50000000E-01  7.20000000E-01  7.20000000E-01  7.20000000E-01
  8.50000000E-01  8.50000000E-01  7.20000000E-01  8.50000000E-01  7.20000000E-01
  8.50000000E-01  7.20000000E-01  7.20000000E-01  8.50000000E-01  8.50000000E-01
  7.20000000E-01  8.50000000E-01  8.50000000E-01  7.20000000E-01  8.50000000E-01
  8.50000000E-01  7.20000000E-01  8.50000000E-01  8.50000000E-01  7.20000000E-01
  8.50000000E-01  8.50000000E-01  8.50000000E-01  7.20000000E-01  8.50000000E-01
  7.20000000E-01  7.20000000E-01  7.20000000E-01  8.50000000E-01  8.50000000E-01
  7.20000000E-01  8.50000000E-01  7.20000000E-01  8.50000000E-01  7.20000000E-01
  7.20000000E-01  8.50000000E-01  8.50000000E-01  7.20000000E-01  8.50000000E-01
  8.50000000E-01  7.20000000E-01  8.50000000E-01  8.50000000E-01  7.20000000E-01
  8.50000000E-01  8.50000000E-01  7.20000000E-01  8.50000000E-01  8.50000000E-01
  8.50000000E-01  7.20000000E-01  8.50000000E-01  7.20000000E-01  7.20000000E-01
  7.20000000E-01  8.50000000E-01  8.50000000E-01  7.20000000E-01  8.50000000E-01
  7.20000000E-01  8.50000000E-01  7.20000000E-01  7.20000000E-01  8.50000000E-01
  8.50000000E-01  7.20000000E-01  8.50000000E-01  8.50000000E-01  7.20000000E-01
  8.50000000E-01  8.50000000E-01  7.20000000E-01  8.50000000E-01  8.50000000E-01
  7.20000000E-01  8.50000000E-01  8.50000000E-01  8.50000000E-01  7.20000000E-01
  8.50000000E-01  7.20000000E-01  7.20000000E-01  7.20000000E-01  8.50000000E-01
  8.50000000E-01  7.20000000E-01  8.50000000E-01  7.20000000E-01  8.50000000E-01
  7.20000000E-01  7.20000000E-01  8.50000000E-01  8.50000000E-01  7.20000000E-01
  8.50000000E-01  8.50000000E-01  7.20000000E-01  8.50000000E-01  8.50000000E-01
  7.20000000E-01  8.50000000E-01  8.50000000E-01  7.20000000E-01  8.50000000E-01
  8.50000000E-01  8.50000000E-01  7.20000000E-01  8.50000000E-01  7.20000000E-01
  7.20000000E-01  7.20000000E-01  8.50000000E-01  8.50000000E-01  7.20000000E-01
  8.50000000E-01  7.20000000E-01  8.50000000E-01  7.20000000E-01  7.20000000E-01
  8.50000000E-01  8.50000000E-01  7.20000000E-01  8.50000000E-01  8.50000000E-01
  7.20000000E-01  8.50000000E-01  8.50000000E-01  7.20000000E-01  8.50000000E-01
  8.50000000E-01  7.20000000E-01  8.50000000E-01  8.50000000E-01  8.50000000E-01
  7.20000000E-01  8.50000000E-01  7.20000000E-01  7.20000000E-01  7.20000000E-01
  8.50000000E-01  8.50000000E-01  7.20000000E-01  8.50000000E-01  7.20000000E-01
  8.50000000E-01  7.20000000E-01  7.20000000E-01  8.50000000E-01  8.50000000E-01
  7.20000000E-01  8.50000000E-01  8.50000000E-01  7.20000000E-01  8.50000000E-01
  8.50000000E-01  7.20000000E-01  8.50000000E-01  8.50000000E-01  7.20000000E-01
  8.50000000E-01  8.50000000E-01  8.50000000E-01  7.20000000E-01  8.50000000E-01
  7.20000000E-01  7.20000000E-01  7.20000000E-01  8.50000000E-01  8.50000000E-01
  7.20000000E-01  8.50000000E-01  7.20000000E-01  8.50000000E-01  7.20000000E-01
  7.20000000E-01  8.50000000E-01  8.50000000E-01  7.20000000E-01  8.50000000E-01
  8.50000000E-01  7.20000000E-01  8.50000000E-01  8.50000000E-01  7.20000000E-01
  8.50000000E-01  8.50000000E-01  7.20000000E-01  8.50000000E-01  8.50000000E-01
  8.50000000E-01  7.20000000E-01  8.50000000E-01  7.20000000E-01  7.20000000E-01
  7.20000000E-01  8.50000000E-01  8.50000000E-01  7.20000000E-01  8.50000000E-01
  7.20000000E-01  8.50000000E-01  7.20000000E-01  7.20000000E-01  8.50000000E-01
  8.50000000E-01  7.20000000E-01  8.50000000E-01  8.50000000E-01  7.20000000E-01
  8.50000000E-01  8.50000000E-01  7.20000000E-01  8.50000000E-01  8.50000000E-01
  7.20000000E-01  8.50000000E-01  8.50000000E-01  8.50000000E-01  7.20000000E-01
  8.50000000E-01  7.20000000E-01  7.20000000E-01  7.20000000E-01  8.50000000E-01
  8.50000000E-01  7.20000000E-01  8.50000000E-01  7.20000000E-01  8.50000000E-01
  7.20000000E-01  7.20000000E-01  8.50000000E-01  8.50000000E-01  7.20000000E-01
  8.50000000E-01  8.50000000E-01  7.20000000E-01  8.50000000E-01  8.50000000E-01
  7.20000000E-01  8.50000000E-01  8.50000000E-01  7.20000000E-01  8.50000000E-01
  8.50000000E-01  8.50000000E-01  7.20000000E-01  8.50000000E-01  7.20000000E-01
  7.20000000E-01  7.20000000E-01  8.50000000E-01  8.50000000E-01  7.20000000E-01
  8.50000000E-01  7.20000000E-01  8.50000000E-01  7.20000000E-01  7.20000000E-01
  8.50000000E-01  8.50000000E-01  7.20000000E-01  8.50000000E-01  8.50000000E-01
  7.20000000E-01  8.50000000E-01  8.50000000E-01  7.20000000E-01  8.50000000E-01
  8.50000000E-01  7.20000000E-01  8.50000000E-01  8.50000000E-01  8.50000000E-01
  7.20000000E-01  8.50000000E-01  7.20000000E-01  7.20000000E-01  7.20000000E-01
  8.50000000E-01  8.50000000E-01  7.20000000E-01  8.50000000E-01  7.20000000E-01
  8.50000000E-01  7.20000000E-01  7.20000000E-01  8.50000000E-01  8.50000000E-01
  7.20000000E-01  8.50000000E-01  8.50000000E-01  7.20000000E-01  8.50000000E-01
  8.50000000E-01  7.20000000E-01  8.50000000E-01  8.50000000E-01  7.20000000E-01
  8.50000000E-01  8.50000000E-01  8.50000000E-01  7.20000000E-01  8.50000000E-01
  7.20000000E-01  7.20000000E-01  7.20000000E-01  8.50000000E-01  8.50000000E-01
  7.20000000E-01  8.50000000E-01  7.20000000E-01  8.50000000E-01  7.20000000E-01
  7.20000000E-01  8.50000000E-01  8.50000000E-01  7.20000000E-01  8.50000000E-01
  8.50000000E-01  7.20000000E-01  8.50000000E-01  8.50000000E-01  7.20000000E-01
  8.50000000E-01  8.50000000E-01  7.20000000E-01  8.50000000E-01  8.50000000E-01
  8.50000000E-01  7.20000000E-01  8.50000000E-01  7.20000000E-01  7.20000000E-01
  7.20000000E-01  8.50000000E-01  8.50000000E-01  7.20000000E-01  8.50000000E-01
  7.20000000E-01  8.50000000E-01  7.20000000E-01  7.20000000E-01  8.50000000E-01
  8.50000000E-01  7.20000000E-01  8.50000000E-01  8.50000000E-01  7.20000000E-01
  8.50000000E-01  8.50000000E-01  7.20000000E-01  8.50000000E-01  8.50000000E-01
%FLAG IPOL                                                                      
%FORMAT(1I8)                                                                    
       0
