;
;   File /Users/harish/Documents/Work_folder/MetaChem-workshops/polymermd-workshop/Day3-gen-polymer-solved/polymers/PET25_homo/topol.top  was generated
;   By user: harish (501)
;   On host:Mac 
;   At date:Mon. December  1 09:52:34 2025 
;
;   This is a standalone topology file
;
;   Created by:
;   ParmEd:       ipykernel_launcher.py, VERSION4.3.0 
;   Executable:   ipykernel_launcher.py
;   Library dir:  /Users/harish/miniconda3/envs/polymer_md/share/gromacs/top
;   Command line:
;     /Users/harish/miniconda3/envs/polymer_md/lib/python3.12/site-packages/ipykernel_launcher.py --f=/Users/harish/Library/Jupyter/runtime/kernel-v322f24bccc3f1cd820d1847e5d0c18409702f8398.json
;

[ defaults ]
; nbfunc        comb-rule       gen-pairs       fudgeLJ fudgeQQ
1               2               yes             0.5          0.83333333  

[ atomtypes ]
; name    at.num    mass    charge ptype  sigma      epsilon
c3             6  12.010000  0.00000000  A     0.33977095      0.4510352
h1             1   1.008000  0.00000000  A     0.24219973      0.0870272
os             8  16.000000  0.00000000  A     0.31560978      0.3037584
c              6  12.010000  0.00000000  A     0.33152123      0.4133792
o              8  16.000000  0.00000000  A     0.30481209      0.6121192
ca             6  12.010000  0.00000000  A     0.33152123      0.4133792
ha             1   1.008000  0.00000000  A     0.26254785      0.0673624
hc             1   1.008000  0.00000000  A      0.2600177      0.0870272


[ moleculetype ]
; Name            nrexcl
system1          3

[ atoms ]
;   nr       type  resnr residue  atom   cgnr    charge       mass  typeB    chargeB      massB
; residue    1 PET rtp PET q 0.0
    1         c3      1    PET     C9      1 0.12984200  12.010000   ; qtot 0.129842
    2         h1      1    PET     H6      2 0.05392300   1.008000   ; qtot 0.183765
    3         h1      1    PET     H7      3 0.05392300   1.008000   ; qtot 0.237688
    4         os      1    PET     O2      4 -0.43055400  16.000000   ; qtot -0.192866
    5          c      1    PET     C8      5 0.65144800  12.010000   ; qtot 0.458582
    6          o      1    PET     O1      6 -0.52602500  16.000000   ; qtot -0.067443
    7         ca      1    PET     C4      7 -0.10087900  12.010000   ; qtot -0.168322
    8         ca      1    PET     C5      8 -0.08898200  12.010000   ; qtot -0.257304
    9         ca      1    PET     C6      9 -0.08898200  12.010000   ; qtot -0.346286
   10         ha      1    PET     H4     10 0.16624300   1.008000   ; qtot -0.180043
   11         ha      1    PET     H3     11 0.16573400   1.008000   ; qtot -0.014309
   12         ca      1    PET     C3     12 -0.08898200  12.010000   ; qtot -0.103291
   13         ha      1    PET     H2     13 0.16573400   1.008000   ; qtot 0.062443
   14         ca      1    PET     C2     14 -0.08898200  12.010000   ; qtot -0.026539
   15         ha      1    PET     H1     15 0.16624300   1.008000   ; qtot 0.139704
   16         ca      1    PET     C1     16 -0.10087900  12.010000   ; qtot 0.038825
   17          c      1    PET     C7     17 0.65348100  12.010000   ; qtot 0.692306
   18          o      1    PET     O3     18 -0.52897500  16.000000   ; qtot 0.163331
   19         os      1    PET     O4     19 -0.43055400  16.000000   ; qtot -0.267223
   20         c3      1    PET    C10     20 0.14275500  12.010000   ; qtot -0.124468
   21         h1      1    PET     H8     21 0.06629400   1.008000   ; qtot -0.058174
   22         h1      1    PET     H9     22 0.06629400   1.008000   ; qtot 0.008120
   23         c3      1    PET    C11     23 -0.10854800  12.010000   ; qtot -0.100428
   24         hc      1    PET    H10     24 0.05866800   1.008000   ; qtot -0.041760
   25         hc      1    PET    H11     25 0.05866800   1.008000   ; qtot 0.016908
   26         c3      1    PET    C12     26 -0.09153800  12.010000   ; qtot -0.074630
   27         hc      1    PET    H13     27 0.03731600   1.008000   ; qtot -0.037314
   28         hc      1    PET    H14     28 0.03731600   1.008000   ; qtot 0.000002
; residue    2 PET rtp PET q 0.0
   29         c3      2    PET     C9     29 0.12984200  12.010000   ; qtot 0.129844
   30         h1      2    PET     H6     30 0.05392300   1.008000   ; qtot 0.183767
   31         h1      2    PET     H7     31 0.05392300   1.008000   ; qtot 0.237690
   32         os      2    PET     O2     32 -0.43055400  16.000000   ; qtot -0.192864
   33          c      2    PET     C8     33 0.65144800  12.010000   ; qtot 0.458584
   34          o      2    PET     O1     34 -0.52602500  16.000000   ; qtot -0.067441
   35         ca      2    PET     C4     35 -0.10087900  12.010000   ; qtot -0.168320
   36         ca      2    PET     C5     36 -0.08898200  12.010000   ; qtot -0.257302
   37         ca      2    PET     C6     37 -0.08898200  12.010000   ; qtot -0.346284
   38         ha      2    PET     H4     38 0.16624300   1.008000   ; qtot -0.180041
   39         ha      2    PET     H3     39 0.16573400   1.008000   ; qtot -0.014307
   40         ca      2    PET     C3     40 -0.08898200  12.010000   ; qtot -0.103289
   41         ha      2    PET     H2     41 0.16573400   1.008000   ; qtot 0.062445
   42         ca      2    PET     C2     42 -0.08898200  12.010000   ; qtot -0.026537
   43         ha      2    PET     H1     43 0.16624300   1.008000   ; qtot 0.139706
   44         ca      2    PET     C1     44 -0.10087900  12.010000   ; qtot 0.038827
   45          c      2    PET     C7     45 0.65348100  12.010000   ; qtot 0.692308
   46          o      2    PET     O3     46 -0.52897500  16.000000   ; qtot 0.163333
   47         os      2    PET     O4     47 -0.43055400  16.000000   ; qtot -0.267221
   48         c3      2    PET    C10     48 0.14275500  12.010000   ; qtot -0.124466
   49         h1      2    PET     H8     49 0.06629400   1.008000   ; qtot -0.058172
   50         h1      2    PET     H9     50 0.06629400   1.008000   ; qtot 0.008122
   51         c3      2    PET    C11     51 -0.10854800  12.010000   ; qtot -0.100426
   52         hc      2    PET    H10     52 0.05866800   1.008000   ; qtot -0.041758
   53         hc      2    PET    H11     53 0.05866800   1.008000   ; qtot 0.016910
   54         c3      2    PET    C12     54 -0.09153800  12.010000   ; qtot -0.074628
   55         hc      2    PET    H13     55 0.03731600   1.008000   ; qtot -0.037312
   56         hc      2    PET    H14     56 0.03731600   1.008000   ; qtot 0.000004
; residue    3 PET rtp PET q 0.0
   57         c3      3    PET     C9     57 0.12984200  12.010000   ; qtot 0.129846
   58         h1      3    PET     H6     58 0.05392300   1.008000   ; qtot 0.183769
   59         h1      3    PET     H7     59 0.05392300   1.008000   ; qtot 0.237692
   60         os      3    PET     O2     60 -0.43055400  16.000000   ; qtot -0.192862
   61          c      3    PET     C8     61 0.65144800  12.010000   ; qtot 0.458586
   62          o      3    PET     O1     62 -0.52602500  16.000000   ; qtot -0.067439
   63         ca      3    PET     C4     63 -0.10087900  12.010000   ; qtot -0.168318
   64         ca      3    PET     C5     64 -0.08898200  12.010000   ; qtot -0.257300
   65         ca      3    PET     C6     65 -0.08898200  12.010000   ; qtot -0.346282
   66         ha      3    PET     H4     66 0.16624300   1.008000   ; qtot -0.180039
   67         ha      3    PET     H3     67 0.16573400   1.008000   ; qtot -0.014305
   68         ca      3    PET     C3     68 -0.08898200  12.010000   ; qtot -0.103287
   69         ha      3    PET     H2     69 0.16573400   1.008000   ; qtot 0.062447
   70         ca      3    PET     C2     70 -0.08898200  12.010000   ; qtot -0.026535
   71         ha      3    PET     H1     71 0.16624300   1.008000   ; qtot 0.139708
   72         ca      3    PET     C1     72 -0.10087900  12.010000   ; qtot 0.038829
   73          c      3    PET     C7     73 0.65348100  12.010000   ; qtot 0.692310
   74          o      3    PET     O3     74 -0.52897500  16.000000   ; qtot 0.163335
   75         os      3    PET     O4     75 -0.43055400  16.000000   ; qtot -0.267219
   76         c3      3    PET    C10     76 0.14275500  12.010000   ; qtot -0.124464
   77         h1      3    PET     H8     77 0.06629400   1.008000   ; qtot -0.058170
   78         h1      3    PET     H9     78 0.06629400   1.008000   ; qtot 0.008124
   79         c3      3    PET    C11     79 -0.10854800  12.010000   ; qtot -0.100424
   80         hc      3    PET    H10     80 0.05866800   1.008000   ; qtot -0.041756
   81         hc      3    PET    H11     81 0.05866800   1.008000   ; qtot 0.016912
   82         c3      3    PET    C12     82 -0.09153800  12.010000   ; qtot -0.074626
   83         hc      3    PET    H13     83 0.03731600   1.008000   ; qtot -0.037310
   84         hc      3    PET    H14     84 0.03731600   1.008000   ; qtot 0.000006
; residue    4 PET rtp PET q 0.0
   85         c3      4    PET     C9     85 0.12984200  12.010000   ; qtot 0.129848
   86         h1      4    PET     H6     86 0.05392300   1.008000   ; qtot 0.183771
   87         h1      4    PET     H7     87 0.05392300   1.008000   ; qtot 0.237694
   88         os      4    PET     O2     88 -0.43055400  16.000000   ; qtot -0.192860
   89          c      4    PET     C8     89 0.65144800  12.010000   ; qtot 0.458588
   90          o      4    PET     O1     90 -0.52602500  16.000000   ; qtot -0.067437
   91         ca      4    PET     C4     91 -0.10087900  12.010000   ; qtot -0.168316
   92         ca      4    PET     C5     92 -0.08898200  12.010000   ; qtot -0.257298
   93         ca      4    PET     C6     93 -0.08898200  12.010000   ; qtot -0.346280
   94         ha      4    PET     H4     94 0.16624300   1.008000   ; qtot -0.180037
   95         ha      4    PET     H3     95 0.16573400   1.008000   ; qtot -0.014303
   96         ca      4    PET     C3     96 -0.08898200  12.010000   ; qtot -0.103285
   97         ha      4    PET     H2     97 0.16573400   1.008000   ; qtot 0.062449
   98         ca      4    PET     C2     98 -0.08898200  12.010000   ; qtot -0.026533
   99         ha      4    PET     H1     99 0.16624300   1.008000   ; qtot 0.139710
  100         ca      4    PET     C1    100 -0.10087900  12.010000   ; qtot 0.038831
  101          c      4    PET     C7    101 0.65348100  12.010000   ; qtot 0.692312
  102          o      4    PET     O3    102 -0.52897500  16.000000   ; qtot 0.163337
  103         os      4    PET     O4    103 -0.43055400  16.000000   ; qtot -0.267217
  104         c3      4    PET    C10    104 0.14275500  12.010000   ; qtot -0.124462
  105         h1      4    PET     H8    105 0.06629400   1.008000   ; qtot -0.058168
  106         h1      4    PET     H9    106 0.06629400   1.008000   ; qtot 0.008126
  107         c3      4    PET    C11    107 -0.10854800  12.010000   ; qtot -0.100422
  108         hc      4    PET    H10    108 0.05866800   1.008000   ; qtot -0.041754
  109         hc      4    PET    H11    109 0.05866800   1.008000   ; qtot 0.016914
  110         c3      4    PET    C12    110 -0.09153800  12.010000   ; qtot -0.074624
  111         hc      4    PET    H13    111 0.03731600   1.008000   ; qtot -0.037308
  112         hc      4    PET    H14    112 0.03731600   1.008000   ; qtot 0.000008
; residue    5 PET rtp PET q 0.0
  113         c3      5    PET     C9    113 0.12984200  12.010000   ; qtot 0.129850
  114         h1      5    PET     H6    114 0.05392300   1.008000   ; qtot 0.183773
  115         h1      5    PET     H7    115 0.05392300   1.008000   ; qtot 0.237696
  116         os      5    PET     O2    116 -0.43055400  16.000000   ; qtot -0.192858
  117          c      5    PET     C8    117 0.65144800  12.010000   ; qtot 0.458590
  118          o      5    PET     O1    118 -0.52602500  16.000000   ; qtot -0.067435
  119         ca      5    PET     C4    119 -0.10087900  12.010000   ; qtot -0.168314
  120         ca      5    PET     C5    120 -0.08898200  12.010000   ; qtot -0.257296
  121         ca      5    PET     C6    121 -0.08898200  12.010000   ; qtot -0.346278
  122         ha      5    PET     H4    122 0.16624300   1.008000   ; qtot -0.180035
  123         ha      5    PET     H3    123 0.16573400   1.008000   ; qtot -0.014301
  124         ca      5    PET     C3    124 -0.08898200  12.010000   ; qtot -0.103283
  125         ha      5    PET     H2    125 0.16573400   1.008000   ; qtot 0.062451
  126         ca      5    PET     C2    126 -0.08898200  12.010000   ; qtot -0.026531
  127         ha      5    PET     H1    127 0.16624300   1.008000   ; qtot 0.139712
  128         ca      5    PET     C1    128 -0.10087900  12.010000   ; qtot 0.038833
  129          c      5    PET     C7    129 0.65348100  12.010000   ; qtot 0.692314
  130          o      5    PET     O3    130 -0.52897500  16.000000   ; qtot 0.163339
  131         os      5    PET     O4    131 -0.43055400  16.000000   ; qtot -0.267215
  132         c3      5    PET    C10    132 0.14275500  12.010000   ; qtot -0.124460
  133         h1      5    PET     H8    133 0.06629400   1.008000   ; qtot -0.058166
  134         h1      5    PET     H9    134 0.06629400   1.008000   ; qtot 0.008128
  135         c3      5    PET    C11    135 -0.10854800  12.010000   ; qtot -0.100420
  136         hc      5    PET    H10    136 0.05866800   1.008000   ; qtot -0.041752
  137         hc      5    PET    H11    137 0.05866800   1.008000   ; qtot 0.016916
  138         c3      5    PET    C12    138 -0.09153800  12.010000   ; qtot -0.074622
  139         hc      5    PET    H13    139 0.03731600   1.008000   ; qtot -0.037306
  140         hc      5    PET    H14    140 0.03731600   1.008000   ; qtot 0.000010
; residue    6 PET rtp PET q 0.0
  141         c3      6    PET     C9    141 0.12984200  12.010000   ; qtot 0.129852
  142         h1      6    PET     H6    142 0.05392300   1.008000   ; qtot 0.183775
  143         h1      6    PET     H7    143 0.05392300   1.008000   ; qtot 0.237698
  144         os      6    PET     O2    144 -0.43055400  16.000000   ; qtot -0.192856
  145          c      6    PET     C8    145 0.65144800  12.010000   ; qtot 0.458592
  146          o      6    PET     O1    146 -0.52602500  16.000000   ; qtot -0.067433
  147         ca      6    PET     C4    147 -0.10087900  12.010000   ; qtot -0.168312
  148         ca      6    PET     C5    148 -0.08898200  12.010000   ; qtot -0.257294
  149         ca      6    PET     C6    149 -0.08898200  12.010000   ; qtot -0.346276
  150         ha      6    PET     H4    150 0.16624300   1.008000   ; qtot -0.180033
  151         ha      6    PET     H3    151 0.16573400   1.008000   ; qtot -0.014299
  152         ca      6    PET     C3    152 -0.08898200  12.010000   ; qtot -0.103281
  153         ha      6    PET     H2    153 0.16573400   1.008000   ; qtot 0.062453
  154         ca      6    PET     C2    154 -0.08898200  12.010000   ; qtot -0.026529
  155         ha      6    PET     H1    155 0.16624300   1.008000   ; qtot 0.139714
  156         ca      6    PET     C1    156 -0.10087900  12.010000   ; qtot 0.038835
  157          c      6    PET     C7    157 0.65348100  12.010000   ; qtot 0.692316
  158          o      6    PET     O3    158 -0.52897500  16.000000   ; qtot 0.163341
  159         os      6    PET     O4    159 -0.43055400  16.000000   ; qtot -0.267213
  160         c3      6    PET    C10    160 0.14275500  12.010000   ; qtot -0.124458
  161         h1      6    PET     H8    161 0.06629400   1.008000   ; qtot -0.058164
  162         h1      6    PET     H9    162 0.06629400   1.008000   ; qtot 0.008130
  163         c3      6    PET    C11    163 -0.10854800  12.010000   ; qtot -0.100418
  164         hc      6    PET    H10    164 0.05866800   1.008000   ; qtot -0.041750
  165         hc      6    PET    H11    165 0.05866800   1.008000   ; qtot 0.016918
  166         c3      6    PET    C12    166 -0.09153800  12.010000   ; qtot -0.074620
  167         hc      6    PET    H13    167 0.03731600   1.008000   ; qtot -0.037304
  168         hc      6    PET    H14    168 0.03731600   1.008000   ; qtot 0.000012
; residue    7 PET rtp PET q 0.0
  169         c3      7    PET     C9    169 0.12984200  12.010000   ; qtot 0.129854
  170         h1      7    PET     H6    170 0.05392300   1.008000   ; qtot 0.183777
  171         h1      7    PET     H7    171 0.05392300   1.008000   ; qtot 0.237700
  172         os      7    PET     O2    172 -0.43055400  16.000000   ; qtot -0.192854
  173          c      7    PET     C8    173 0.65144800  12.010000   ; qtot 0.458594
  174          o      7    PET     O1    174 -0.52602500  16.000000   ; qtot -0.067431
  175         ca      7    PET     C4    175 -0.10087900  12.010000   ; qtot -0.168310
  176         ca      7    PET     C5    176 -0.08898200  12.010000   ; qtot -0.257292
  177         ca      7    PET     C6    177 -0.08898200  12.010000   ; qtot -0.346274
  178         ha      7    PET     H4    178 0.16624300   1.008000   ; qtot -0.180031
  179         ha      7    PET     H3    179 0.16573400   1.008000   ; qtot -0.014297
  180         ca      7    PET     C3    180 -0.08898200  12.010000   ; qtot -0.103279
  181         ha      7    PET     H2    181 0.16573400   1.008000   ; qtot 0.062455
  182         ca      7    PET     C2    182 -0.08898200  12.010000   ; qtot -0.026527
  183         ha      7    PET     H1    183 0.16624300   1.008000   ; qtot 0.139716
  184         ca      7    PET     C1    184 -0.10087900  12.010000   ; qtot 0.038837
  185          c      7    PET     C7    185 0.65348100  12.010000   ; qtot 0.692318
  186          o      7    PET     O3    186 -0.52897500  16.000000   ; qtot 0.163343
  187         os      7    PET     O4    187 -0.43055400  16.000000   ; qtot -0.267211
  188         c3      7    PET    C10    188 0.14275500  12.010000   ; qtot -0.124456
  189         h1      7    PET     H8    189 0.06629400   1.008000   ; qtot -0.058162
  190         h1      7    PET     H9    190 0.06629400   1.008000   ; qtot 0.008132
  191         c3      7    PET    C11    191 -0.10854800  12.010000   ; qtot -0.100416
  192         hc      7    PET    H10    192 0.05866800   1.008000   ; qtot -0.041748
  193         hc      7    PET    H11    193 0.05866800   1.008000   ; qtot 0.016920
  194         c3      7    PET    C12    194 -0.09153800  12.010000   ; qtot -0.074618
  195         hc      7    PET    H13    195 0.03731600   1.008000   ; qtot -0.037302
  196         hc      7    PET    H14    196 0.03731600   1.008000   ; qtot 0.000014
; residue    8 PET rtp PET q 0.0
  197         c3      8    PET     C9    197 0.12984200  12.010000   ; qtot 0.129856
  198         h1      8    PET     H6    198 0.05392300   1.008000   ; qtot 0.183779
  199         h1      8    PET     H7    199 0.05392300   1.008000   ; qtot 0.237702
  200         os      8    PET     O2    200 -0.43055400  16.000000   ; qtot -0.192852
  201          c      8    PET     C8    201 0.65144800  12.010000   ; qtot 0.458596
  202          o      8    PET     O1    202 -0.52602500  16.000000   ; qtot -0.067429
  203         ca      8    PET     C4    203 -0.10087900  12.010000   ; qtot -0.168308
  204         ca      8    PET     C5    204 -0.08898200  12.010000   ; qtot -0.257290
  205         ca      8    PET     C6    205 -0.08898200  12.010000   ; qtot -0.346272
  206         ha      8    PET     H4    206 0.16624300   1.008000   ; qtot -0.180029
  207         ha      8    PET     H3    207 0.16573400   1.008000   ; qtot -0.014295
  208         ca      8    PET     C3    208 -0.08898200  12.010000   ; qtot -0.103277
  209         ha      8    PET     H2    209 0.16573400   1.008000   ; qtot 0.062457
  210         ca      8    PET     C2    210 -0.08898200  12.010000   ; qtot -0.026525
  211         ha      8    PET     H1    211 0.16624300   1.008000   ; qtot 0.139718
  212         ca      8    PET     C1    212 -0.10087900  12.010000   ; qtot 0.038839
  213          c      8    PET     C7    213 0.65348100  12.010000   ; qtot 0.692320
  214          o      8    PET     O3    214 -0.52897500  16.000000   ; qtot 0.163345
  215         os      8    PET     O4    215 -0.43055400  16.000000   ; qtot -0.267209
  216         c3      8    PET    C10    216 0.14275500  12.010000   ; qtot -0.124454
  217         h1      8    PET     H8    217 0.06629400   1.008000   ; qtot -0.058160
  218         h1      8    PET     H9    218 0.06629400   1.008000   ; qtot 0.008134
  219         c3      8    PET    C11    219 -0.10854800  12.010000   ; qtot -0.100414
  220         hc      8    PET    H10    220 0.05866800   1.008000   ; qtot -0.041746
  221         hc      8    PET    H11    221 0.05866800   1.008000   ; qtot 0.016922
  222         c3      8    PET    C12    222 -0.09153800  12.010000   ; qtot -0.074616
  223         hc      8    PET    H13    223 0.03731600   1.008000   ; qtot -0.037300
  224         hc      8    PET    H14    224 0.03731600   1.008000   ; qtot 0.000016
; residue    9 PET rtp PET q 0.0
  225         c3      9    PET     C9    225 0.12984200  12.010000   ; qtot 0.129858
  226         h1      9    PET     H6    226 0.05392300   1.008000   ; qtot 0.183781
  227         h1      9    PET     H7    227 0.05392300   1.008000   ; qtot 0.237704
  228         os      9    PET     O2    228 -0.43055400  16.000000   ; qtot -0.192850
  229          c      9    PET     C8    229 0.65144800  12.010000   ; qtot 0.458598
  230          o      9    PET     O1    230 -0.52602500  16.000000   ; qtot -0.067427
  231         ca      9    PET     C4    231 -0.10087900  12.010000   ; qtot -0.168306
  232         ca      9    PET     C5    232 -0.08898200  12.010000   ; qtot -0.257288
  233         ca      9    PET     C6    233 -0.08898200  12.010000   ; qtot -0.346270
  234         ha      9    PET     H4    234 0.16624300   1.008000   ; qtot -0.180027
  235         ha      9    PET     H3    235 0.16573400   1.008000   ; qtot -0.014293
  236         ca      9    PET     C3    236 -0.08898200  12.010000   ; qtot -0.103275
  237         ha      9    PET     H2    237 0.16573400   1.008000   ; qtot 0.062459
  238         ca      9    PET     C2    238 -0.08898200  12.010000   ; qtot -0.026523
  239         ha      9    PET     H1    239 0.16624300   1.008000   ; qtot 0.139720
  240         ca      9    PET     C1    240 -0.10087900  12.010000   ; qtot 0.038841
  241          c      9    PET     C7    241 0.65348100  12.010000   ; qtot 0.692322
  242          o      9    PET     O3    242 -0.52897500  16.000000   ; qtot 0.163347
  243         os      9    PET     O4    243 -0.43055400  16.000000   ; qtot -0.267207
  244         c3      9    PET    C10    244 0.14275500  12.010000   ; qtot -0.124452
  245         h1      9    PET     H8    245 0.06629400   1.008000   ; qtot -0.058158
  246         h1      9    PET     H9    246 0.06629400   1.008000   ; qtot 0.008136
  247         c3      9    PET    C11    247 -0.10854800  12.010000   ; qtot -0.100412
  248         hc      9    PET    H10    248 0.05866800   1.008000   ; qtot -0.041744
  249         hc      9    PET    H11    249 0.05866800   1.008000   ; qtot 0.016924
  250         c3      9    PET    C12    250 -0.09153800  12.010000   ; qtot -0.074614
  251         hc      9    PET    H13    251 0.03731600   1.008000   ; qtot -0.037298
  252         hc      9    PET    H14    252 0.03731600   1.008000   ; qtot 0.000018
; residue   10 PET rtp PET q 0.0
  253         c3     10    PET     C9    253 0.12984200  12.010000   ; qtot 0.129860
  254         h1     10    PET     H6    254 0.05392300   1.008000   ; qtot 0.183783
  255         h1     10    PET     H7    255 0.05392300   1.008000   ; qtot 0.237706
  256         os     10    PET     O2    256 -0.43055400  16.000000   ; qtot -0.192848
  257          c     10    PET     C8    257 0.65144800  12.010000   ; qtot 0.458600
  258          o     10    PET     O1    258 -0.52602500  16.000000   ; qtot -0.067425
  259         ca     10    PET     C4    259 -0.10087900  12.010000   ; qtot -0.168304
  260         ca     10    PET     C5    260 -0.08898200  12.010000   ; qtot -0.257286
  261         ca     10    PET     C6    261 -0.08898200  12.010000   ; qtot -0.346268
  262         ha     10    PET     H4    262 0.16624300   1.008000   ; qtot -0.180025
  263         ha     10    PET     H3    263 0.16573400   1.008000   ; qtot -0.014291
  264         ca     10    PET     C3    264 -0.08898200  12.010000   ; qtot -0.103273
  265         ha     10    PET     H2    265 0.16573400   1.008000   ; qtot 0.062461
  266         ca     10    PET     C2    266 -0.08898200  12.010000   ; qtot -0.026521
  267         ha     10    PET     H1    267 0.16624300   1.008000   ; qtot 0.139722
  268         ca     10    PET     C1    268 -0.10087900  12.010000   ; qtot 0.038843
  269          c     10    PET     C7    269 0.65348100  12.010000   ; qtot 0.692324
  270          o     10    PET     O3    270 -0.52897500  16.000000   ; qtot 0.163349
  271         os     10    PET     O4    271 -0.43055400  16.000000   ; qtot -0.267205
  272         c3     10    PET    C10    272 0.14275500  12.010000   ; qtot -0.124450
  273         h1     10    PET     H8    273 0.06629400   1.008000   ; qtot -0.058156
  274         h1     10    PET     H9    274 0.06629400   1.008000   ; qtot 0.008138
  275         c3     10    PET    C11    275 -0.10854800  12.010000   ; qtot -0.100410
  276         hc     10    PET    H10    276 0.05866800   1.008000   ; qtot -0.041742
  277         hc     10    PET    H11    277 0.05866800   1.008000   ; qtot 0.016926
  278         c3     10    PET    C12    278 -0.09153800  12.010000   ; qtot -0.074612
  279         hc     10    PET    H13    279 0.03731600   1.008000   ; qtot -0.037296
  280         hc     10    PET    H14    280 0.03731600   1.008000   ; qtot 0.000020
; residue   11 PET rtp PET q 0.0
  281         c3     11    PET     C9    281 0.12984200  12.010000   ; qtot 0.129862
  282         h1     11    PET     H6    282 0.05392300   1.008000   ; qtot 0.183785
  283         h1     11    PET     H7    283 0.05392300   1.008000   ; qtot 0.237708
  284         os     11    PET     O2    284 -0.43055400  16.000000   ; qtot -0.192846
  285          c     11    PET     C8    285 0.65144800  12.010000   ; qtot 0.458602
  286          o     11    PET     O1    286 -0.52602500  16.000000   ; qtot -0.067423
  287         ca     11    PET     C4    287 -0.10087900  12.010000   ; qtot -0.168302
  288         ca     11    PET     C5    288 -0.08898200  12.010000   ; qtot -0.257284
  289         ca     11    PET     C6    289 -0.08898200  12.010000   ; qtot -0.346266
  290         ha     11    PET     H4    290 0.16624300   1.008000   ; qtot -0.180023
  291         ha     11    PET     H3    291 0.16573400   1.008000   ; qtot -0.014289
  292         ca     11    PET     C3    292 -0.08898200  12.010000   ; qtot -0.103271
  293         ha     11    PET     H2    293 0.16573400   1.008000   ; qtot 0.062463
  294         ca     11    PET     C2    294 -0.08898200  12.010000   ; qtot -0.026519
  295         ha     11    PET     H1    295 0.16624300   1.008000   ; qtot 0.139724
  296         ca     11    PET     C1    296 -0.10087900  12.010000   ; qtot 0.038845
  297          c     11    PET     C7    297 0.65348100  12.010000   ; qtot 0.692326
  298          o     11    PET     O3    298 -0.52897500  16.000000   ; qtot 0.163351
  299         os     11    PET     O4    299 -0.43055400  16.000000   ; qtot -0.267203
  300         c3     11    PET    C10    300 0.14275500  12.010000   ; qtot -0.124448
  301         h1     11    PET     H8    301 0.06629400   1.008000   ; qtot -0.058154
  302         h1     11    PET     H9    302 0.06629400   1.008000   ; qtot 0.008140
  303         c3     11    PET    C11    303 -0.10854800  12.010000   ; qtot -0.100408
  304         hc     11    PET    H10    304 0.05866800   1.008000   ; qtot -0.041740
  305         hc     11    PET    H11    305 0.05866800   1.008000   ; qtot 0.016928
  306         c3     11    PET    C12    306 -0.09153800  12.010000   ; qtot -0.074610
  307         hc     11    PET    H13    307 0.03731600   1.008000   ; qtot -0.037294
  308         hc     11    PET    H14    308 0.03731600   1.008000   ; qtot 0.000022
; residue   12 PET rtp PET q 0.0
  309         c3     12    PET     C9    309 0.12984200  12.010000   ; qtot 0.129864
  310         h1     12    PET     H6    310 0.05392300   1.008000   ; qtot 0.183787
  311         h1     12    PET     H7    311 0.05392300   1.008000   ; qtot 0.237710
  312         os     12    PET     O2    312 -0.43055400  16.000000   ; qtot -0.192844
  313          c     12    PET     C8    313 0.65144800  12.010000   ; qtot 0.458604
  314          o     12    PET     O1    314 -0.52602500  16.000000   ; qtot -0.067421
  315         ca     12    PET     C4    315 -0.10087900  12.010000   ; qtot -0.168300
  316         ca     12    PET     C5    316 -0.08898200  12.010000   ; qtot -0.257282
  317         ca     12    PET     C6    317 -0.08898200  12.010000   ; qtot -0.346264
  318         ha     12    PET     H4    318 0.16624300   1.008000   ; qtot -0.180021
  319         ha     12    PET     H3    319 0.16573400   1.008000   ; qtot -0.014287
  320         ca     12    PET     C3    320 -0.08898200  12.010000   ; qtot -0.103269
  321         ha     12    PET     H2    321 0.16573400   1.008000   ; qtot 0.062465
  322         ca     12    PET     C2    322 -0.08898200  12.010000   ; qtot -0.026517
  323         ha     12    PET     H1    323 0.16624300   1.008000   ; qtot 0.139726
  324         ca     12    PET     C1    324 -0.10087900  12.010000   ; qtot 0.038847
  325          c     12    PET     C7    325 0.65348100  12.010000   ; qtot 0.692328
  326          o     12    PET     O3    326 -0.52897500  16.000000   ; qtot 0.163353
  327         os     12    PET     O4    327 -0.43055400  16.000000   ; qtot -0.267201
  328         c3     12    PET    C10    328 0.14275500  12.010000   ; qtot -0.124446
  329         h1     12    PET     H8    329 0.06629400   1.008000   ; qtot -0.058152
  330         h1     12    PET     H9    330 0.06629400   1.008000   ; qtot 0.008142
  331         c3     12    PET    C11    331 -0.10854800  12.010000   ; qtot -0.100406
  332         hc     12    PET    H10    332 0.05866800   1.008000   ; qtot -0.041738
  333         hc     12    PET    H11    333 0.05866800   1.008000   ; qtot 0.016930
  334         c3     12    PET    C12    334 -0.09153800  12.010000   ; qtot -0.074608
  335         hc     12    PET    H13    335 0.03731600   1.008000   ; qtot -0.037292
  336         hc     12    PET    H14    336 0.03731600   1.008000   ; qtot 0.000024
; residue   13 PET rtp PET q 0.0
  337         c3     13    PET     C9    337 0.12984200  12.010000   ; qtot 0.129866
  338         h1     13    PET     H6    338 0.05392300   1.008000   ; qtot 0.183789
  339         h1     13    PET     H7    339 0.05392300   1.008000   ; qtot 0.237712
  340         os     13    PET     O2    340 -0.43055400  16.000000   ; qtot -0.192842
  341          c     13    PET     C8    341 0.65144800  12.010000   ; qtot 0.458606
  342          o     13    PET     O1    342 -0.52602500  16.000000   ; qtot -0.067419
  343         ca     13    PET     C4    343 -0.10087900  12.010000   ; qtot -0.168298
  344         ca     13    PET     C5    344 -0.08898200  12.010000   ; qtot -0.257280
  345         ca     13    PET     C6    345 -0.08898200  12.010000   ; qtot -0.346262
  346         ha     13    PET     H4    346 0.16624300   1.008000   ; qtot -0.180019
  347         ha     13    PET     H3    347 0.16573400   1.008000   ; qtot -0.014285
  348         ca     13    PET     C3    348 -0.08898200  12.010000   ; qtot -0.103267
  349         ha     13    PET     H2    349 0.16573400   1.008000   ; qtot 0.062467
  350         ca     13    PET     C2    350 -0.08898200  12.010000   ; qtot -0.026515
  351         ha     13    PET     H1    351 0.16624300   1.008000   ; qtot 0.139728
  352         ca     13    PET     C1    352 -0.10087900  12.010000   ; qtot 0.038849
  353          c     13    PET     C7    353 0.65348100  12.010000   ; qtot 0.692330
  354          o     13    PET     O3    354 -0.52897500  16.000000   ; qtot 0.163355
  355         os     13    PET     O4    355 -0.43055400  16.000000   ; qtot -0.267199
  356         c3     13    PET    C10    356 0.14275500  12.010000   ; qtot -0.124444
  357         h1     13    PET     H8    357 0.06629400   1.008000   ; qtot -0.058150
  358         h1     13    PET     H9    358 0.06629400   1.008000   ; qtot 0.008144
  359         c3     13    PET    C11    359 -0.10854800  12.010000   ; qtot -0.100404
  360         hc     13    PET    H10    360 0.05866800   1.008000   ; qtot -0.041736
  361         hc     13    PET    H11    361 0.05866800   1.008000   ; qtot 0.016932
  362         c3     13    PET    C12    362 -0.09153800  12.010000   ; qtot -0.074606
  363         hc     13    PET    H13    363 0.03731600   1.008000   ; qtot -0.037290
  364         hc     13    PET    H14    364 0.03731600   1.008000   ; qtot 0.000026
; residue   14 PET rtp PET q 0.0
  365         c3     14    PET     C9    365 0.12984200  12.010000   ; qtot 0.129868
  366         h1     14    PET     H6    366 0.05392300   1.008000   ; qtot 0.183791
  367         h1     14    PET     H7    367 0.05392300   1.008000   ; qtot 0.237714
  368         os     14    PET     O2    368 -0.43055400  16.000000   ; qtot -0.192840
  369          c     14    PET     C8    369 0.65144800  12.010000   ; qtot 0.458608
  370          o     14    PET     O1    370 -0.52602500  16.000000   ; qtot -0.067417
  371         ca     14    PET     C4    371 -0.10087900  12.010000   ; qtot -0.168296
  372         ca     14    PET     C5    372 -0.08898200  12.010000   ; qtot -0.257278
  373         ca     14    PET     C6    373 -0.08898200  12.010000   ; qtot -0.346260
  374         ha     14    PET     H4    374 0.16624300   1.008000   ; qtot -0.180017
  375         ha     14    PET     H3    375 0.16573400   1.008000   ; qtot -0.014283
  376         ca     14    PET     C3    376 -0.08898200  12.010000   ; qtot -0.103265
  377         ha     14    PET     H2    377 0.16573400   1.008000   ; qtot 0.062469
  378         ca     14    PET     C2    378 -0.08898200  12.010000   ; qtot -0.026513
  379         ha     14    PET     H1    379 0.16624300   1.008000   ; qtot 0.139730
  380         ca     14    PET     C1    380 -0.10087900  12.010000   ; qtot 0.038851
  381          c     14    PET     C7    381 0.65348100  12.010000   ; qtot 0.692332
  382          o     14    PET     O3    382 -0.52897500  16.000000   ; qtot 0.163357
  383         os     14    PET     O4    383 -0.43055400  16.000000   ; qtot -0.267197
  384         c3     14    PET    C10    384 0.14275500  12.010000   ; qtot -0.124442
  385         h1     14    PET     H8    385 0.06629400   1.008000   ; qtot -0.058148
  386         h1     14    PET     H9    386 0.06629400   1.008000   ; qtot 0.008146
  387         c3     14    PET    C11    387 -0.10854800  12.010000   ; qtot -0.100402
  388         hc     14    PET    H10    388 0.05866800   1.008000   ; qtot -0.041734
  389         hc     14    PET    H11    389 0.05866800   1.008000   ; qtot 0.016934
  390         c3     14    PET    C12    390 -0.09153800  12.010000   ; qtot -0.074604
  391         hc     14    PET    H13    391 0.03731600   1.008000   ; qtot -0.037288
  392         hc     14    PET    H14    392 0.03731600   1.008000   ; qtot 0.000028
; residue   15 PET rtp PET q 0.0
  393         c3     15    PET     C9    393 0.12984200  12.010000   ; qtot 0.129870
  394         h1     15    PET     H6    394 0.05392300   1.008000   ; qtot 0.183793
  395         h1     15    PET     H7    395 0.05392300   1.008000   ; qtot 0.237716
  396         os     15    PET     O2    396 -0.43055400  16.000000   ; qtot -0.192838
  397          c     15    PET     C8    397 0.65144800  12.010000   ; qtot 0.458610
  398          o     15    PET     O1    398 -0.52602500  16.000000   ; qtot -0.067415
  399         ca     15    PET     C4    399 -0.10087900  12.010000   ; qtot -0.168294
  400         ca     15    PET     C5    400 -0.08898200  12.010000   ; qtot -0.257276
  401         ca     15    PET     C6    401 -0.08898200  12.010000   ; qtot -0.346258
  402         ha     15    PET     H4    402 0.16624300   1.008000   ; qtot -0.180015
  403         ha     15    PET     H3    403 0.16573400   1.008000   ; qtot -0.014281
  404         ca     15    PET     C3    404 -0.08898200  12.010000   ; qtot -0.103263
  405         ha     15    PET     H2    405 0.16573400   1.008000   ; qtot 0.062471
  406         ca     15    PET     C2    406 -0.08898200  12.010000   ; qtot -0.026511
  407         ha     15    PET     H1    407 0.16624300   1.008000   ; qtot 0.139732
  408         ca     15    PET     C1    408 -0.10087900  12.010000   ; qtot 0.038853
  409          c     15    PET     C7    409 0.65348100  12.010000   ; qtot 0.692334
  410          o     15    PET     O3    410 -0.52897500  16.000000   ; qtot 0.163359
  411         os     15    PET     O4    411 -0.43055400  16.000000   ; qtot -0.267195
  412         c3     15    PET    C10    412 0.14275500  12.010000   ; qtot -0.124440
  413         h1     15    PET     H8    413 0.06629400   1.008000   ; qtot -0.058146
  414         h1     15    PET     H9    414 0.06629400   1.008000   ; qtot 0.008148
  415         c3     15    PET    C11    415 -0.10854800  12.010000   ; qtot -0.100400
  416         hc     15    PET    H10    416 0.05866800   1.008000   ; qtot -0.041732
  417         hc     15    PET    H11    417 0.05866800   1.008000   ; qtot 0.016936
  418         c3     15    PET    C12    418 -0.09153800  12.010000   ; qtot -0.074602
  419         hc     15    PET    H13    419 0.03731600   1.008000   ; qtot -0.037286
  420         hc     15    PET    H14    420 0.03731600   1.008000   ; qtot 0.000030
; residue   16 PET rtp PET q 0.0
  421         c3     16    PET     C9    421 0.12984200  12.010000   ; qtot 0.129872
  422         h1     16    PET     H6    422 0.05392300   1.008000   ; qtot 0.183795
  423         h1     16    PET     H7    423 0.05392300   1.008000   ; qtot 0.237718
  424         os     16    PET     O2    424 -0.43055400  16.000000   ; qtot -0.192836
  425          c     16    PET     C8    425 0.65144800  12.010000   ; qtot 0.458612
  426          o     16    PET     O1    426 -0.52602500  16.000000   ; qtot -0.067413
  427         ca     16    PET     C4    427 -0.10087900  12.010000   ; qtot -0.168292
  428         ca     16    PET     C5    428 -0.08898200  12.010000   ; qtot -0.257274
  429         ca     16    PET     C6    429 -0.08898200  12.010000   ; qtot -0.346256
  430         ha     16    PET     H4    430 0.16624300   1.008000   ; qtot -0.180013
  431         ha     16    PET     H3    431 0.16573400   1.008000   ; qtot -0.014279
  432         ca     16    PET     C3    432 -0.08898200  12.010000   ; qtot -0.103261
  433         ha     16    PET     H2    433 0.16573400   1.008000   ; qtot 0.062473
  434         ca     16    PET     C2    434 -0.08898200  12.010000   ; qtot -0.026509
  435         ha     16    PET     H1    435 0.16624300   1.008000   ; qtot 0.139734
  436         ca     16    PET     C1    436 -0.10087900  12.010000   ; qtot 0.038855
  437          c     16    PET     C7    437 0.65348100  12.010000   ; qtot 0.692336
  438          o     16    PET     O3    438 -0.52897500  16.000000   ; qtot 0.163361
  439         os     16    PET     O4    439 -0.43055400  16.000000   ; qtot -0.267193
  440         c3     16    PET    C10    440 0.14275500  12.010000   ; qtot -0.124438
  441         h1     16    PET     H8    441 0.06629400   1.008000   ; qtot -0.058144
  442         h1     16    PET     H9    442 0.06629400   1.008000   ; qtot 0.008150
  443         c3     16    PET    C11    443 -0.10854800  12.010000   ; qtot -0.100398
  444         hc     16    PET    H10    444 0.05866800   1.008000   ; qtot -0.041730
  445         hc     16    PET    H11    445 0.05866800   1.008000   ; qtot 0.016938
  446         c3     16    PET    C12    446 -0.09153800  12.010000   ; qtot -0.074600
  447         hc     16    PET    H13    447 0.03731600   1.008000   ; qtot -0.037284
  448         hc     16    PET    H14    448 0.03731600   1.008000   ; qtot 0.000032
; residue   17 PET rtp PET q 0.0
  449         c3     17    PET     C9    449 0.12984200  12.010000   ; qtot 0.129874
  450         h1     17    PET     H6    450 0.05392300   1.008000   ; qtot 0.183797
  451         h1     17    PET     H7    451 0.05392300   1.008000   ; qtot 0.237720
  452         os     17    PET     O2    452 -0.43055400  16.000000   ; qtot -0.192834
  453          c     17    PET     C8    453 0.65144800  12.010000   ; qtot 0.458614
  454          o     17    PET     O1    454 -0.52602500  16.000000   ; qtot -0.067411
  455         ca     17    PET     C4    455 -0.10087900  12.010000   ; qtot -0.168290
  456         ca     17    PET     C5    456 -0.08898200  12.010000   ; qtot -0.257272
  457         ca     17    PET     C6    457 -0.08898200  12.010000   ; qtot -0.346254
  458         ha     17    PET     H4    458 0.16624300   1.008000   ; qtot -0.180011
  459         ha     17    PET     H3    459 0.16573400   1.008000   ; qtot -0.014277
  460         ca     17    PET     C3    460 -0.08898200  12.010000   ; qtot -0.103259
  461         ha     17    PET     H2    461 0.16573400   1.008000   ; qtot 0.062475
  462         ca     17    PET     C2    462 -0.08898200  12.010000   ; qtot -0.026507
  463         ha     17    PET     H1    463 0.16624300   1.008000   ; qtot 0.139736
  464         ca     17    PET     C1    464 -0.10087900  12.010000   ; qtot 0.038857
  465          c     17    PET     C7    465 0.65348100  12.010000   ; qtot 0.692338
  466          o     17    PET     O3    466 -0.52897500  16.000000   ; qtot 0.163363
  467         os     17    PET     O4    467 -0.43055400  16.000000   ; qtot -0.267191
  468         c3     17    PET    C10    468 0.14275500  12.010000   ; qtot -0.124436
  469         h1     17    PET     H8    469 0.06629400   1.008000   ; qtot -0.058142
  470         h1     17    PET     H9    470 0.06629400   1.008000   ; qtot 0.008152
  471         c3     17    PET    C11    471 -0.10854800  12.010000   ; qtot -0.100396
  472         hc     17    PET    H10    472 0.05866800   1.008000   ; qtot -0.041728
  473         hc     17    PET    H11    473 0.05866800   1.008000   ; qtot 0.016940
  474         c3     17    PET    C12    474 -0.09153800  12.010000   ; qtot -0.074598
  475         hc     17    PET    H13    475 0.03731600   1.008000   ; qtot -0.037282
  476         hc     17    PET    H14    476 0.03731600   1.008000   ; qtot 0.000034
; residue   18 PET rtp PET q 0.0
  477         c3     18    PET     C9    477 0.12984200  12.010000   ; qtot 0.129876
  478         h1     18    PET     H6    478 0.05392300   1.008000   ; qtot 0.183799
  479         h1     18    PET     H7    479 0.05392300   1.008000   ; qtot 0.237722
  480         os     18    PET     O2    480 -0.43055400  16.000000   ; qtot -0.192832
  481          c     18    PET     C8    481 0.65144800  12.010000   ; qtot 0.458616
  482          o     18    PET     O1    482 -0.52602500  16.000000   ; qtot -0.067409
  483         ca     18    PET     C4    483 -0.10087900  12.010000   ; qtot -0.168288
  484         ca     18    PET     C5    484 -0.08898200  12.010000   ; qtot -0.257270
  485         ca     18    PET     C6    485 -0.08898200  12.010000   ; qtot -0.346252
  486         ha     18    PET     H4    486 0.16624300   1.008000   ; qtot -0.180009
  487         ha     18    PET     H3    487 0.16573400   1.008000   ; qtot -0.014275
  488         ca     18    PET     C3    488 -0.08898200  12.010000   ; qtot -0.103257
  489         ha     18    PET     H2    489 0.16573400   1.008000   ; qtot 0.062477
  490         ca     18    PET     C2    490 -0.08898200  12.010000   ; qtot -0.026505
  491         ha     18    PET     H1    491 0.16624300   1.008000   ; qtot 0.139738
  492         ca     18    PET     C1    492 -0.10087900  12.010000   ; qtot 0.038859
  493          c     18    PET     C7    493 0.65348100  12.010000   ; qtot 0.692340
  494          o     18    PET     O3    494 -0.52897500  16.000000   ; qtot 0.163365
  495         os     18    PET     O4    495 -0.43055400  16.000000   ; qtot -0.267189
  496         c3     18    PET    C10    496 0.14275500  12.010000   ; qtot -0.124434
  497         h1     18    PET     H8    497 0.06629400   1.008000   ; qtot -0.058140
  498         h1     18    PET     H9    498 0.06629400   1.008000   ; qtot 0.008154
  499         c3     18    PET    C11    499 -0.10854800  12.010000   ; qtot -0.100394
  500         hc     18    PET    H10    500 0.05866800   1.008000   ; qtot -0.041726
  501         hc     18    PET    H11    501 0.05866800   1.008000   ; qtot 0.016942
  502         c3     18    PET    C12    502 -0.09153800  12.010000   ; qtot -0.074596
  503         hc     18    PET    H13    503 0.03731600   1.008000   ; qtot -0.037280
  504         hc     18    PET    H14    504 0.03731600   1.008000   ; qtot 0.000036
; residue   19 PET rtp PET q 0.0
  505         c3     19    PET     C9    505 0.12984200  12.010000   ; qtot 0.129878
  506         h1     19    PET     H6    506 0.05392300   1.008000   ; qtot 0.183801
  507         h1     19    PET     H7    507 0.05392300   1.008000   ; qtot 0.237724
  508         os     19    PET     O2    508 -0.43055400  16.000000   ; qtot -0.192830
  509          c     19    PET     C8    509 0.65144800  12.010000   ; qtot 0.458618
  510          o     19    PET     O1    510 -0.52602500  16.000000   ; qtot -0.067407
  511         ca     19    PET     C4    511 -0.10087900  12.010000   ; qtot -0.168286
  512         ca     19    PET     C5    512 -0.08898200  12.010000   ; qtot -0.257268
  513         ca     19    PET     C6    513 -0.08898200  12.010000   ; qtot -0.346250
  514         ha     19    PET     H4    514 0.16624300   1.008000   ; qtot -0.180007
  515         ha     19    PET     H3    515 0.16573400   1.008000   ; qtot -0.014273
  516         ca     19    PET     C3    516 -0.08898200  12.010000   ; qtot -0.103255
  517         ha     19    PET     H2    517 0.16573400   1.008000   ; qtot 0.062479
  518         ca     19    PET     C2    518 -0.08898200  12.010000   ; qtot -0.026503
  519         ha     19    PET     H1    519 0.16624300   1.008000   ; qtot 0.139740
  520         ca     19    PET     C1    520 -0.10087900  12.010000   ; qtot 0.038861
  521          c     19    PET     C7    521 0.65348100  12.010000   ; qtot 0.692342
  522          o     19    PET     O3    522 -0.52897500  16.000000   ; qtot 0.163367
  523         os     19    PET     O4    523 -0.43055400  16.000000   ; qtot -0.267187
  524         c3     19    PET    C10    524 0.14275500  12.010000   ; qtot -0.124432
  525         h1     19    PET     H8    525 0.06629400   1.008000   ; qtot -0.058138
  526         h1     19    PET     H9    526 0.06629400   1.008000   ; qtot 0.008156
  527         c3     19    PET    C11    527 -0.10854800  12.010000   ; qtot -0.100392
  528         hc     19    PET    H10    528 0.05866800   1.008000   ; qtot -0.041724
  529         hc     19    PET    H11    529 0.05866800   1.008000   ; qtot 0.016944
  530         c3     19    PET    C12    530 -0.09153800  12.010000   ; qtot -0.074594
  531         hc     19    PET    H13    531 0.03731600   1.008000   ; qtot -0.037278
  532         hc     19    PET    H14    532 0.03731600   1.008000   ; qtot 0.000038
; residue   20 PET rtp PET q 0.0
  533         c3     20    PET     C9    533 0.12984200  12.010000   ; qtot 0.129880
  534         h1     20    PET     H6    534 0.05392300   1.008000   ; qtot 0.183803
  535         h1     20    PET     H7    535 0.05392300   1.008000   ; qtot 0.237726
  536         os     20    PET     O2    536 -0.43055400  16.000000   ; qtot -0.192828
  537          c     20    PET     C8    537 0.65144800  12.010000   ; qtot 0.458620
  538          o     20    PET     O1    538 -0.52602500  16.000000   ; qtot -0.067405
  539         ca     20    PET     C4    539 -0.10087900  12.010000   ; qtot -0.168284
  540         ca     20    PET     C5    540 -0.08898200  12.010000   ; qtot -0.257266
  541         ca     20    PET     C6    541 -0.08898200  12.010000   ; qtot -0.346248
  542         ha     20    PET     H4    542 0.16624300   1.008000   ; qtot -0.180005
  543         ha     20    PET     H3    543 0.16573400   1.008000   ; qtot -0.014271
  544         ca     20    PET     C3    544 -0.08898200  12.010000   ; qtot -0.103253
  545         ha     20    PET     H2    545 0.16573400   1.008000   ; qtot 0.062481
  546         ca     20    PET     C2    546 -0.08898200  12.010000   ; qtot -0.026501
  547         ha     20    PET     H1    547 0.16624300   1.008000   ; qtot 0.139742
  548         ca     20    PET     C1    548 -0.10087900  12.010000   ; qtot 0.038863
  549          c     20    PET     C7    549 0.65348100  12.010000   ; qtot 0.692344
  550          o     20    PET     O3    550 -0.52897500  16.000000   ; qtot 0.163369
  551         os     20    PET     O4    551 -0.43055400  16.000000   ; qtot -0.267185
  552         c3     20    PET    C10    552 0.14275500  12.010000   ; qtot -0.124430
  553         h1     20    PET     H8    553 0.06629400   1.008000   ; qtot -0.058136
  554         h1     20    PET     H9    554 0.06629400   1.008000   ; qtot 0.008158
  555         c3     20    PET    C11    555 -0.10854800  12.010000   ; qtot -0.100390
  556         hc     20    PET    H10    556 0.05866800   1.008000   ; qtot -0.041722
  557         hc     20    PET    H11    557 0.05866800   1.008000   ; qtot 0.016946
  558         c3     20    PET    C12    558 -0.09153800  12.010000   ; qtot -0.074592
  559         hc     20    PET    H13    559 0.03731600   1.008000   ; qtot -0.037276
  560         hc     20    PET    H14    560 0.03731600   1.008000   ; qtot 0.000040
; residue   21 PET rtp PET q 0.0
  561         c3     21    PET     C9    561 0.12984200  12.010000   ; qtot 0.129882
  562         h1     21    PET     H6    562 0.05392300   1.008000   ; qtot 0.183805
  563         h1     21    PET     H7    563 0.05392300   1.008000   ; qtot 0.237728
  564         os     21    PET     O2    564 -0.43055400  16.000000   ; qtot -0.192826
  565          c     21    PET     C8    565 0.65144800  12.010000   ; qtot 0.458622
  566          o     21    PET     O1    566 -0.52602500  16.000000   ; qtot -0.067403
  567         ca     21    PET     C4    567 -0.10087900  12.010000   ; qtot -0.168282
  568         ca     21    PET     C5    568 -0.08898200  12.010000   ; qtot -0.257264
  569         ca     21    PET     C6    569 -0.08898200  12.010000   ; qtot -0.346246
  570         ha     21    PET     H4    570 0.16624300   1.008000   ; qtot -0.180003
  571         ha     21    PET     H3    571 0.16573400   1.008000   ; qtot -0.014269
  572         ca     21    PET     C3    572 -0.08898200  12.010000   ; qtot -0.103251
  573         ha     21    PET     H2    573 0.16573400   1.008000   ; qtot 0.062483
  574         ca     21    PET     C2    574 -0.08898200  12.010000   ; qtot -0.026499
  575         ha     21    PET     H1    575 0.16624300   1.008000   ; qtot 0.139744
  576         ca     21    PET     C1    576 -0.10087900  12.010000   ; qtot 0.038865
  577          c     21    PET     C7    577 0.65348100  12.010000   ; qtot 0.692346
  578          o     21    PET     O3    578 -0.52897500  16.000000   ; qtot 0.163371
  579         os     21    PET     O4    579 -0.43055400  16.000000   ; qtot -0.267183
  580         c3     21    PET    C10    580 0.14275500  12.010000   ; qtot -0.124428
  581         h1     21    PET     H8    581 0.06629400   1.008000   ; qtot -0.058134
  582         h1     21    PET     H9    582 0.06629400   1.008000   ; qtot 0.008160
  583         c3     21    PET    C11    583 -0.10854800  12.010000   ; qtot -0.100388
  584         hc     21    PET    H10    584 0.05866800   1.008000   ; qtot -0.041720
  585         hc     21    PET    H11    585 0.05866800   1.008000   ; qtot 0.016948
  586         c3     21    PET    C12    586 -0.09153800  12.010000   ; qtot -0.074590
  587         hc     21    PET    H13    587 0.03731600   1.008000   ; qtot -0.037274
  588         hc     21    PET    H14    588 0.03731600   1.008000   ; qtot 0.000042
; residue   22 PET rtp PET q 0.0
  589         c3     22    PET     C9    589 0.12984200  12.010000   ; qtot 0.129884
  590         h1     22    PET     H6    590 0.05392300   1.008000   ; qtot 0.183807
  591         h1     22    PET     H7    591 0.05392300   1.008000   ; qtot 0.237730
  592         os     22    PET     O2    592 -0.43055400  16.000000   ; qtot -0.192824
  593          c     22    PET     C8    593 0.65144800  12.010000   ; qtot 0.458624
  594          o     22    PET     O1    594 -0.52602500  16.000000   ; qtot -0.067401
  595         ca     22    PET     C4    595 -0.10087900  12.010000   ; qtot -0.168280
  596         ca     22    PET     C5    596 -0.08898200  12.010000   ; qtot -0.257262
  597         ca     22    PET     C6    597 -0.08898200  12.010000   ; qtot -0.346244
  598         ha     22    PET     H4    598 0.16624300   1.008000   ; qtot -0.180001
  599         ha     22    PET     H3    599 0.16573400   1.008000   ; qtot -0.014267
  600         ca     22    PET     C3    600 -0.08898200  12.010000   ; qtot -0.103249
  601         ha     22    PET     H2    601 0.16573400   1.008000   ; qtot 0.062485
  602         ca     22    PET     C2    602 -0.08898200  12.010000   ; qtot -0.026497
  603         ha     22    PET     H1    603 0.16624300   1.008000   ; qtot 0.139746
  604         ca     22    PET     C1    604 -0.10087900  12.010000   ; qtot 0.038867
  605          c     22    PET     C7    605 0.65348100  12.010000   ; qtot 0.692348
  606          o     22    PET     O3    606 -0.52897500  16.000000   ; qtot 0.163373
  607         os     22    PET     O4    607 -0.43055400  16.000000   ; qtot -0.267181
  608         c3     22    PET    C10    608 0.14275500  12.010000   ; qtot -0.124426
  609         h1     22    PET     H8    609 0.06629400   1.008000   ; qtot -0.058132
  610         h1     22    PET     H9    610 0.06629400   1.008000   ; qtot 0.008162
  611         c3     22    PET    C11    611 -0.10854800  12.010000   ; qtot -0.100386
  612         hc     22    PET    H10    612 0.05866800   1.008000   ; qtot -0.041718
  613         hc     22    PET    H11    613 0.05866800   1.008000   ; qtot 0.016950
  614         c3     22    PET    C12    614 -0.09153800  12.010000   ; qtot -0.074588
  615         hc     22    PET    H13    615 0.03731600   1.008000   ; qtot -0.037272
  616         hc     22    PET    H14    616 0.03731600   1.008000   ; qtot 0.000044
; residue   23 PET rtp PET q 0.0
  617         c3     23    PET     C9    617 0.12984200  12.010000   ; qtot 0.129886
  618         h1     23    PET     H6    618 0.05392300   1.008000   ; qtot 0.183809
  619         h1     23    PET     H7    619 0.05392300   1.008000   ; qtot 0.237732
  620         os     23    PET     O2    620 -0.43055400  16.000000   ; qtot -0.192822
  621          c     23    PET     C8    621 0.65144800  12.010000   ; qtot 0.458626
  622          o     23    PET     O1    622 -0.52602500  16.000000   ; qtot -0.067399
  623         ca     23    PET     C4    623 -0.10087900  12.010000   ; qtot -0.168278
  624         ca     23    PET     C5    624 -0.08898200  12.010000   ; qtot -0.257260
  625         ca     23    PET     C6    625 -0.08898200  12.010000   ; qtot -0.346242
  626         ha     23    PET     H4    626 0.16624300   1.008000   ; qtot -0.179999
  627         ha     23    PET     H3    627 0.16573400   1.008000   ; qtot -0.014265
  628         ca     23    PET     C3    628 -0.08898200  12.010000   ; qtot -0.103247
  629         ha     23    PET     H2    629 0.16573400   1.008000   ; qtot 0.062487
  630         ca     23    PET     C2    630 -0.08898200  12.010000   ; qtot -0.026495
  631         ha     23    PET     H1    631 0.16624300   1.008000   ; qtot 0.139748
  632         ca     23    PET     C1    632 -0.10087900  12.010000   ; qtot 0.038869
  633          c     23    PET     C7    633 0.65348100  12.010000   ; qtot 0.692350
  634          o     23    PET     O3    634 -0.52897500  16.000000   ; qtot 0.163375
  635         os     23    PET     O4    635 -0.43055400  16.000000   ; qtot -0.267179
  636         c3     23    PET    C10    636 0.14275500  12.010000   ; qtot -0.124424
  637         h1     23    PET     H8    637 0.06629400   1.008000   ; qtot -0.058130
  638         h1     23    PET     H9    638 0.06629400   1.008000   ; qtot 0.008164
  639         c3     23    PET    C11    639 -0.10854800  12.010000   ; qtot -0.100384
  640         hc     23    PET    H10    640 0.05866800   1.008000   ; qtot -0.041716
  641         hc     23    PET    H11    641 0.05866800   1.008000   ; qtot 0.016952
  642         c3     23    PET    C12    642 -0.09153800  12.010000   ; qtot -0.074586
  643         hc     23    PET    H13    643 0.03731600   1.008000   ; qtot -0.037270
  644         hc     23    PET    H14    644 0.03731600   1.008000   ; qtot 0.000046
; residue   24 PET rtp PET q 0.0
  645         c3     24    PET     C9    645 0.12984200  12.010000   ; qtot 0.129888
  646         h1     24    PET     H6    646 0.05392300   1.008000   ; qtot 0.183811
  647         h1     24    PET     H7    647 0.05392300   1.008000   ; qtot 0.237734
  648         os     24    PET     O2    648 -0.43055400  16.000000   ; qtot -0.192820
  649          c     24    PET     C8    649 0.65144800  12.010000   ; qtot 0.458628
  650          o     24    PET     O1    650 -0.52602500  16.000000   ; qtot -0.067397
  651         ca     24    PET     C4    651 -0.10087900  12.010000   ; qtot -0.168276
  652         ca     24    PET     C5    652 -0.08898200  12.010000   ; qtot -0.257258
  653         ca     24    PET     C6    653 -0.08898200  12.010000   ; qtot -0.346240
  654         ha     24    PET     H4    654 0.16624300   1.008000   ; qtot -0.179997
  655         ha     24    PET     H3    655 0.16573400   1.008000   ; qtot -0.014263
  656         ca     24    PET     C3    656 -0.08898200  12.010000   ; qtot -0.103245
  657         ha     24    PET     H2    657 0.16573400   1.008000   ; qtot 0.062489
  658         ca     24    PET     C2    658 -0.08898200  12.010000   ; qtot -0.026493
  659         ha     24    PET     H1    659 0.16624300   1.008000   ; qtot 0.139750
  660         ca     24    PET     C1    660 -0.10087900  12.010000   ; qtot 0.038871
  661          c     24    PET     C7    661 0.65348100  12.010000   ; qtot 0.692352
  662          o     24    PET     O3    662 -0.52897500  16.000000   ; qtot 0.163377
  663         os     24    PET     O4    663 -0.43055400  16.000000   ; qtot -0.267177
  664         c3     24    PET    C10    664 0.14275500  12.010000   ; qtot -0.124422
  665         h1     24    PET     H8    665 0.06629400   1.008000   ; qtot -0.058128
  666         h1     24    PET     H9    666 0.06629400   1.008000   ; qtot 0.008166
  667         c3     24    PET    C11    667 -0.10854800  12.010000   ; qtot -0.100382
  668         hc     24    PET    H10    668 0.05866800   1.008000   ; qtot -0.041714
  669         hc     24    PET    H11    669 0.05866800   1.008000   ; qtot 0.016954
  670         c3     24    PET    C12    670 -0.09153800  12.010000   ; qtot -0.074584
  671         hc     24    PET    H13    671 0.03731600   1.008000   ; qtot -0.037268
  672         hc     24    PET    H14    672 0.03731600   1.008000   ; qtot 0.000048
; residue   25 PET rtp PET q 0.0
  673         c3     25    PET     C9    673 0.12984200  12.010000   ; qtot 0.129890
  674         h1     25    PET     H6    674 0.05392300   1.008000   ; qtot 0.183813
  675         h1     25    PET     H7    675 0.05392300   1.008000   ; qtot 0.237736
  676         os     25    PET     O2    676 -0.43055400  16.000000   ; qtot -0.192818
  677          c     25    PET     C8    677 0.65144800  12.010000   ; qtot 0.458630
  678          o     25    PET     O1    678 -0.52602500  16.000000   ; qtot -0.067395
  679         ca     25    PET     C4    679 -0.10087900  12.010000   ; qtot -0.168274
  680         ca     25    PET     C5    680 -0.08898200  12.010000   ; qtot -0.257256
  681         ca     25    PET     C6    681 -0.08898200  12.010000   ; qtot -0.346238
  682         ha     25    PET     H4    682 0.16624300   1.008000   ; qtot -0.179995
  683         ha     25    PET     H3    683 0.16573400   1.008000   ; qtot -0.014261
  684         ca     25    PET     C3    684 -0.08898200  12.010000   ; qtot -0.103243
  685         ha     25    PET     H2    685 0.16573400   1.008000   ; qtot 0.062491
  686         ca     25    PET     C2    686 -0.08898200  12.010000   ; qtot -0.026491
  687         ha     25    PET     H1    687 0.16624300   1.008000   ; qtot 0.139752
  688         ca     25    PET     C1    688 -0.10087900  12.010000   ; qtot 0.038873
  689          c     25    PET     C7    689 0.65348100  12.010000   ; qtot 0.692354
  690          o     25    PET     O3    690 -0.52897500  16.000000   ; qtot 0.163379
  691         os     25    PET     O4    691 -0.43055400  16.000000   ; qtot -0.267175
  692         c3     25    PET    C10    692 0.14275500  12.010000   ; qtot -0.124420
  693         h1     25    PET     H8    693 0.06629400   1.008000   ; qtot -0.058126
  694         h1     25    PET     H9    694 0.06629400   1.008000   ; qtot 0.008168
  695         c3     25    PET    C11    695 -0.10854800  12.010000   ; qtot -0.100380
  696         hc     25    PET    H10    696 0.05866800   1.008000   ; qtot -0.041712
  697         hc     25    PET    H11    697 0.05866800   1.008000   ; qtot 0.016956
  698         c3     25    PET    C12    698 -0.09153800  12.010000   ; qtot -0.074582
  699         hc     25    PET    H13    699 0.03731600   1.008000   ; qtot -0.037266
  700         hc     25    PET    H14    700 0.03731600   1.008000   ; qtot 0.000050

[ bonds ]
;    ai     aj funct         c0         c1         c2         c3
     26     29     1   0.15354 191535.152000
     23     26     1   0.15354 191535.152000
     20     23     1   0.15354 191535.152000
     19     20     1   0.14273 236203.536000
     17     18     1   0.12190 494214.080000
     17     19     1   0.13621 293976.208000
     16     17     1   0.14907 219944.512000
     14     16     1   0.13986 296436.400000
     12     14     1   0.13986 296436.400000
      9     16     1   0.13986 296436.400000
      8      9     1   0.13986 296436.400000
      7      8     1   0.13986 296436.400000
      7     12     1   0.13986 296436.400000
      5      6     1   0.12190 494214.080000
      5      7     1   0.14907 219944.512000
      4      5     1   0.13621 293976.208000
      1      4     1   0.14273 236203.536000
     54     57     1   0.15354 191535.152000
     51     54     1   0.15354 191535.152000
     48     51     1   0.15354 191535.152000
     47     48     1   0.14273 236203.536000
     45     46     1   0.12190 494214.080000
     45     47     1   0.13621 293976.208000
     44     45     1   0.14907 219944.512000
     42     44     1   0.13986 296436.400000
     40     42     1   0.13986 296436.400000
     37     44     1   0.13986 296436.400000
     36     37     1   0.13986 296436.400000
     35     36     1   0.13986 296436.400000
     35     40     1   0.13986 296436.400000
     33     34     1   0.12190 494214.080000
     33     35     1   0.14907 219944.512000
     32     33     1   0.13621 293976.208000
     29     32     1   0.14273 236203.536000
     82     85     1   0.15354 191535.152000
     79     82     1   0.15354 191535.152000
     76     79     1   0.15354 191535.152000
     75     76     1   0.14273 236203.536000
     73     74     1   0.12190 494214.080000
     73     75     1   0.13621 293976.208000
     72     73     1   0.14907 219944.512000
     70     72     1   0.13986 296436.400000
     68     70     1   0.13986 296436.400000
     65     72     1   0.13986 296436.400000
     64     65     1   0.13986 296436.400000
     63     64     1   0.13986 296436.400000
     63     68     1   0.13986 296436.400000
     61     62     1   0.12190 494214.080000
     61     63     1   0.14907 219944.512000
     60     61     1   0.13621 293976.208000
     57     60     1   0.14273 236203.536000
    110    113     1   0.15354 191535.152000
    107    110     1   0.15354 191535.152000
    104    107     1   0.15354 191535.152000
    103    104     1   0.14273 236203.536000
    101    102     1   0.12190 494214.080000
    101    103     1   0.13621 293976.208000
    100    101     1   0.14907 219944.512000
     98    100     1   0.13986 296436.400000
     96     98     1   0.13986 296436.400000
     93    100     1   0.13986 296436.400000
     92     93     1   0.13986 296436.400000
     91     92     1   0.13986 296436.400000
     91     96     1   0.13986 296436.400000
     89     90     1   0.12190 494214.080000
     89     91     1   0.14907 219944.512000
     88     89     1   0.13621 293976.208000
     85     88     1   0.14273 236203.536000
    138    141     1   0.15354 191535.152000
    135    138     1   0.15354 191535.152000
    132    135     1   0.15354 191535.152000
    131    132     1   0.14273 236203.536000
    129    130     1   0.12190 494214.080000
    129    131     1   0.13621 293976.208000
    128    129     1   0.14907 219944.512000
    126    128     1   0.13986 296436.400000
    124    126     1   0.13986 296436.400000
    121    128     1   0.13986 296436.400000
    120    121     1   0.13986 296436.400000
    119    120     1   0.13986 296436.400000
    119    124     1   0.13986 296436.400000
    117    118     1   0.12190 494214.080000
    117    119     1   0.14907 219944.512000
    116    117     1   0.13621 293976.208000
    113    116     1   0.14273 236203.536000
    166    169     1   0.15354 191535.152000
    163    166     1   0.15354 191535.152000
    160    163     1   0.15354 191535.152000
    159    160     1   0.14273 236203.536000
    157    158     1   0.12190 494214.080000
    157    159     1   0.13621 293976.208000
    156    157     1   0.14907 219944.512000
    154    156     1   0.13986 296436.400000
    152    154     1   0.13986 296436.400000
    149    156     1   0.13986 296436.400000
    148    149     1   0.13986 296436.400000
    147    148     1   0.13986 296436.400000
    147    152     1   0.13986 296436.400000
    145    146     1   0.12190 494214.080000
    145    147     1   0.14907 219944.512000
    144    145     1   0.13621 293976.208000
    141    144     1   0.14273 236203.536000
    194    197     1   0.15354 191535.152000
    191    194     1   0.15354 191535.152000
    188    191     1   0.15354 191535.152000
    187    188     1   0.14273 236203.536000
    185    186     1   0.12190 494214.080000
    185    187     1   0.13621 293976.208000
    184    185     1   0.14907 219944.512000
    182    184     1   0.13986 296436.400000
    180    182     1   0.13986 296436.400000
    177    184     1   0.13986 296436.400000
    176    177     1   0.13986 296436.400000
    175    176     1   0.13986 296436.400000
    175    180     1   0.13986 296436.400000
    173    174     1   0.12190 494214.080000
    173    175     1   0.14907 219944.512000
    172    173     1   0.13621 293976.208000
    169    172     1   0.14273 236203.536000
    222    225     1   0.15354 191535.152000
    219    222     1   0.15354 191535.152000
    216    219     1   0.15354 191535.152000
    215    216     1   0.14273 236203.536000
    213    214     1   0.12190 494214.080000
    213    215     1   0.13621 293976.208000
    212    213     1   0.14907 219944.512000
    210    212     1   0.13986 296436.400000
    208    210     1   0.13986 296436.400000
    205    212     1   0.13986 296436.400000
    204    205     1   0.13986 296436.400000
    203    204     1   0.13986 296436.400000
    203    208     1   0.13986 296436.400000
    201    202     1   0.12190 494214.080000
    201    203     1   0.14907 219944.512000
    200    201     1   0.13621 293976.208000
    197    200     1   0.14273 236203.536000
    250    253     1   0.15354 191535.152000
    247    250     1   0.15354 191535.152000
    244    247     1   0.15354 191535.152000
    243    244     1   0.14273 236203.536000
    241    242     1   0.12190 494214.080000
    241    243     1   0.13621 293976.208000
    240    241     1   0.14907 219944.512000
    238    240     1   0.13986 296436.400000
    236    238     1   0.13986 296436.400000
    233    240     1   0.13986 296436.400000
    232    233     1   0.13986 296436.400000
    231    232     1   0.13986 296436.400000
    231    236     1   0.13986 296436.400000
    229    230     1   0.12190 494214.080000
    229    231     1   0.14907 219944.512000
    228    229     1   0.13621 293976.208000
    225    228     1   0.14273 236203.536000
    278    281     1   0.15354 191535.152000
    275    278     1   0.15354 191535.152000
    272    275     1   0.15354 191535.152000
    271    272     1   0.14273 236203.536000
    269    270     1   0.12190 494214.080000
    269    271     1   0.13621 293976.208000
    268    269     1   0.14907 219944.512000
    266    268     1   0.13986 296436.400000
    264    266     1   0.13986 296436.400000
    261    268     1   0.13986 296436.400000
    260    261     1   0.13986 296436.400000
    259    260     1   0.13986 296436.400000
    259    264     1   0.13986 296436.400000
    257    258     1   0.12190 494214.080000
    257    259     1   0.14907 219944.512000
    256    257     1   0.13621 293976.208000
    253    256     1   0.14273 236203.536000
    306    309     1   0.15354 191535.152000
    303    306     1   0.15354 191535.152000
    300    303     1   0.15354 191535.152000
    299    300     1   0.14273 236203.536000
    297    298     1   0.12190 494214.080000
    297    299     1   0.13621 293976.208000
    296    297     1   0.14907 219944.512000
    294    296     1   0.13986 296436.400000
    292    294     1   0.13986 296436.400000
    289    296     1   0.13986 296436.400000
    288    289     1   0.13986 296436.400000
    287    288     1   0.13986 296436.400000
    287    292     1   0.13986 296436.400000
    285    286     1   0.12190 494214.080000
    285    287     1   0.14907 219944.512000
    284    285     1   0.13621 293976.208000
    281    284     1   0.14273 236203.536000
    334    337     1   0.15354 191535.152000
    331    334     1   0.15354 191535.152000
    328    331     1   0.15354 191535.152000
    327    328     1   0.14273 236203.536000
    325    326     1   0.12190 494214.080000
    325    327     1   0.13621 293976.208000
    324    325     1   0.14907 219944.512000
    322    324     1   0.13986 296436.400000
    320    322     1   0.13986 296436.400000
    317    324     1   0.13986 296436.400000
    316    317     1   0.13986 296436.400000
    315    316     1   0.13986 296436.400000
    315    320     1   0.13986 296436.400000
    313    314     1   0.12190 494214.080000
    313    315     1   0.14907 219944.512000
    312    313     1   0.13621 293976.208000
    309    312     1   0.14273 236203.536000
    362    365     1   0.15354 191535.152000
    359    362     1   0.15354 191535.152000
    356    359     1   0.15354 191535.152000
    355    356     1   0.14273 236203.536000
    353    354     1   0.12190 494214.080000
    353    355     1   0.13621 293976.208000
    352    353     1   0.14907 219944.512000
    350    352     1   0.13986 296436.400000
    348    350     1   0.13986 296436.400000
    345    352     1   0.13986 296436.400000
    344    345     1   0.13986 296436.400000
    343    344     1   0.13986 296436.400000
    343    348     1   0.13986 296436.400000
    341    342     1   0.12190 494214.080000
    341    343     1   0.14907 219944.512000
    340    341     1   0.13621 293976.208000
    337    340     1   0.14273 236203.536000
    390    393     1   0.15354 191535.152000
    387    390     1   0.15354 191535.152000
    384    387     1   0.15354 191535.152000
    383    384     1   0.14273 236203.536000
    381    382     1   0.12190 494214.080000
    381    383     1   0.13621 293976.208000
    380    381     1   0.14907 219944.512000
    378    380     1   0.13986 296436.400000
    376    378     1   0.13986 296436.400000
    373    380     1   0.13986 296436.400000
    372    373     1   0.13986 296436.400000
    371    372     1   0.13986 296436.400000
    371    376     1   0.13986 296436.400000
    369    370     1   0.12190 494214.080000
    369    371     1   0.14907 219944.512000
    368    369     1   0.13621 293976.208000
    365    368     1   0.14273 236203.536000
    418    421     1   0.15354 191535.152000
    415    418     1   0.15354 191535.152000
    412    415     1   0.15354 191535.152000
    411    412     1   0.14273 236203.536000
    409    410     1   0.12190 494214.080000
    409    411     1   0.13621 293976.208000
    408    409     1   0.14907 219944.512000
    406    408     1   0.13986 296436.400000
    404    406     1   0.13986 296436.400000
    401    408     1   0.13986 296436.400000
    400    401     1   0.13986 296436.400000
    399    400     1   0.13986 296436.400000
    399    404     1   0.13986 296436.400000
    397    398     1   0.12190 494214.080000
    397    399     1   0.14907 219944.512000
    396    397     1   0.13621 293976.208000
    393    396     1   0.14273 236203.536000
    446    449     1   0.15354 191535.152000
    443    446     1   0.15354 191535.152000
    440    443     1   0.15354 191535.152000
    439    440     1   0.14273 236203.536000
    437    438     1   0.12190 494214.080000
    437    439     1   0.13621 293976.208000
    436    437     1   0.14907 219944.512000
    434    436     1   0.13986 296436.400000
    432    434     1   0.13986 296436.400000
    429    436     1   0.13986 296436.400000
    428    429     1   0.13986 296436.400000
    427    428     1   0.13986 296436.400000
    427    432     1   0.13986 296436.400000
    425    426     1   0.12190 494214.080000
    425    427     1   0.14907 219944.512000
    424    425     1   0.13621 293976.208000
    421    424     1   0.14273 236203.536000
    474    477     1   0.15354 191535.152000
    471    474     1   0.15354 191535.152000
    468    471     1   0.15354 191535.152000
    467    468     1   0.14273 236203.536000
    465    466     1   0.12190 494214.080000
    465    467     1   0.13621 293976.208000
    464    465     1   0.14907 219944.512000
    462    464     1   0.13986 296436.400000
    460    462     1   0.13986 296436.400000
    457    464     1   0.13986 296436.400000
    456    457     1   0.13986 296436.400000
    455    456     1   0.13986 296436.400000
    455    460     1   0.13986 296436.400000
    453    454     1   0.12190 494214.080000
    453    455     1   0.14907 219944.512000
    452    453     1   0.13621 293976.208000
    449    452     1   0.14273 236203.536000
    502    505     1   0.15354 191535.152000
    499    502     1   0.15354 191535.152000
    496    499     1   0.15354 191535.152000
    495    496     1   0.14273 236203.536000
    493    494     1   0.12190 494214.080000
    493    495     1   0.13621 293976.208000
    492    493     1   0.14907 219944.512000
    490    492     1   0.13986 296436.400000
    488    490     1   0.13986 296436.400000
    485    492     1   0.13986 296436.400000
    484    485     1   0.13986 296436.400000
    483    484     1   0.13986 296436.400000
    483    488     1   0.13986 296436.400000
    481    482     1   0.12190 494214.080000
    481    483     1   0.14907 219944.512000
    480    481     1   0.13621 293976.208000
    477    480     1   0.14273 236203.536000
    530    533     1   0.15354 191535.152000
    527    530     1   0.15354 191535.152000
    524    527     1   0.15354 191535.152000
    523    524     1   0.14273 236203.536000
    521    522     1   0.12190 494214.080000
    521    523     1   0.13621 293976.208000
    520    521     1   0.14907 219944.512000
    518    520     1   0.13986 296436.400000
    516    518     1   0.13986 296436.400000
    513    520     1   0.13986 296436.400000
    512    513     1   0.13986 296436.400000
    511    512     1   0.13986 296436.400000
    511    516     1   0.13986 296436.400000
    509    510     1   0.12190 494214.080000
    509    511     1   0.14907 219944.512000
    508    509     1   0.13621 293976.208000
    505    508     1   0.14273 236203.536000
    558    561     1   0.15354 191535.152000
    555    558     1   0.15354 191535.152000
    552    555     1   0.15354 191535.152000
    551    552     1   0.14273 236203.536000
    549    550     1   0.12190 494214.080000
    549    551     1   0.13621 293976.208000
    548    549     1   0.14907 219944.512000
    546    548     1   0.13986 296436.400000
    544    546     1   0.13986 296436.400000
    541    548     1   0.13986 296436.400000
    540    541     1   0.13986 296436.400000
    539    540     1   0.13986 296436.400000
    539    544     1   0.13986 296436.400000
    537    538     1   0.12190 494214.080000
    537    539     1   0.14907 219944.512000
    536    537     1   0.13621 293976.208000
    533    536     1   0.14273 236203.536000
    586    589     1   0.15354 191535.152000
    583    586     1   0.15354 191535.152000
    580    583     1   0.15354 191535.152000
    579    580     1   0.14273 236203.536000
    577    578     1   0.12190 494214.080000
    577    579     1   0.13621 293976.208000
    576    577     1   0.14907 219944.512000
    574    576     1   0.13986 296436.400000
    572    574     1   0.13986 296436.400000
    569    576     1   0.13986 296436.400000
    568    569     1   0.13986 296436.400000
    567    568     1   0.13986 296436.400000
    567    572     1   0.13986 296436.400000
    565    566     1   0.12190 494214.080000
    565    567     1   0.14907 219944.512000
    564    565     1   0.13621 293976.208000
    561    564     1   0.14273 236203.536000
    614    617     1   0.15354 191535.152000
    611    614     1   0.15354 191535.152000
    608    611     1   0.15354 191535.152000
    607    608     1   0.14273 236203.536000
    605    606     1   0.12190 494214.080000
    605    607     1   0.13621 293976.208000
    604    605     1   0.14907 219944.512000
    602    604     1   0.13986 296436.400000
    600    602     1   0.13986 296436.400000
    597    604     1   0.13986 296436.400000
    596    597     1   0.13986 296436.400000
    595    596     1   0.13986 296436.400000
    595    600     1   0.13986 296436.400000
    593    594     1   0.12190 494214.080000
    593    595     1   0.14907 219944.512000
    592    593     1   0.13621 293976.208000
    589    592     1   0.14273 236203.536000
    642    645     1   0.15354 191535.152000
    639    642     1   0.15354 191535.152000
    636    639     1   0.15354 191535.152000
    635    636     1   0.14273 236203.536000
    633    634     1   0.12190 494214.080000
    633    635     1   0.13621 293976.208000
    632    633     1   0.14907 219944.512000
    630    632     1   0.13986 296436.400000
    628    630     1   0.13986 296436.400000
    625    632     1   0.13986 296436.400000
    624    625     1   0.13986 296436.400000
    623    624     1   0.13986 296436.400000
    623    628     1   0.13986 296436.400000
    621    622     1   0.12190 494214.080000
    621    623     1   0.14907 219944.512000
    620    621     1   0.13621 293976.208000
    617    620     1   0.14273 236203.536000
    670    673     1   0.15354 191535.152000
    667    670     1   0.15354 191535.152000
    664    667     1   0.15354 191535.152000
    663    664     1   0.14273 236203.536000
    661    662     1   0.12190 494214.080000
    661    663     1   0.13621 293976.208000
    660    661     1   0.14907 219944.512000
    658    660     1   0.13986 296436.400000
    656    658     1   0.13986 296436.400000
    653    660     1   0.13986 296436.400000
    652    653     1   0.13986 296436.400000
    651    652     1   0.13986 296436.400000
    651    656     1   0.13986 296436.400000
    649    650     1   0.12190 494214.080000
    649    651     1   0.14907 219944.512000
    648    649     1   0.13621 293976.208000
    645    648     1   0.14273 236203.536000
    695    698     1   0.15354 191535.152000
    692    695     1   0.15354 191535.152000
    691    692     1   0.14273 236203.536000
    689    690     1   0.12190 494214.080000
    689    691     1   0.13621 293976.208000
    688    689     1   0.14907 219944.512000
    686    688     1   0.13986 296436.400000
    684    686     1   0.13986 296436.400000
    681    688     1   0.13986 296436.400000
    680    681     1   0.13986 296436.400000
    679    680     1   0.13986 296436.400000
    679    684     1   0.13986 296436.400000
    677    678     1   0.12190 494214.080000
    677    679     1   0.14907 219944.512000
    676    677     1   0.13621 293976.208000
    673    676     1   0.14273 236203.536000
     26     27     1   0.10962 288905.200000
     26     28     1   0.10962 288905.200000
     23     24     1   0.10962 288905.200000
     23     25     1   0.10962 288905.200000
     20     21     1   0.10969 288043.296000
     20     22     1   0.10969 288043.296000
     14     15     1   0.10860 301825.392000
     12     13     1   0.10860 301825.392000
      9     10     1   0.10860 301825.392000
      8     11     1   0.10860 301825.392000
      1      2     1   0.10969 288043.296000
      1      3     1   0.10969 288043.296000
     54     55     1   0.10962 288905.200000
     54     56     1   0.10962 288905.200000
     51     52     1   0.10962 288905.200000
     51     53     1   0.10962 288905.200000
     48     49     1   0.10969 288043.296000
     48     50     1   0.10969 288043.296000
     42     43     1   0.10860 301825.392000
     40     41     1   0.10860 301825.392000
     37     38     1   0.10860 301825.392000
     36     39     1   0.10860 301825.392000
     29     30     1   0.10969 288043.296000
     29     31     1   0.10969 288043.296000
     82     83     1   0.10962 288905.200000
     82     84     1   0.10962 288905.200000
     79     80     1   0.10962 288905.200000
     79     81     1   0.10962 288905.200000
     76     77     1   0.10969 288043.296000
     76     78     1   0.10969 288043.296000
     70     71     1   0.10860 301825.392000
     68     69     1   0.10860 301825.392000
     65     66     1   0.10860 301825.392000
     64     67     1   0.10860 301825.392000
     57     58     1   0.10969 288043.296000
     57     59     1   0.10969 288043.296000
    110    111     1   0.10962 288905.200000
    110    112     1   0.10962 288905.200000
    107    108     1   0.10962 288905.200000
    107    109     1   0.10962 288905.200000
    104    105     1   0.10969 288043.296000
    104    106     1   0.10969 288043.296000
     98     99     1   0.10860 301825.392000
     96     97     1   0.10860 301825.392000
     93     94     1   0.10860 301825.392000
     92     95     1   0.10860 301825.392000
     85     86     1   0.10969 288043.296000
     85     87     1   0.10969 288043.296000
    138    139     1   0.10962 288905.200000
    138    140     1   0.10962 288905.200000
    135    136     1   0.10962 288905.200000
    135    137     1   0.10962 288905.200000
    132    133     1   0.10969 288043.296000
    132    134     1   0.10969 288043.296000
    126    127     1   0.10860 301825.392000
    124    125     1   0.10860 301825.392000
    121    122     1   0.10860 301825.392000
    120    123     1   0.10860 301825.392000
    113    114     1   0.10969 288043.296000
    113    115     1   0.10969 288043.296000
    166    167     1   0.10962 288905.200000
    166    168     1   0.10962 288905.200000
    163    164     1   0.10962 288905.200000
    163    165     1   0.10962 288905.200000
    160    161     1   0.10969 288043.296000
    160    162     1   0.10969 288043.296000
    154    155     1   0.10860 301825.392000
    152    153     1   0.10860 301825.392000
    149    150     1   0.10860 301825.392000
    148    151     1   0.10860 301825.392000
    141    142     1   0.10969 288043.296000
    141    143     1   0.10969 288043.296000
    194    195     1   0.10962 288905.200000
    194    196     1   0.10962 288905.200000
    191    192     1   0.10962 288905.200000
    191    193     1   0.10962 288905.200000
    188    189     1   0.10969 288043.296000
    188    190     1   0.10969 288043.296000
    182    183     1   0.10860 301825.392000
    180    181     1   0.10860 301825.392000
    177    178     1   0.10860 301825.392000
    176    179     1   0.10860 301825.392000
    169    170     1   0.10969 288043.296000
    169    171     1   0.10969 288043.296000
    222    223     1   0.10962 288905.200000
    222    224     1   0.10962 288905.200000
    219    220     1   0.10962 288905.200000
    219    221     1   0.10962 288905.200000
    216    217     1   0.10969 288043.296000
    216    218     1   0.10969 288043.296000
    210    211     1   0.10860 301825.392000
    208    209     1   0.10860 301825.392000
    205    206     1   0.10860 301825.392000
    204    207     1   0.10860 301825.392000
    197    198     1   0.10969 288043.296000
    197    199     1   0.10969 288043.296000
    250    251     1   0.10962 288905.200000
    250    252     1   0.10962 288905.200000
    247    248     1   0.10962 288905.200000
    247    249     1   0.10962 288905.200000
    244    245     1   0.10969 288043.296000
    244    246     1   0.10969 288043.296000
    238    239     1   0.10860 301825.392000
    236    237     1   0.10860 301825.392000
    233    234     1   0.10860 301825.392000
    232    235     1   0.10860 301825.392000
    225    226     1   0.10969 288043.296000
    225    227     1   0.10969 288043.296000
    278    279     1   0.10962 288905.200000
    278    280     1   0.10962 288905.200000
    275    276     1   0.10962 288905.200000
    275    277     1   0.10962 288905.200000
    272    273     1   0.10969 288043.296000
    272    274     1   0.10969 288043.296000
    266    267     1   0.10860 301825.392000
    264    265     1   0.10860 301825.392000
    261    262     1   0.10860 301825.392000
    260    263     1   0.10860 301825.392000
    253    254     1   0.10969 288043.296000
    253    255     1   0.10969 288043.296000
    306    307     1   0.10962 288905.200000
    306    308     1   0.10962 288905.200000
    303    304     1   0.10962 288905.200000
    303    305     1   0.10962 288905.200000
    300    301     1   0.10969 288043.296000
    300    302     1   0.10969 288043.296000
    294    295     1   0.10860 301825.392000
    292    293     1   0.10860 301825.392000
    289    290     1   0.10860 301825.392000
    288    291     1   0.10860 301825.392000
    281    282     1   0.10969 288043.296000
    281    283     1   0.10969 288043.296000
    334    335     1   0.10962 288905.200000
    334    336     1   0.10962 288905.200000
    331    332     1   0.10962 288905.200000
    331    333     1   0.10962 288905.200000
    328    329     1   0.10969 288043.296000
    328    330     1   0.10969 288043.296000
    322    323     1   0.10860 301825.392000
    320    321     1   0.10860 301825.392000
    317    318     1   0.10860 301825.392000
    316    319     1   0.10860 301825.392000
    309    310     1   0.10969 288043.296000
    309    311     1   0.10969 288043.296000
    362    363     1   0.10962 288905.200000
    362    364     1   0.10962 288905.200000
    359    360     1   0.10962 288905.200000
    359    361     1   0.10962 288905.200000
    356    357     1   0.10969 288043.296000
    356    358     1   0.10969 288043.296000
    350    351     1   0.10860 301825.392000
    348    349     1   0.10860 301825.392000
    345    346     1   0.10860 301825.392000
    344    347     1   0.10860 301825.392000
    337    338     1   0.10969 288043.296000
    337    339     1   0.10969 288043.296000
    390    391     1   0.10962 288905.200000
    390    392     1   0.10962 288905.200000
    387    388     1   0.10962 288905.200000
    387    389     1   0.10962 288905.200000
    384    385     1   0.10969 288043.296000
    384    386     1   0.10969 288043.296000
    378    379     1   0.10860 301825.392000
    376    377     1   0.10860 301825.392000
    373    374     1   0.10860 301825.392000
    372    375     1   0.10860 301825.392000
    365    366     1   0.10969 288043.296000
    365    367     1   0.10969 288043.296000
    418    419     1   0.10962 288905.200000
    418    420     1   0.10962 288905.200000
    415    416     1   0.10962 288905.200000
    415    417     1   0.10962 288905.200000
    412    413     1   0.10969 288043.296000
    412    414     1   0.10969 288043.296000
    406    407     1   0.10860 301825.392000
    404    405     1   0.10860 301825.392000
    401    402     1   0.10860 301825.392000
    400    403     1   0.10860 301825.392000
    393    394     1   0.10969 288043.296000
    393    395     1   0.10969 288043.296000
    446    447     1   0.10962 288905.200000
    446    448     1   0.10962 288905.200000
    443    444     1   0.10962 288905.200000
    443    445     1   0.10962 288905.200000
    440    441     1   0.10969 288043.296000
    440    442     1   0.10969 288043.296000
    434    435     1   0.10860 301825.392000
    432    433     1   0.10860 301825.392000
    429    430     1   0.10860 301825.392000
    428    431     1   0.10860 301825.392000
    421    422     1   0.10969 288043.296000
    421    423     1   0.10969 288043.296000
    474    475     1   0.10962 288905.200000
    474    476     1   0.10962 288905.200000
    471    472     1   0.10962 288905.200000
    471    473     1   0.10962 288905.200000
    468    469     1   0.10969 288043.296000
    468    470     1   0.10969 288043.296000
    462    463     1   0.10860 301825.392000
    460    461     1   0.10860 301825.392000
    457    458     1   0.10860 301825.392000
    456    459     1   0.10860 301825.392000
    449    450     1   0.10969 288043.296000
    449    451     1   0.10969 288043.296000
    502    503     1   0.10962 288905.200000
    502    504     1   0.10962 288905.200000
    499    500     1   0.10962 288905.200000
    499    501     1   0.10962 288905.200000
    496    497     1   0.10969 288043.296000
    496    498     1   0.10969 288043.296000
    490    491     1   0.10860 301825.392000
    488    489     1   0.10860 301825.392000
    485    486     1   0.10860 301825.392000
    484    487     1   0.10860 301825.392000
    477    478     1   0.10969 288043.296000
    477    479     1   0.10969 288043.296000
    530    531     1   0.10962 288905.200000
    530    532     1   0.10962 288905.200000
    527    528     1   0.10962 288905.200000
    527    529     1   0.10962 288905.200000
    524    525     1   0.10969 288043.296000
    524    526     1   0.10969 288043.296000
    518    519     1   0.10860 301825.392000
    516    517     1   0.10860 301825.392000
    513    514     1   0.10860 301825.392000
    512    515     1   0.10860 301825.392000
    505    506     1   0.10969 288043.296000
    505    507     1   0.10969 288043.296000
    558    559     1   0.10962 288905.200000
    558    560     1   0.10962 288905.200000
    555    556     1   0.10962 288905.200000
    555    557     1   0.10962 288905.200000
    552    553     1   0.10969 288043.296000
    552    554     1   0.10969 288043.296000
    546    547     1   0.10860 301825.392000
    544    545     1   0.10860 301825.392000
    541    542     1   0.10860 301825.392000
    540    543     1   0.10860 301825.392000
    533    534     1   0.10969 288043.296000
    533    535     1   0.10969 288043.296000
    586    587     1   0.10962 288905.200000
    586    588     1   0.10962 288905.200000
    583    584     1   0.10962 288905.200000
    583    585     1   0.10962 288905.200000
    580    581     1   0.10969 288043.296000
    580    582     1   0.10969 288043.296000
    574    575     1   0.10860 301825.392000
    572    573     1   0.10860 301825.392000
    569    570     1   0.10860 301825.392000
    568    571     1   0.10860 301825.392000
    561    562     1   0.10969 288043.296000
    561    563     1   0.10969 288043.296000
    614    615     1   0.10962 288905.200000
    614    616     1   0.10962 288905.200000
    611    612     1   0.10962 288905.200000
    611    613     1   0.10962 288905.200000
    608    609     1   0.10969 288043.296000
    608    610     1   0.10969 288043.296000
    602    603     1   0.10860 301825.392000
    600    601     1   0.10860 301825.392000
    597    598     1   0.10860 301825.392000
    596    599     1   0.10860 301825.392000
    589    590     1   0.10969 288043.296000
    589    591     1   0.10969 288043.296000
    642    643     1   0.10962 288905.200000
    642    644     1   0.10962 288905.200000
    639    640     1   0.10962 288905.200000
    639    641     1   0.10962 288905.200000
    636    637     1   0.10969 288043.296000
    636    638     1   0.10969 288043.296000
    630    631     1   0.10860 301825.392000
    628    629     1   0.10860 301825.392000
    625    626     1   0.10860 301825.392000
    624    627     1   0.10860 301825.392000
    617    618     1   0.10969 288043.296000
    617    619     1   0.10969 288043.296000
    670    671     1   0.10962 288905.200000
    670    672     1   0.10962 288905.200000
    667    668     1   0.10962 288905.200000
    667    669     1   0.10962 288905.200000
    664    665     1   0.10969 288043.296000
    664    666     1   0.10969 288043.296000
    658    659     1   0.10860 301825.392000
    656    657     1   0.10860 301825.392000
    653    654     1   0.10860 301825.392000
    652    655     1   0.10860 301825.392000
    645    646     1   0.10969 288043.296000
    645    647     1   0.10969 288043.296000
    698    699     1   0.10962 288905.200000
    698    700     1   0.10962 288905.200000
    695    696     1   0.10962 288905.200000
    695    697     1   0.10962 288905.200000
    692    693     1   0.10969 288043.296000
    692    694     1   0.10969 288043.296000
    686    687     1   0.10860 301825.392000
    684    685     1   0.10860 301825.392000
    681    682     1   0.10860 301825.392000
    680    683     1   0.10860 301825.392000
    673    674     1   0.10969 288043.296000
    673    675     1   0.10969 288043.296000

[ pairs ]
;    ai     aj funct         c0         c1         c2         c3
     26     33     1
     23     32     1
     20     29     1
     19     26     1
     18     20     1
     17     23     1
     16     20     1
     14     18     1
     14     19     1
     12     17     1
      9     12     1
      9     18     1
      9     19     1
      8     14     1
      8     17     1
      7     16     1
      6      8     1
      6     12     1
      5      9     1
      5     14     1
      4      8     1
      4     12     1
      1      6     1
      1      7     1
     54     61     1
     51     60     1
     48     57     1
     47     54     1
     46     48     1
     45     51     1
     44     48     1
     42     46     1
     42     47     1
     40     45     1
     37     40     1
     37     46     1
     37     47     1
     36     42     1
     36     45     1
     35     44     1
     34     36     1
     34     40     1
     33     37     1
     33     42     1
     32     36     1
     32     40     1
     29     34     1
     29     35     1
     82     89     1
     79     88     1
     76     85     1
     75     82     1
     74     76     1
     73     79     1
     72     76     1
     70     74     1
     70     75     1
     68     73     1
     65     68     1
     65     74     1
     65     75     1
     64     70     1
     64     73     1
     63     72     1
     62     64     1
     62     68     1
     61     65     1
     61     70     1
     60     64     1
     60     68     1
     57     62     1
     57     63     1
    110    117     1
    107    116     1
    104    113     1
    103    110     1
    102    104     1
    101    107     1
    100    104     1
     98    102     1
     98    103     1
     96    101     1
     93     96     1
     93    102     1
     93    103     1
     92     98     1
     92    101     1
     91    100     1
     90     92     1
     90     96     1
     89     93     1
     89     98     1
     88     92     1
     88     96     1
     85     90     1
     85     91     1
    138    145     1
    135    144     1
    132    141     1
    131    138     1
    130    132     1
    129    135     1
    128    132     1
    126    130     1
    126    131     1
    124    129     1
    121    124     1
    121    130     1
    121    131     1
    120    126     1
    120    129     1
    119    128     1
    118    120     1
    118    124     1
    117    121     1
    117    126     1
    116    120     1
    116    124     1
    113    118     1
    113    119     1
    166    173     1
    163    172     1
    160    169     1
    159    166     1
    158    160     1
    157    163     1
    156    160     1
    154    158     1
    154    159     1
    152    157     1
    149    152     1
    149    158     1
    149    159     1
    148    154     1
    148    157     1
    147    156     1
    146    148     1
    146    152     1
    145    149     1
    145    154     1
    144    148     1
    144    152     1
    141    146     1
    141    147     1
    194    201     1
    191    200     1
    188    197     1
    187    194     1
    186    188     1
    185    191     1
    184    188     1
    182    186     1
    182    187     1
    180    185     1
    177    180     1
    177    186     1
    177    187     1
    176    182     1
    176    185     1
    175    184     1
    174    176     1
    174    180     1
    173    177     1
    173    182     1
    172    176     1
    172    180     1
    169    174     1
    169    175     1
    222    229     1
    219    228     1
    216    225     1
    215    222     1
    214    216     1
    213    219     1
    212    216     1
    210    214     1
    210    215     1
    208    213     1
    205    208     1
    205    214     1
    205    215     1
    204    210     1
    204    213     1
    203    212     1
    202    204     1
    202    208     1
    201    205     1
    201    210     1
    200    204     1
    200    208     1
    197    202     1
    197    203     1
    250    257     1
    247    256     1
    244    253     1
    243    250     1
    242    244     1
    241    247     1
    240    244     1
    238    242     1
    238    243     1
    236    241     1
    233    236     1
    233    242     1
    233    243     1
    232    238     1
    232    241     1
    231    240     1
    230    232     1
    230    236     1
    229    233     1
    229    238     1
    228    232     1
    228    236     1
    225    230     1
    225    231     1
    278    285     1
    275    284     1
    272    281     1
    271    278     1
    270    272     1
    269    275     1
    268    272     1
    266    270     1
    266    271     1
    264    269     1
    261    264     1
    261    270     1
    261    271     1
    260    266     1
    260    269     1
    259    268     1
    258    260     1
    258    264     1
    257    261     1
    257    266     1
    256    260     1
    256    264     1
    253    258     1
    253    259     1
    306    313     1
    303    312     1
    300    309     1
    299    306     1
    298    300     1
    297    303     1
    296    300     1
    294    298     1
    294    299     1
    292    297     1
    289    292     1
    289    298     1
    289    299     1
    288    294     1
    288    297     1
    287    296     1
    286    288     1
    286    292     1
    285    289     1
    285    294     1
    284    288     1
    284    292     1
    281    286     1
    281    287     1
    334    341     1
    331    340     1
    328    337     1
    327    334     1
    326    328     1
    325    331     1
    324    328     1
    322    326     1
    322    327     1
    320    325     1
    317    320     1
    317    326     1
    317    327     1
    316    322     1
    316    325     1
    315    324     1
    314    316     1
    314    320     1
    313    317     1
    313    322     1
    312    316     1
    312    320     1
    309    314     1
    309    315     1
    362    369     1
    359    368     1
    356    365     1
    355    362     1
    354    356     1
    353    359     1
    352    356     1
    350    354     1
    350    355     1
    348    353     1
    345    348     1
    345    354     1
    345    355     1
    344    350     1
    344    353     1
    343    352     1
    342    344     1
    342    348     1
    341    345     1
    341    350     1
    340    344     1
    340    348     1
    337    342     1
    337    343     1
    390    397     1
    387    396     1
    384    393     1
    383    390     1
    382    384     1
    381    387     1
    380    384     1
    378    382     1
    378    383     1
    376    381     1
    373    376     1
    373    382     1
    373    383     1
    372    378     1
    372    381     1
    371    380     1
    370    372     1
    370    376     1
    369    373     1
    369    378     1
    368    372     1
    368    376     1
    365    370     1
    365    371     1
    418    425     1
    415    424     1
    412    421     1
    411    418     1
    410    412     1
    409    415     1
    408    412     1
    406    410     1
    406    411     1
    404    409     1
    401    404     1
    401    410     1
    401    411     1
    400    406     1
    400    409     1
    399    408     1
    398    400     1
    398    404     1
    397    401     1
    397    406     1
    396    400     1
    396    404     1
    393    398     1
    393    399     1
    446    453     1
    443    452     1
    440    449     1
    439    446     1
    438    440     1
    437    443     1
    436    440     1
    434    438     1
    434    439     1
    432    437     1
    429    432     1
    429    438     1
    429    439     1
    428    434     1
    428    437     1
    427    436     1
    426    428     1
    426    432     1
    425    429     1
    425    434     1
    424    428     1
    424    432     1
    421    426     1
    421    427     1
    474    481     1
    471    480     1
    468    477     1
    467    474     1
    466    468     1
    465    471     1
    464    468     1
    462    466     1
    462    467     1
    460    465     1
    457    460     1
    457    466     1
    457    467     1
    456    462     1
    456    465     1
    455    464     1
    454    456     1
    454    460     1
    453    457     1
    453    462     1
    452    456     1
    452    460     1
    449    454     1
    449    455     1
    502    509     1
    499    508     1
    496    505     1
    495    502     1
    494    496     1
    493    499     1
    492    496     1
    490    494     1
    490    495     1
    488    493     1
    485    488     1
    485    494     1
    485    495     1
    484    490     1
    484    493     1
    483    492     1
    482    484     1
    482    488     1
    481    485     1
    481    490     1
    480    484     1
    480    488     1
    477    482     1
    477    483     1
    530    537     1
    527    536     1
    524    533     1
    523    530     1
    522    524     1
    521    527     1
    520    524     1
    518    522     1
    518    523     1
    516    521     1
    513    516     1
    513    522     1
    513    523     1
    512    518     1
    512    521     1
    511    520     1
    510    512     1
    510    516     1
    509    513     1
    509    518     1
    508    512     1
    508    516     1
    505    510     1
    505    511     1
    558    565     1
    555    564     1
    552    561     1
    551    558     1
    550    552     1
    549    555     1
    548    552     1
    546    550     1
    546    551     1
    544    549     1
    541    544     1
    541    550     1
    541    551     1
    540    546     1
    540    549     1
    539    548     1
    538    540     1
    538    544     1
    537    541     1
    537    546     1
    536    540     1
    536    544     1
    533    538     1
    533    539     1
    586    593     1
    583    592     1
    580    589     1
    579    586     1
    578    580     1
    577    583     1
    576    580     1
    574    578     1
    574    579     1
    572    577     1
    569    572     1
    569    578     1
    569    579     1
    568    574     1
    568    577     1
    567    576     1
    566    568     1
    566    572     1
    565    569     1
    565    574     1
    564    568     1
    564    572     1
    561    566     1
    561    567     1
    614    621     1
    611    620     1
    608    617     1
    607    614     1
    606    608     1
    605    611     1
    604    608     1
    602    606     1
    602    607     1
    600    605     1
    597    600     1
    597    606     1
    597    607     1
    596    602     1
    596    605     1
    595    604     1
    594    596     1
    594    600     1
    593    597     1
    593    602     1
    592    596     1
    592    600     1
    589    594     1
    589    595     1
    642    649     1
    639    648     1
    636    645     1
    635    642     1
    634    636     1
    633    639     1
    632    636     1
    630    634     1
    630    635     1
    628    633     1
    625    628     1
    625    634     1
    625    635     1
    624    630     1
    624    633     1
    623    632     1
    622    624     1
    622    628     1
    621    625     1
    621    630     1
    620    624     1
    620    628     1
    617    622     1
    617    623     1
    670    677     1
    667    676     1
    664    673     1
    663    670     1
    662    664     1
    661    667     1
    660    664     1
    658    662     1
    658    663     1
    656    661     1
    653    656     1
    653    662     1
    653    663     1
    652    658     1
    652    661     1
    651    660     1
    650    652     1
    650    656     1
    649    653     1
    649    658     1
    648    652     1
    648    656     1
    645    650     1
    645    651     1
    691    698     1
    690    692     1
    689    695     1
    688    692     1
    686    690     1
    686    691     1
    684    689     1
    681    684     1
    681    690     1
    681    691     1
    680    686     1
    680    689     1
    679    688     1
    678    680     1
    678    684     1
    677    681     1
    677    686     1
    676    680     1
    676    684     1
    673    678     1
    673    679     1
     28     30     1
     28     31     1
     28     32     1
     27     30     1
     27     31     1
     27     32     1
     25     27     1
     25     28     1
     25     29     1
     24     27     1
     24     28     1
     24     29     1
     23     30     1
     23     31     1
     22     24     1
     22     25     1
     22     26     1
     21     24     1
     21     25     1
     21     26     1
     20     27     1
     20     28     1
     19     24     1
     19     25     1
     17     21     1
     17     22     1
     15     17     1
     13     15     1
     13     16     1
     11     12     1
     11     16     1
     10     11     1
     10     14     1
     10     17     1
      9     15     1
      8     13     1
      7     10     1
      7     15     1
      5     11     1
      5     13     1
      3      5     1
      2      5     1
     56     58     1
     56     59     1
     56     60     1
     55     58     1
     55     59     1
     55     60     1
     53     55     1
     53     56     1
     53     57     1
     52     55     1
     52     56     1
     52     57     1
     51     58     1
     51     59     1
     50     52     1
     50     53     1
     50     54     1
     49     52     1
     49     53     1
     49     54     1
     48     55     1
     48     56     1
     47     52     1
     47     53     1
     45     49     1
     45     50     1
     43     45     1
     41     43     1
     41     44     1
     39     40     1
     39     44     1
     38     39     1
     38     42     1
     38     45     1
     37     43     1
     36     41     1
     35     38     1
     35     43     1
     33     39     1
     33     41     1
     31     33     1
     30     33     1
     84     86     1
     84     87     1
     84     88     1
     83     86     1
     83     87     1
     83     88     1
     81     83     1
     81     84     1
     81     85     1
     80     83     1
     80     84     1
     80     85     1
     79     86     1
     79     87     1
     78     80     1
     78     81     1
     78     82     1
     77     80     1
     77     81     1
     77     82     1
     76     83     1
     76     84     1
     75     80     1
     75     81     1
     73     77     1
     73     78     1
     71     73     1
     69     71     1
     69     72     1
     67     68     1
     67     72     1
     66     67     1
     66     70     1
     66     73     1
     65     71     1
     64     69     1
     63     66     1
     63     71     1
     61     67     1
     61     69     1
     59     61     1
     58     61     1
    112    114     1
    112    115     1
    112    116     1
    111    114     1
    111    115     1
    111    116     1
    109    111     1
    109    112     1
    109    113     1
    108    111     1
    108    112     1
    108    113     1
    107    114     1
    107    115     1
    106    108     1
    106    109     1
    106    110     1
    105    108     1
    105    109     1
    105    110     1
    104    111     1
    104    112     1
    103    108     1
    103    109     1
    101    105     1
    101    106     1
     99    101     1
     97     99     1
     97    100     1
     95     96     1
     95    100     1
     94     95     1
     94     98     1
     94    101     1
     93     99     1
     92     97     1
     91     94     1
     91     99     1
     89     95     1
     89     97     1
     87     89     1
     86     89     1
    140    142     1
    140    143     1
    140    144     1
    139    142     1
    139    143     1
    139    144     1
    137    139     1
    137    140     1
    137    141     1
    136    139     1
    136    140     1
    136    141     1
    135    142     1
    135    143     1
    134    136     1
    134    137     1
    134    138     1
    133    136     1
    133    137     1
    133    138     1
    132    139     1
    132    140     1
    131    136     1
    131    137     1
    129    133     1
    129    134     1
    127    129     1
    125    127     1
    125    128     1
    123    124     1
    123    128     1
    122    123     1
    122    126     1
    122    129     1
    121    127     1
    120    125     1
    119    122     1
    119    127     1
    117    123     1
    117    125     1
    115    117     1
    114    117     1
    168    170     1
    168    171     1
    168    172     1
    167    170     1
    167    171     1
    167    172     1
    165    167     1
    165    168     1
    165    169     1
    164    167     1
    164    168     1
    164    169     1
    163    170     1
    163    171     1
    162    164     1
    162    165     1
    162    166     1
    161    164     1
    161    165     1
    161    166     1
    160    167     1
    160    168     1
    159    164     1
    159    165     1
    157    161     1
    157    162     1
    155    157     1
    153    155     1
    153    156     1
    151    152     1
    151    156     1
    150    151     1
    150    154     1
    150    157     1
    149    155     1
    148    153     1
    147    150     1
    147    155     1
    145    151     1
    145    153     1
    143    145     1
    142    145     1
    196    198     1
    196    199     1
    196    200     1
    195    198     1
    195    199     1
    195    200     1
    193    195     1
    193    196     1
    193    197     1
    192    195     1
    192    196     1
    192    197     1
    191    198     1
    191    199     1
    190    192     1
    190    193     1
    190    194     1
    189    192     1
    189    193     1
    189    194     1
    188    195     1
    188    196     1
    187    192     1
    187    193     1
    185    189     1
    185    190     1
    183    185     1
    181    183     1
    181    184     1
    179    180     1
    179    184     1
    178    179     1
    178    182     1
    178    185     1
    177    183     1
    176    181     1
    175    178     1
    175    183     1
    173    179     1
    173    181     1
    171    173     1
    170    173     1
    224    226     1
    224    227     1
    224    228     1
    223    226     1
    223    227     1
    223    228     1
    221    223     1
    221    224     1
    221    225     1
    220    223     1
    220    224     1
    220    225     1
    219    226     1
    219    227     1
    218    220     1
    218    221     1
    218    222     1
    217    220     1
    217    221     1
    217    222     1
    216    223     1
    216    224     1
    215    220     1
    215    221     1
    213    217     1
    213    218     1
    211    213     1
    209    211     1
    209    212     1
    207    208     1
    207    212     1
    206    207     1
    206    210     1
    206    213     1
    205    211     1
    204    209     1
    203    206     1
    203    211     1
    201    207     1
    201    209     1
    199    201     1
    198    201     1
    252    254     1
    252    255     1
    252    256     1
    251    254     1
    251    255     1
    251    256     1
    249    251     1
    249    252     1
    249    253     1
    248    251     1
    248    252     1
    248    253     1
    247    254     1
    247    255     1
    246    248     1
    246    249     1
    246    250     1
    245    248     1
    245    249     1
    245    250     1
    244    251     1
    244    252     1
    243    248     1
    243    249     1
    241    245     1
    241    246     1
    239    241     1
    237    239     1
    237    240     1
    235    236     1
    235    240     1
    234    235     1
    234    238     1
    234    241     1
    233    239     1
    232    237     1
    231    234     1
    231    239     1
    229    235     1
    229    237     1
    227    229     1
    226    229     1
    280    282     1
    280    283     1
    280    284     1
    279    282     1
    279    283     1
    279    284     1
    277    279     1
    277    280     1
    277    281     1
    276    279     1
    276    280     1
    276    281     1
    275    282     1
    275    283     1
    274    276     1
    274    277     1
    274    278     1
    273    276     1
    273    277     1
    273    278     1
    272    279     1
    272    280     1
    271    276     1
    271    277     1
    269    273     1
    269    274     1
    267    269     1
    265    267     1
    265    268     1
    263    264     1
    263    268     1
    262    263     1
    262    266     1
    262    269     1
    261    267     1
    260    265     1
    259    262     1
    259    267     1
    257    263     1
    257    265     1
    255    257     1
    254    257     1
    308    310     1
    308    311     1
    308    312     1
    307    310     1
    307    311     1
    307    312     1
    305    307     1
    305    308     1
    305    309     1
    304    307     1
    304    308     1
    304    309     1
    303    310     1
    303    311     1
    302    304     1
    302    305     1
    302    306     1
    301    304     1
    301    305     1
    301    306     1
    300    307     1
    300    308     1
    299    304     1
    299    305     1
    297    301     1
    297    302     1
    295    297     1
    293    295     1
    293    296     1
    291    292     1
    291    296     1
    290    291     1
    290    294     1
    290    297     1
    289    295     1
    288    293     1
    287    290     1
    287    295     1
    285    291     1
    285    293     1
    283    285     1
    282    285     1
    336    338     1
    336    339     1
    336    340     1
    335    338     1
    335    339     1
    335    340     1
    333    335     1
    333    336     1
    333    337     1
    332    335     1
    332    336     1
    332    337     1
    331    338     1
    331    339     1
    330    332     1
    330    333     1
    330    334     1
    329    332     1
    329    333     1
    329    334     1
    328    335     1
    328    336     1
    327    332     1
    327    333     1
    325    329     1
    325    330     1
    323    325     1
    321    323     1
    321    324     1
    319    320     1
    319    324     1
    318    319     1
    318    322     1
    318    325     1
    317    323     1
    316    321     1
    315    318     1
    315    323     1
    313    319     1
    313    321     1
    311    313     1
    310    313     1
    364    366     1
    364    367     1
    364    368     1
    363    366     1
    363    367     1
    363    368     1
    361    363     1
    361    364     1
    361    365     1
    360    363     1
    360    364     1
    360    365     1
    359    366     1
    359    367     1
    358    360     1
    358    361     1
    358    362     1
    357    360     1
    357    361     1
    357    362     1
    356    363     1
    356    364     1
    355    360     1
    355    361     1
    353    357     1
    353    358     1
    351    353     1
    349    351     1
    349    352     1
    347    348     1
    347    352     1
    346    347     1
    346    350     1
    346    353     1
    345    351     1
    344    349     1
    343    346     1
    343    351     1
    341    347     1
    341    349     1
    339    341     1
    338    341     1
    392    394     1
    392    395     1
    392    396     1
    391    394     1
    391    395     1
    391    396     1
    389    391     1
    389    392     1
    389    393     1
    388    391     1
    388    392     1
    388    393     1
    387    394     1
    387    395     1
    386    388     1
    386    389     1
    386    390     1
    385    388     1
    385    389     1
    385    390     1
    384    391     1
    384    392     1
    383    388     1
    383    389     1
    381    385     1
    381    386     1
    379    381     1
    377    379     1
    377    380     1
    375    376     1
    375    380     1
    374    375     1
    374    378     1
    374    381     1
    373    379     1
    372    377     1
    371    374     1
    371    379     1
    369    375     1
    369    377     1
    367    369     1
    366    369     1
    420    422     1
    420    423     1
    420    424     1
    419    422     1
    419    423     1
    419    424     1
    417    419     1
    417    420     1
    417    421     1
    416    419     1
    416    420     1
    416    421     1
    415    422     1
    415    423     1
    414    416     1
    414    417     1
    414    418     1
    413    416     1
    413    417     1
    413    418     1
    412    419     1
    412    420     1
    411    416     1
    411    417     1
    409    413     1
    409    414     1
    407    409     1
    405    407     1
    405    408     1
    403    404     1
    403    408     1
    402    403     1
    402    406     1
    402    409     1
    401    407     1
    400    405     1
    399    402     1
    399    407     1
    397    403     1
    397    405     1
    395    397     1
    394    397     1
    448    450     1
    448    451     1
    448    452     1
    447    450     1
    447    451     1
    447    452     1
    445    447     1
    445    448     1
    445    449     1
    444    447     1
    444    448     1
    444    449     1
    443    450     1
    443    451     1
    442    444     1
    442    445     1
    442    446     1
    441    444     1
    441    445     1
    441    446     1
    440    447     1
    440    448     1
    439    444     1
    439    445     1
    437    441     1
    437    442     1
    435    437     1
    433    435     1
    433    436     1
    431    432     1
    431    436     1
    430    431     1
    430    434     1
    430    437     1
    429    435     1
    428    433     1
    427    430     1
    427    435     1
    425    431     1
    425    433     1
    423    425     1
    422    425     1
    476    478     1
    476    479     1
    476    480     1
    475    478     1
    475    479     1
    475    480     1
    473    475     1
    473    476     1
    473    477     1
    472    475     1
    472    476     1
    472    477     1
    471    478     1
    471    479     1
    470    472     1
    470    473     1
    470    474     1
    469    472     1
    469    473     1
    469    474     1
    468    475     1
    468    476     1
    467    472     1
    467    473     1
    465    469     1
    465    470     1
    463    465     1
    461    463     1
    461    464     1
    459    460     1
    459    464     1
    458    459     1
    458    462     1
    458    465     1
    457    463     1
    456    461     1
    455    458     1
    455    463     1
    453    459     1
    453    461     1
    451    453     1
    450    453     1
    504    506     1
    504    507     1
    504    508     1
    503    506     1
    503    507     1
    503    508     1
    501    503     1
    501    504     1
    501    505     1
    500    503     1
    500    504     1
    500    505     1
    499    506     1
    499    507     1
    498    500     1
    498    501     1
    498    502     1
    497    500     1
    497    501     1
    497    502     1
    496    503     1
    496    504     1
    495    500     1
    495    501     1
    493    497     1
    493    498     1
    491    493     1
    489    491     1
    489    492     1
    487    488     1
    487    492     1
    486    487     1
    486    490     1
    486    493     1
    485    491     1
    484    489     1
    483    486     1
    483    491     1
    481    487     1
    481    489     1
    479    481     1
    478    481     1
    532    534     1
    532    535     1
    532    536     1
    531    534     1
    531    535     1
    531    536     1
    529    531     1
    529    532     1
    529    533     1
    528    531     1
    528    532     1
    528    533     1
    527    534     1
    527    535     1
    526    528     1
    526    529     1
    526    530     1
    525    528     1
    525    529     1
    525    530     1
    524    531     1
    524    532     1
    523    528     1
    523    529     1
    521    525     1
    521    526     1
    519    521     1
    517    519     1
    517    520     1
    515    516     1
    515    520     1
    514    515     1
    514    518     1
    514    521     1
    513    519     1
    512    517     1
    511    514     1
    511    519     1
    509    515     1
    509    517     1
    507    509     1
    506    509     1
    560    562     1
    560    563     1
    560    564     1
    559    562     1
    559    563     1
    559    564     1
    557    559     1
    557    560     1
    557    561     1
    556    559     1
    556    560     1
    556    561     1
    555    562     1
    555    563     1
    554    556     1
    554    557     1
    554    558     1
    553    556     1
    553    557     1
    553    558     1
    552    559     1
    552    560     1
    551    556     1
    551    557     1
    549    553     1
    549    554     1
    547    549     1
    545    547     1
    545    548     1
    543    544     1
    543    548     1
    542    543     1
    542    546     1
    542    549     1
    541    547     1
    540    545     1
    539    542     1
    539    547     1
    537    543     1
    537    545     1
    535    537     1
    534    537     1
    588    590     1
    588    591     1
    588    592     1
    587    590     1
    587    591     1
    587    592     1
    585    587     1
    585    588     1
    585    589     1
    584    587     1
    584    588     1
    584    589     1
    583    590     1
    583    591     1
    582    584     1
    582    585     1
    582    586     1
    581    584     1
    581    585     1
    581    586     1
    580    587     1
    580    588     1
    579    584     1
    579    585     1
    577    581     1
    577    582     1
    575    577     1
    573    575     1
    573    576     1
    571    572     1
    571    576     1
    570    571     1
    570    574     1
    570    577     1
    569    575     1
    568    573     1
    567    570     1
    567    575     1
    565    571     1
    565    573     1
    563    565     1
    562    565     1
    616    618     1
    616    619     1
    616    620     1
    615    618     1
    615    619     1
    615    620     1
    613    615     1
    613    616     1
    613    617     1
    612    615     1
    612    616     1
    612    617     1
    611    618     1
    611    619     1
    610    612     1
    610    613     1
    610    614     1
    609    612     1
    609    613     1
    609    614     1
    608    615     1
    608    616     1
    607    612     1
    607    613     1
    605    609     1
    605    610     1
    603    605     1
    601    603     1
    601    604     1
    599    600     1
    599    604     1
    598    599     1
    598    602     1
    598    605     1
    597    603     1
    596    601     1
    595    598     1
    595    603     1
    593    599     1
    593    601     1
    591    593     1
    590    593     1
    644    646     1
    644    647     1
    644    648     1
    643    646     1
    643    647     1
    643    648     1
    641    643     1
    641    644     1
    641    645     1
    640    643     1
    640    644     1
    640    645     1
    639    646     1
    639    647     1
    638    640     1
    638    641     1
    638    642     1
    637    640     1
    637    641     1
    637    642     1
    636    643     1
    636    644     1
    635    640     1
    635    641     1
    633    637     1
    633    638     1
    631    633     1
    629    631     1
    629    632     1
    627    628     1
    627    632     1
    626    627     1
    626    630     1
    626    633     1
    625    631     1
    624    629     1
    623    626     1
    623    631     1
    621    627     1
    621    629     1
    619    621     1
    618    621     1
    672    674     1
    672    675     1
    672    676     1
    671    674     1
    671    675     1
    671    676     1
    669    671     1
    669    672     1
    669    673     1
    668    671     1
    668    672     1
    668    673     1
    667    674     1
    667    675     1
    666    668     1
    666    669     1
    666    670     1
    665    668     1
    665    669     1
    665    670     1
    664    671     1
    664    672     1
    663    668     1
    663    669     1
    661    665     1
    661    666     1
    659    661     1
    657    659     1
    657    660     1
    655    656     1
    655    660     1
    654    655     1
    654    658     1
    654    661     1
    653    659     1
    652    657     1
    651    654     1
    651    659     1
    649    655     1
    649    657     1
    647    649     1
    646    649     1
    697    699     1
    697    700     1
    696    699     1
    696    700     1
    694    696     1
    694    697     1
    694    698     1
    693    696     1
    693    697     1
    693    698     1
    692    699     1
    692    700     1
    691    696     1
    691    697     1
    689    693     1
    689    694     1
    687    689     1
    685    687     1
    685    688     1
    683    684     1
    683    688     1
    682    683     1
    682    686     1
    682    689     1
    681    687     1
    680    685     1
    679    682     1
    679    687     1
    677    683     1
    677    685     1
    675    677     1
    674    677     1

[ angles ]
;    ai     aj     ak funct         c0         c1         c2         c3
     26     29     32     1   107.6200464 648.017920
     23     26     29     1   112.6300483 500.992160
     20     23     26     1   112.6300483 500.992160
     19     20     23     1   107.6200464 648.017920
     18     17     19     1   123.2000528 847.343680
     17     19     20     1   115.8200499 748.350240
     16     17     18     1   122.6000525 652.369280
     16     17     19     1   112.4100480 657.557440
     14     16     17     1   120.3300516 514.129920
     12     14     16     1   120.0200517 532.790560
      9     16     14     1   120.0200517 532.790560
      9     16     17     1   120.3300516 514.129920
      8      7     12     1   120.0200517 532.790560
      8      9     16     1   120.0200517 532.790560
      7      8      9     1   120.0200517 532.790560
      7     12     14     1   120.0200517 532.790560
      6      5      7     1   122.6000525 652.369280
      5      7      8     1   120.3300516 514.129920
      5      7     12     1   120.3300516 514.129920
      4      5      6     1   123.2000528 847.343680
      4      5      7     1   112.4100480 657.557440
      1      4      5     1   115.8200499 748.350240
     54     57     60     1   107.6200464 648.017920
     51     54     57     1   112.6300483 500.992160
     48     51     54     1   112.6300483 500.992160
     47     48     51     1   107.6200464 648.017920
     46     45     47     1   123.2000528 847.343680
     45     47     48     1   115.8200499 748.350240
     44     45     46     1   122.6000525 652.369280
     44     45     47     1   112.4100480 657.557440
     42     44     45     1   120.3300516 514.129920
     40     42     44     1   120.0200517 532.790560
     37     44     42     1   120.0200517 532.790560
     37     44     45     1   120.3300516 514.129920
     36     35     40     1   120.0200517 532.790560
     36     37     44     1   120.0200517 532.790560
     35     36     37     1   120.0200517 532.790560
     35     40     42     1   120.0200517 532.790560
     34     33     35     1   122.6000525 652.369280
     33     35     36     1   120.3300516 514.129920
     33     35     40     1   120.3300516 514.129920
     32     33     34     1   123.2000528 847.343680
     32     33     35     1   112.4100480 657.557440
     29     32     33     1   115.8200499 748.350240
     82     85     88     1   107.6200464 648.017920
     79     82     85     1   112.6300483 500.992160
     76     79     82     1   112.6300483 500.992160
     75     76     79     1   107.6200464 648.017920
     74     73     75     1   123.2000528 847.343680
     73     75     76     1   115.8200499 748.350240
     72     73     74     1   122.6000525 652.369280
     72     73     75     1   112.4100480 657.557440
     70     72     73     1   120.3300516 514.129920
     68     70     72     1   120.0200517 532.790560
     65     72     70     1   120.0200517 532.790560
     65     72     73     1   120.3300516 514.129920
     64     63     68     1   120.0200517 532.790560
     64     65     72     1   120.0200517 532.790560
     63     64     65     1   120.0200517 532.790560
     63     68     70     1   120.0200517 532.790560
     62     61     63     1   122.6000525 652.369280
     61     63     64     1   120.3300516 514.129920
     61     63     68     1   120.3300516 514.129920
     60     61     62     1   123.2000528 847.343680
     60     61     63     1   112.4100480 657.557440
     57     60     61     1   115.8200499 748.350240
    110    113    116     1   107.6200464 648.017920
    107    110    113     1   112.6300483 500.992160
    104    107    110     1   112.6300483 500.992160
    103    104    107     1   107.6200464 648.017920
    102    101    103     1   123.2000528 847.343680
    101    103    104     1   115.8200499 748.350240
    100    101    102     1   122.6000525 652.369280
    100    101    103     1   112.4100480 657.557440
     98    100    101     1   120.3300516 514.129920
     96     98    100     1   120.0200517 532.790560
     93    100     98     1   120.0200517 532.790560
     93    100    101     1   120.3300516 514.129920
     92     91     96     1   120.0200517 532.790560
     92     93    100     1   120.0200517 532.790560
     91     92     93     1   120.0200517 532.790560
     91     96     98     1   120.0200517 532.790560
     90     89     91     1   122.6000525 652.369280
     89     91     92     1   120.3300516 514.129920
     89     91     96     1   120.3300516 514.129920
     88     89     90     1   123.2000528 847.343680
     88     89     91     1   112.4100480 657.557440
     85     88     89     1   115.8200499 748.350240
    138    141    144     1   107.6200464 648.017920
    135    138    141     1   112.6300483 500.992160
    132    135    138     1   112.6300483 500.992160
    131    132    135     1   107.6200464 648.017920
    130    129    131     1   123.2000528 847.343680
    129    131    132     1   115.8200499 748.350240
    128    129    130     1   122.6000525 652.369280
    128    129    131     1   112.4100480 657.557440
    126    128    129     1   120.3300516 514.129920
    124    126    128     1   120.0200517 532.790560
    121    128    126     1   120.0200517 532.790560
    121    128    129     1   120.3300516 514.129920
    120    119    124     1   120.0200517 532.790560
    120    121    128     1   120.0200517 532.790560
    119    120    121     1   120.0200517 532.790560
    119    124    126     1   120.0200517 532.790560
    118    117    119     1   122.6000525 652.369280
    117    119    120     1   120.3300516 514.129920
    117    119    124     1   120.3300516 514.129920
    116    117    118     1   123.2000528 847.343680
    116    117    119     1   112.4100480 657.557440
    113    116    117     1   115.8200499 748.350240
    166    169    172     1   107.6200464 648.017920
    163    166    169     1   112.6300483 500.992160
    160    163    166     1   112.6300483 500.992160
    159    160    163     1   107.6200464 648.017920
    158    157    159     1   123.2000528 847.343680
    157    159    160     1   115.8200499 748.350240
    156    157    158     1   122.6000525 652.369280
    156    157    159     1   112.4100480 657.557440
    154    156    157     1   120.3300516 514.129920
    152    154    156     1   120.0200517 532.790560
    149    156    154     1   120.0200517 532.790560
    149    156    157     1   120.3300516 514.129920
    148    147    152     1   120.0200517 532.790560
    148    149    156     1   120.0200517 532.790560
    147    148    149     1   120.0200517 532.790560
    147    152    154     1   120.0200517 532.790560
    146    145    147     1   122.6000525 652.369280
    145    147    148     1   120.3300516 514.129920
    145    147    152     1   120.3300516 514.129920
    144    145    146     1   123.2000528 847.343680
    144    145    147     1   112.4100480 657.557440
    141    144    145     1   115.8200499 748.350240
    194    197    200     1   107.6200464 648.017920
    191    194    197     1   112.6300483 500.992160
    188    191    194     1   112.6300483 500.992160
    187    188    191     1   107.6200464 648.017920
    186    185    187     1   123.2000528 847.343680
    185    187    188     1   115.8200499 748.350240
    184    185    186     1   122.6000525 652.369280
    184    185    187     1   112.4100480 657.557440
    182    184    185     1   120.3300516 514.129920
    180    182    184     1   120.0200517 532.790560
    177    184    182     1   120.0200517 532.790560
    177    184    185     1   120.3300516 514.129920
    176    175    180     1   120.0200517 532.790560
    176    177    184     1   120.0200517 532.790560
    175    176    177     1   120.0200517 532.790560
    175    180    182     1   120.0200517 532.790560
    174    173    175     1   122.6000525 652.369280
    173    175    176     1   120.3300516 514.129920
    173    175    180     1   120.3300516 514.129920
    172    173    174     1   123.2000528 847.343680
    172    173    175     1   112.4100480 657.557440
    169    172    173     1   115.8200499 748.350240
    222    225    228     1   107.6200464 648.017920
    219    222    225     1   112.6300483 500.992160
    216    219    222     1   112.6300483 500.992160
    215    216    219     1   107.6200464 648.017920
    214    213    215     1   123.2000528 847.343680
    213    215    216     1   115.8200499 748.350240
    212    213    214     1   122.6000525 652.369280
    212    213    215     1   112.4100480 657.557440
    210    212    213     1   120.3300516 514.129920
    208    210    212     1   120.0200517 532.790560
    205    212    210     1   120.0200517 532.790560
    205    212    213     1   120.3300516 514.129920
    204    203    208     1   120.0200517 532.790560
    204    205    212     1   120.0200517 532.790560
    203    204    205     1   120.0200517 532.790560
    203    208    210     1   120.0200517 532.790560
    202    201    203     1   122.6000525 652.369280
    201    203    204     1   120.3300516 514.129920
    201    203    208     1   120.3300516 514.129920
    200    201    202     1   123.2000528 847.343680
    200    201    203     1   112.4100480 657.557440
    197    200    201     1   115.8200499 748.350240
    250    253    256     1   107.6200464 648.017920
    247    250    253     1   112.6300483 500.992160
    244    247    250     1   112.6300483 500.992160
    243    244    247     1   107.6200464 648.017920
    242    241    243     1   123.2000528 847.343680
    241    243    244     1   115.8200499 748.350240
    240    241    242     1   122.6000525 652.369280
    240    241    243     1   112.4100480 657.557440
    238    240    241     1   120.3300516 514.129920
    236    238    240     1   120.0200517 532.790560
    233    240    238     1   120.0200517 532.790560
    233    240    241     1   120.3300516 514.129920
    232    231    236     1   120.0200517 532.790560
    232    233    240     1   120.0200517 532.790560
    231    232    233     1   120.0200517 532.790560
    231    236    238     1   120.0200517 532.790560
    230    229    231     1   122.6000525 652.369280
    229    231    232     1   120.3300516 514.129920
    229    231    236     1   120.3300516 514.129920
    228    229    230     1   123.2000528 847.343680
    228    229    231     1   112.4100480 657.557440
    225    228    229     1   115.8200499 748.350240
    278    281    284     1   107.6200464 648.017920
    275    278    281     1   112.6300483 500.992160
    272    275    278     1   112.6300483 500.992160
    271    272    275     1   107.6200464 648.017920
    270    269    271     1   123.2000528 847.343680
    269    271    272     1   115.8200499 748.350240
    268    269    270     1   122.6000525 652.369280
    268    269    271     1   112.4100480 657.557440
    266    268    269     1   120.3300516 514.129920
    264    266    268     1   120.0200517 532.790560
    261    268    266     1   120.0200517 532.790560
    261    268    269     1   120.3300516 514.129920
    260    259    264     1   120.0200517 532.790560
    260    261    268     1   120.0200517 532.790560
    259    260    261     1   120.0200517 532.790560
    259    264    266     1   120.0200517 532.790560
    258    257    259     1   122.6000525 652.369280
    257    259    260     1   120.3300516 514.129920
    257    259    264     1   120.3300516 514.129920
    256    257    258     1   123.2000528 847.343680
    256    257    259     1   112.4100480 657.557440
    253    256    257     1   115.8200499 748.350240
    306    309    312     1   107.6200464 648.017920
    303    306    309     1   112.6300483 500.992160
    300    303    306     1   112.6300483 500.992160
    299    300    303     1   107.6200464 648.017920
    298    297    299     1   123.2000528 847.343680
    297    299    300     1   115.8200499 748.350240
    296    297    298     1   122.6000525 652.369280
    296    297    299     1   112.4100480 657.557440
    294    296    297     1   120.3300516 514.129920
    292    294    296     1   120.0200517 532.790560
    289    296    294     1   120.0200517 532.790560
    289    296    297     1   120.3300516 514.129920
    288    287    292     1   120.0200517 532.790560
    288    289    296     1   120.0200517 532.790560
    287    288    289     1   120.0200517 532.790560
    287    292    294     1   120.0200517 532.790560
    286    285    287     1   122.6000525 652.369280
    285    287    288     1   120.3300516 514.129920
    285    287    292     1   120.3300516 514.129920
    284    285    286     1   123.2000528 847.343680
    284    285    287     1   112.4100480 657.557440
    281    284    285     1   115.8200499 748.350240
    334    337    340     1   107.6200464 648.017920
    331    334    337     1   112.6300483 500.992160
    328    331    334     1   112.6300483 500.992160
    327    328    331     1   107.6200464 648.017920
    326    325    327     1   123.2000528 847.343680
    325    327    328     1   115.8200499 748.350240
    324    325    326     1   122.6000525 652.369280
    324    325    327     1   112.4100480 657.557440
    322    324    325     1   120.3300516 514.129920
    320    322    324     1   120.0200517 532.790560
    317    324    322     1   120.0200517 532.790560
    317    324    325     1   120.3300516 514.129920
    316    315    320     1   120.0200517 532.790560
    316    317    324     1   120.0200517 532.790560
    315    316    317     1   120.0200517 532.790560
    315    320    322     1   120.0200517 532.790560
    314    313    315     1   122.6000525 652.369280
    313    315    316     1   120.3300516 514.129920
    313    315    320     1   120.3300516 514.129920
    312    313    314     1   123.2000528 847.343680
    312    313    315     1   112.4100480 657.557440
    309    312    313     1   115.8200499 748.350240
    362    365    368     1   107.6200464 648.017920
    359    362    365     1   112.6300483 500.992160
    356    359    362     1   112.6300483 500.992160
    355    356    359     1   107.6200464 648.017920
    354    353    355     1   123.2000528 847.343680
    353    355    356     1   115.8200499 748.350240
    352    353    354     1   122.6000525 652.369280
    352    353    355     1   112.4100480 657.557440
    350    352    353     1   120.3300516 514.129920
    348    350    352     1   120.0200517 532.790560
    345    352    350     1   120.0200517 532.790560
    345    352    353     1   120.3300516 514.129920
    344    343    348     1   120.0200517 532.790560
    344    345    352     1   120.0200517 532.790560
    343    344    345     1   120.0200517 532.790560
    343    348    350     1   120.0200517 532.790560
    342    341    343     1   122.6000525 652.369280
    341    343    344     1   120.3300516 514.129920
    341    343    348     1   120.3300516 514.129920
    340    341    342     1   123.2000528 847.343680
    340    341    343     1   112.4100480 657.557440
    337    340    341     1   115.8200499 748.350240
    390    393    396     1   107.6200464 648.017920
    387    390    393     1   112.6300483 500.992160
    384    387    390     1   112.6300483 500.992160
    383    384    387     1   107.6200464 648.017920
    382    381    383     1   123.2000528 847.343680
    381    383    384     1   115.8200499 748.350240
    380    381    382     1   122.6000525 652.369280
    380    381    383     1   112.4100480 657.557440
    378    380    381     1   120.3300516 514.129920
    376    378    380     1   120.0200517 532.790560
    373    380    378     1   120.0200517 532.790560
    373    380    381     1   120.3300516 514.129920
    372    371    376     1   120.0200517 532.790560
    372    373    380     1   120.0200517 532.790560
    371    372    373     1   120.0200517 532.790560
    371    376    378     1   120.0200517 532.790560
    370    369    371     1   122.6000525 652.369280
    369    371    372     1   120.3300516 514.129920
    369    371    376     1   120.3300516 514.129920
    368    369    370     1   123.2000528 847.343680
    368    369    371     1   112.4100480 657.557440
    365    368    369     1   115.8200499 748.350240
    418    421    424     1   107.6200464 648.017920
    415    418    421     1   112.6300483 500.992160
    412    415    418     1   112.6300483 500.992160
    411    412    415     1   107.6200464 648.017920
    410    409    411     1   123.2000528 847.343680
    409    411    412     1   115.8200499 748.350240
    408    409    410     1   122.6000525 652.369280
    408    409    411     1   112.4100480 657.557440
    406    408    409     1   120.3300516 514.129920
    404    406    408     1   120.0200517 532.790560
    401    408    406     1   120.0200517 532.790560
    401    408    409     1   120.3300516 514.129920
    400    399    404     1   120.0200517 532.790560
    400    401    408     1   120.0200517 532.790560
    399    400    401     1   120.0200517 532.790560
    399    404    406     1   120.0200517 532.790560
    398    397    399     1   122.6000525 652.369280
    397    399    400     1   120.3300516 514.129920
    397    399    404     1   120.3300516 514.129920
    396    397    398     1   123.2000528 847.343680
    396    397    399     1   112.4100480 657.557440
    393    396    397     1   115.8200499 748.350240
    446    449    452     1   107.6200464 648.017920
    443    446    449     1   112.6300483 500.992160
    440    443    446     1   112.6300483 500.992160
    439    440    443     1   107.6200464 648.017920
    438    437    439     1   123.2000528 847.343680
    437    439    440     1   115.8200499 748.350240
    436    437    438     1   122.6000525 652.369280
    436    437    439     1   112.4100480 657.557440
    434    436    437     1   120.3300516 514.129920
    432    434    436     1   120.0200517 532.790560
    429    436    434     1   120.0200517 532.790560
    429    436    437     1   120.3300516 514.129920
    428    427    432     1   120.0200517 532.790560
    428    429    436     1   120.0200517 532.790560
    427    428    429     1   120.0200517 532.790560
    427    432    434     1   120.0200517 532.790560
    426    425    427     1   122.6000525 652.369280
    425    427    428     1   120.3300516 514.129920
    425    427    432     1   120.3300516 514.129920
    424    425    426     1   123.2000528 847.343680
    424    425    427     1   112.4100480 657.557440
    421    424    425     1   115.8200499 748.350240
    474    477    480     1   107.6200464 648.017920
    471    474    477     1   112.6300483 500.992160
    468    471    474     1   112.6300483 500.992160
    467    468    471     1   107.6200464 648.017920
    466    465    467     1   123.2000528 847.343680
    465    467    468     1   115.8200499 748.350240
    464    465    466     1   122.6000525 652.369280
    464    465    467     1   112.4100480 657.557440
    462    464    465     1   120.3300516 514.129920
    460    462    464     1   120.0200517 532.790560
    457    464    462     1   120.0200517 532.790560
    457    464    465     1   120.3300516 514.129920
    456    455    460     1   120.0200517 532.790560
    456    457    464     1   120.0200517 532.790560
    455    456    457     1   120.0200517 532.790560
    455    460    462     1   120.0200517 532.790560
    454    453    455     1   122.6000525 652.369280
    453    455    456     1   120.3300516 514.129920
    453    455    460     1   120.3300516 514.129920
    452    453    454     1   123.2000528 847.343680
    452    453    455     1   112.4100480 657.557440
    449    452    453     1   115.8200499 748.350240
    502    505    508     1   107.6200464 648.017920
    499    502    505     1   112.6300483 500.992160
    496    499    502     1   112.6300483 500.992160
    495    496    499     1   107.6200464 648.017920
    494    493    495     1   123.2000528 847.343680
    493    495    496     1   115.8200499 748.350240
    492    493    494     1   122.6000525 652.369280
    492    493    495     1   112.4100480 657.557440
    490    492    493     1   120.3300516 514.129920
    488    490    492     1   120.0200517 532.790560
    485    492    490     1   120.0200517 532.790560
    485    492    493     1   120.3300516 514.129920
    484    483    488     1   120.0200517 532.790560
    484    485    492     1   120.0200517 532.790560
    483    484    485     1   120.0200517 532.790560
    483    488    490     1   120.0200517 532.790560
    482    481    483     1   122.6000525 652.369280
    481    483    484     1   120.3300516 514.129920
    481    483    488     1   120.3300516 514.129920
    480    481    482     1   123.2000528 847.343680
    480    481    483     1   112.4100480 657.557440
    477    480    481     1   115.8200499 748.350240
    530    533    536     1   107.6200464 648.017920
    527    530    533     1   112.6300483 500.992160
    524    527    530     1   112.6300483 500.992160
    523    524    527     1   107.6200464 648.017920
    522    521    523     1   123.2000528 847.343680
    521    523    524     1   115.8200499 748.350240
    520    521    522     1   122.6000525 652.369280
    520    521    523     1   112.4100480 657.557440
    518    520    521     1   120.3300516 514.129920
    516    518    520     1   120.0200517 532.790560
    513    520    518     1   120.0200517 532.790560
    513    520    521     1   120.3300516 514.129920
    512    511    516     1   120.0200517 532.790560
    512    513    520     1   120.0200517 532.790560
    511    512    513     1   120.0200517 532.790560
    511    516    518     1   120.0200517 532.790560
    510    509    511     1   122.6000525 652.369280
    509    511    512     1   120.3300516 514.129920
    509    511    516     1   120.3300516 514.129920
    508    509    510     1   123.2000528 847.343680
    508    509    511     1   112.4100480 657.557440
    505    508    509     1   115.8200499 748.350240
    558    561    564     1   107.6200464 648.017920
    555    558    561     1   112.6300483 500.992160
    552    555    558     1   112.6300483 500.992160
    551    552    555     1   107.6200464 648.017920
    550    549    551     1   123.2000528 847.343680
    549    551    552     1   115.8200499 748.350240
    548    549    550     1   122.6000525 652.369280
    548    549    551     1   112.4100480 657.557440
    546    548    549     1   120.3300516 514.129920
    544    546    548     1   120.0200517 532.790560
    541    548    546     1   120.0200517 532.790560
    541    548    549     1   120.3300516 514.129920
    540    539    544     1   120.0200517 532.790560
    540    541    548     1   120.0200517 532.790560
    539    540    541     1   120.0200517 532.790560
    539    544    546     1   120.0200517 532.790560
    538    537    539     1   122.6000525 652.369280
    537    539    540     1   120.3300516 514.129920
    537    539    544     1   120.3300516 514.129920
    536    537    538     1   123.2000528 847.343680
    536    537    539     1   112.4100480 657.557440
    533    536    537     1   115.8200499 748.350240
    586    589    592     1   107.6200464 648.017920
    583    586    589     1   112.6300483 500.992160
    580    583    586     1   112.6300483 500.992160
    579    580    583     1   107.6200464 648.017920
    578    577    579     1   123.2000528 847.343680
    577    579    580     1   115.8200499 748.350240
    576    577    578     1   122.6000525 652.369280
    576    577    579     1   112.4100480 657.557440
    574    576    577     1   120.3300516 514.129920
    572    574    576     1   120.0200517 532.790560
    569    576    574     1   120.0200517 532.790560
    569    576    577     1   120.3300516 514.129920
    568    567    572     1   120.0200517 532.790560
    568    569    576     1   120.0200517 532.790560
    567    568    569     1   120.0200517 532.790560
    567    572    574     1   120.0200517 532.790560
    566    565    567     1   122.6000525 652.369280
    565    567    568     1   120.3300516 514.129920
    565    567    572     1   120.3300516 514.129920
    564    565    566     1   123.2000528 847.343680
    564    565    567     1   112.4100480 657.557440
    561    564    565     1   115.8200499 748.350240
    614    617    620     1   107.6200464 648.017920
    611    614    617     1   112.6300483 500.992160
    608    611    614     1   112.6300483 500.992160
    607    608    611     1   107.6200464 648.017920
    606    605    607     1   123.2000528 847.343680
    605    607    608     1   115.8200499 748.350240
    604    605    606     1   122.6000525 652.369280
    604    605    607     1   112.4100480 657.557440
    602    604    605     1   120.3300516 514.129920
    600    602    604     1   120.0200517 532.790560
    597    604    602     1   120.0200517 532.790560
    597    604    605     1   120.3300516 514.129920
    596    595    600     1   120.0200517 532.790560
    596    597    604     1   120.0200517 532.790560
    595    596    597     1   120.0200517 532.790560
    595    600    602     1   120.0200517 532.790560
    594    593    595     1   122.6000525 652.369280
    593    595    596     1   120.3300516 514.129920
    593    595    600     1   120.3300516 514.129920
    592    593    594     1   123.2000528 847.343680
    592    593    595     1   112.4100480 657.557440
    589    592    593     1   115.8200499 748.350240
    642    645    648     1   107.6200464 648.017920
    639    642    645     1   112.6300483 500.992160
    636    639    642     1   112.6300483 500.992160
    635    636    639     1   107.6200464 648.017920
    634    633    635     1   123.2000528 847.343680
    633    635    636     1   115.8200499 748.350240
    632    633    634     1   122.6000525 652.369280
    632    633    635     1   112.4100480 657.557440
    630    632    633     1   120.3300516 514.129920
    628    630    632     1   120.0200517 532.790560
    625    632    630     1   120.0200517 532.790560
    625    632    633     1   120.3300516 514.129920
    624    623    628     1   120.0200517 532.790560
    624    625    632     1   120.0200517 532.790560
    623    624    625     1   120.0200517 532.790560
    623    628    630     1   120.0200517 532.790560
    622    621    623     1   122.6000525 652.369280
    621    623    624     1   120.3300516 514.129920
    621    623    628     1   120.3300516 514.129920
    620    621    622     1   123.2000528 847.343680
    620    621    623     1   112.4100480 657.557440
    617    620    621     1   115.8200499 748.350240
    670    673    676     1   107.6200464 648.017920
    667    670    673     1   112.6300483 500.992160
    664    667    670     1   112.6300483 500.992160
    663    664    667     1   107.6200464 648.017920
    662    661    663     1   123.2000528 847.343680
    661    663    664     1   115.8200499 748.350240
    660    661    662     1   122.6000525 652.369280
    660    661    663     1   112.4100480 657.557440
    658    660    661     1   120.3300516 514.129920
    656    658    660     1   120.0200517 532.790560
    653    660    658     1   120.0200517 532.790560
    653    660    661     1   120.3300516 514.129920
    652    651    656     1   120.0200517 532.790560
    652    653    660     1   120.0200517 532.790560
    651    652    653     1   120.0200517 532.790560
    651    656    658     1   120.0200517 532.790560
    650    649    651     1   122.6000525 652.369280
    649    651    652     1   120.3300516 514.129920
    649    651    656     1   120.3300516 514.129920
    648    649    650     1   123.2000528 847.343680
    648    649    651     1   112.4100480 657.557440
    645    648    649     1   115.8200499 748.350240
    692    695    698     1   112.6300483 500.992160
    691    692    695     1   107.6200464 648.017920
    690    689    691     1   123.2000528 847.343680
    689    691    692     1   115.8200499 748.350240
    688    689    690     1   122.6000525 652.369280
    688    689    691     1   112.4100480 657.557440
    686    688    689     1   120.3300516 514.129920
    684    686    688     1   120.0200517 532.790560
    681    688    686     1   120.0200517 532.790560
    681    688    689     1   120.3300516 514.129920
    680    679    684     1   120.0200517 532.790560
    680    681    688     1   120.0200517 532.790560
    679    680    681     1   120.0200517 532.790560
    679    684    686     1   120.0200517 532.790560
    678    677    679     1   122.6000525 652.369280
    677    679    680     1   120.3300516 514.129920
    677    679    684     1   120.3300516 514.129920
    676    677    678     1   123.2000528 847.343680
    676    677    679     1   112.4100480 657.557440
    673    676    677     1   115.8200499 748.350240
     28     26     29     1   109.6800468 362.083360
     27     26     28     1   107.7300462 299.574400
     27     26     29     1   109.6800468 362.083360
     26     29     30     1   109.5900471 362.167040
     26     29     31     1   109.5900471 362.167040
     25     23     26     1   109.6800468 362.083360
     24     23     25     1   107.7300462 299.574400
     24     23     26     1   109.6800468 362.083360
     23     26     27     1   109.6800468 362.083360
     23     26     28     1   109.6800468 362.083360
     22     20     23     1   109.5900471 362.167040
     21     20     22     1   108.5500468 298.235520
     21     20     23     1   109.5900471 362.167040
     20     23     24     1   109.6800468 362.083360
     20     23     25     1   109.6800468 362.083360
     19     20     21     1   110.3400472 470.281600
     19     20     22     1   110.3400472 470.281600
     15     14     16     1   119.8800511 375.723200
     13     12     14     1   119.8800511 375.723200
     12     14     15     1   119.8800511 375.723200
     10      9     16     1   119.8800511 375.723200
      9      8     11     1   119.8800511 375.723200
      8      9     10     1   119.8800511 375.723200
      7      8     11     1   119.8800511 375.723200
      7     12     13     1   119.8800511 375.723200
      3      1      4     1   110.3400472 470.281600
      2      1      3     1   108.5500468 298.235520
      2      1      4     1   110.3400472 470.281600
     56     54     57     1   109.6800468 362.083360
     55     54     56     1   107.7300462 299.574400
     55     54     57     1   109.6800468 362.083360
     54     57     58     1   109.5900471 362.167040
     54     57     59     1   109.5900471 362.167040
     53     51     54     1   109.6800468 362.083360
     52     51     53     1   107.7300462 299.574400
     52     51     54     1   109.6800468 362.083360
     51     54     55     1   109.6800468 362.083360
     51     54     56     1   109.6800468 362.083360
     50     48     51     1   109.5900471 362.167040
     49     48     50     1   108.5500468 298.235520
     49     48     51     1   109.5900471 362.167040
     48     51     52     1   109.6800468 362.083360
     48     51     53     1   109.6800468 362.083360
     47     48     49     1   110.3400472 470.281600
     47     48     50     1   110.3400472 470.281600
     43     42     44     1   119.8800511 375.723200
     41     40     42     1   119.8800511 375.723200
     40     42     43     1   119.8800511 375.723200
     38     37     44     1   119.8800511 375.723200
     37     36     39     1   119.8800511 375.723200
     36     37     38     1   119.8800511 375.723200
     35     36     39     1   119.8800511 375.723200
     35     40     41     1   119.8800511 375.723200
     31     29     32     1   110.3400472 470.281600
     30     29     31     1   108.5500468 298.235520
     30     29     32     1   110.3400472 470.281600
     84     82     85     1   109.6800468 362.083360
     83     82     84     1   107.7300462 299.574400
     83     82     85     1   109.6800468 362.083360
     82     85     86     1   109.5900471 362.167040
     82     85     87     1   109.5900471 362.167040
     81     79     82     1   109.6800468 362.083360
     80     79     81     1   107.7300462 299.574400
     80     79     82     1   109.6800468 362.083360
     79     82     83     1   109.6800468 362.083360
     79     82     84     1   109.6800468 362.083360
     78     76     79     1   109.5900471 362.167040
     77     76     78     1   108.5500468 298.235520
     77     76     79     1   109.5900471 362.167040
     76     79     80     1   109.6800468 362.083360
     76     79     81     1   109.6800468 362.083360
     75     76     77     1   110.3400472 470.281600
     75     76     78     1   110.3400472 470.281600
     71     70     72     1   119.8800511 375.723200
     69     68     70     1   119.8800511 375.723200
     68     70     71     1   119.8800511 375.723200
     66     65     72     1   119.8800511 375.723200
     65     64     67     1   119.8800511 375.723200
     64     65     66     1   119.8800511 375.723200
     63     64     67     1   119.8800511 375.723200
     63     68     69     1   119.8800511 375.723200
     59     57     60     1   110.3400472 470.281600
     58     57     59     1   108.5500468 298.235520
     58     57     60     1   110.3400472 470.281600
    112    110    113     1   109.6800468 362.083360
    111    110    112     1   107.7300462 299.574400
    111    110    113     1   109.6800468 362.083360
    110    113    114     1   109.5900471 362.167040
    110    113    115     1   109.5900471 362.167040
    109    107    110     1   109.6800468 362.083360
    108    107    109     1   107.7300462 299.574400
    108    107    110     1   109.6800468 362.083360
    107    110    111     1   109.6800468 362.083360
    107    110    112     1   109.6800468 362.083360
    106    104    107     1   109.5900471 362.167040
    105    104    106     1   108.5500468 298.235520
    105    104    107     1   109.5900471 362.167040
    104    107    108     1   109.6800468 362.083360
    104    107    109     1   109.6800468 362.083360
    103    104    105     1   110.3400472 470.281600
    103    104    106     1   110.3400472 470.281600
     99     98    100     1   119.8800511 375.723200
     97     96     98     1   119.8800511 375.723200
     96     98     99     1   119.8800511 375.723200
     94     93    100     1   119.8800511 375.723200
     93     92     95     1   119.8800511 375.723200
     92     93     94     1   119.8800511 375.723200
     91     92     95     1   119.8800511 375.723200
     91     96     97     1   119.8800511 375.723200
     87     85     88     1   110.3400472 470.281600
     86     85     87     1   108.5500468 298.235520
     86     85     88     1   110.3400472 470.281600
    140    138    141     1   109.6800468 362.083360
    139    138    140     1   107.7300462 299.574400
    139    138    141     1   109.6800468 362.083360
    138    141    142     1   109.5900471 362.167040
    138    141    143     1   109.5900471 362.167040
    137    135    138     1   109.6800468 362.083360
    136    135    137     1   107.7300462 299.574400
    136    135    138     1   109.6800468 362.083360
    135    138    139     1   109.6800468 362.083360
    135    138    140     1   109.6800468 362.083360
    134    132    135     1   109.5900471 362.167040
    133    132    134     1   108.5500468 298.235520
    133    132    135     1   109.5900471 362.167040
    132    135    136     1   109.6800468 362.083360
    132    135    137     1   109.6800468 362.083360
    131    132    133     1   110.3400472 470.281600
    131    132    134     1   110.3400472 470.281600
    127    126    128     1   119.8800511 375.723200
    125    124    126     1   119.8800511 375.723200
    124    126    127     1   119.8800511 375.723200
    122    121    128     1   119.8800511 375.723200
    121    120    123     1   119.8800511 375.723200
    120    121    122     1   119.8800511 375.723200
    119    120    123     1   119.8800511 375.723200
    119    124    125     1   119.8800511 375.723200
    115    113    116     1   110.3400472 470.281600
    114    113    115     1   108.5500468 298.235520
    114    113    116     1   110.3400472 470.281600
    168    166    169     1   109.6800468 362.083360
    167    166    168     1   107.7300462 299.574400
    167    166    169     1   109.6800468 362.083360
    166    169    170     1   109.5900471 362.167040
    166    169    171     1   109.5900471 362.167040
    165    163    166     1   109.6800468 362.083360
    164    163    165     1   107.7300462 299.574400
    164    163    166     1   109.6800468 362.083360
    163    166    167     1   109.6800468 362.083360
    163    166    168     1   109.6800468 362.083360
    162    160    163     1   109.5900471 362.167040
    161    160    162     1   108.5500468 298.235520
    161    160    163     1   109.5900471 362.167040
    160    163    164     1   109.6800468 362.083360
    160    163    165     1   109.6800468 362.083360
    159    160    161     1   110.3400472 470.281600
    159    160    162     1   110.3400472 470.281600
    155    154    156     1   119.8800511 375.723200
    153    152    154     1   119.8800511 375.723200
    152    154    155     1   119.8800511 375.723200
    150    149    156     1   119.8800511 375.723200
    149    148    151     1   119.8800511 375.723200
    148    149    150     1   119.8800511 375.723200
    147    148    151     1   119.8800511 375.723200
    147    152    153     1   119.8800511 375.723200
    143    141    144     1   110.3400472 470.281600
    142    141    143     1   108.5500468 298.235520
    142    141    144     1   110.3400472 470.281600
    196    194    197     1   109.6800468 362.083360
    195    194    196     1   107.7300462 299.574400
    195    194    197     1   109.6800468 362.083360
    194    197    198     1   109.5900471 362.167040
    194    197    199     1   109.5900471 362.167040
    193    191    194     1   109.6800468 362.083360
    192    191    193     1   107.7300462 299.574400
    192    191    194     1   109.6800468 362.083360
    191    194    195     1   109.6800468 362.083360
    191    194    196     1   109.6800468 362.083360
    190    188    191     1   109.5900471 362.167040
    189    188    190     1   108.5500468 298.235520
    189    188    191     1   109.5900471 362.167040
    188    191    192     1   109.6800468 362.083360
    188    191    193     1   109.6800468 362.083360
    187    188    189     1   110.3400472 470.281600
    187    188    190     1   110.3400472 470.281600
    183    182    184     1   119.8800511 375.723200
    181    180    182     1   119.8800511 375.723200
    180    182    183     1   119.8800511 375.723200
    178    177    184     1   119.8800511 375.723200
    177    176    179     1   119.8800511 375.723200
    176    177    178     1   119.8800511 375.723200
    175    176    179     1   119.8800511 375.723200
    175    180    181     1   119.8800511 375.723200
    171    169    172     1   110.3400472 470.281600
    170    169    171     1   108.5500468 298.235520
    170    169    172     1   110.3400472 470.281600
    224    222    225     1   109.6800468 362.083360
    223    222    224     1   107.7300462 299.574400
    223    222    225     1   109.6800468 362.083360
    222    225    226     1   109.5900471 362.167040
    222    225    227     1   109.5900471 362.167040
    221    219    222     1   109.6800468 362.083360
    220    219    221     1   107.7300462 299.574400
    220    219    222     1   109.6800468 362.083360
    219    222    223     1   109.6800468 362.083360
    219    222    224     1   109.6800468 362.083360
    218    216    219     1   109.5900471 362.167040
    217    216    218     1   108.5500468 298.235520
    217    216    219     1   109.5900471 362.167040
    216    219    220     1   109.6800468 362.083360
    216    219    221     1   109.6800468 362.083360
    215    216    217     1   110.3400472 470.281600
    215    216    218     1   110.3400472 470.281600
    211    210    212     1   119.8800511 375.723200
    209    208    210     1   119.8800511 375.723200
    208    210    211     1   119.8800511 375.723200
    206    205    212     1   119.8800511 375.723200
    205    204    207     1   119.8800511 375.723200
    204    205    206     1   119.8800511 375.723200
    203    204    207     1   119.8800511 375.723200
    203    208    209     1   119.8800511 375.723200
    199    197    200     1   110.3400472 470.281600
    198    197    199     1   108.5500468 298.235520
    198    197    200     1   110.3400472 470.281600
    252    250    253     1   109.6800468 362.083360
    251    250    252     1   107.7300462 299.574400
    251    250    253     1   109.6800468 362.083360
    250    253    254     1   109.5900471 362.167040
    250    253    255     1   109.5900471 362.167040
    249    247    250     1   109.6800468 362.083360
    248    247    249     1   107.7300462 299.574400
    248    247    250     1   109.6800468 362.083360
    247    250    251     1   109.6800468 362.083360
    247    250    252     1   109.6800468 362.083360
    246    244    247     1   109.5900471 362.167040
    245    244    246     1   108.5500468 298.235520
    245    244    247     1   109.5900471 362.167040
    244    247    248     1   109.6800468 362.083360
    244    247    249     1   109.6800468 362.083360
    243    244    245     1   110.3400472 470.281600
    243    244    246     1   110.3400472 470.281600
    239    238    240     1   119.8800511 375.723200
    237    236    238     1   119.8800511 375.723200
    236    238    239     1   119.8800511 375.723200
    234    233    240     1   119.8800511 375.723200
    233    232    235     1   119.8800511 375.723200
    232    233    234     1   119.8800511 375.723200
    231    232    235     1   119.8800511 375.723200
    231    236    237     1   119.8800511 375.723200
    227    225    228     1   110.3400472 470.281600
    226    225    227     1   108.5500468 298.235520
    226    225    228     1   110.3400472 470.281600
    280    278    281     1   109.6800468 362.083360
    279    278    280     1   107.7300462 299.574400
    279    278    281     1   109.6800468 362.083360
    278    281    282     1   109.5900471 362.167040
    278    281    283     1   109.5900471 362.167040
    277    275    278     1   109.6800468 362.083360
    276    275    277     1   107.7300462 299.574400
    276    275    278     1   109.6800468 362.083360
    275    278    279     1   109.6800468 362.083360
    275    278    280     1   109.6800468 362.083360
    274    272    275     1   109.5900471 362.167040
    273    272    274     1   108.5500468 298.235520
    273    272    275     1   109.5900471 362.167040
    272    275    276     1   109.6800468 362.083360
    272    275    277     1   109.6800468 362.083360
    271    272    273     1   110.3400472 470.281600
    271    272    274     1   110.3400472 470.281600
    267    266    268     1   119.8800511 375.723200
    265    264    266     1   119.8800511 375.723200
    264    266    267     1   119.8800511 375.723200
    262    261    268     1   119.8800511 375.723200
    261    260    263     1   119.8800511 375.723200
    260    261    262     1   119.8800511 375.723200
    259    260    263     1   119.8800511 375.723200
    259    264    265     1   119.8800511 375.723200
    255    253    256     1   110.3400472 470.281600
    254    253    255     1   108.5500468 298.235520
    254    253    256     1   110.3400472 470.281600
    308    306    309     1   109.6800468 362.083360
    307    306    308     1   107.7300462 299.574400
    307    306    309     1   109.6800468 362.083360
    306    309    310     1   109.5900471 362.167040
    306    309    311     1   109.5900471 362.167040
    305    303    306     1   109.6800468 362.083360
    304    303    305     1   107.7300462 299.574400
    304    303    306     1   109.6800468 362.083360
    303    306    307     1   109.6800468 362.083360
    303    306    308     1   109.6800468 362.083360
    302    300    303     1   109.5900471 362.167040
    301    300    302     1   108.5500468 298.235520
    301    300    303     1   109.5900471 362.167040
    300    303    304     1   109.6800468 362.083360
    300    303    305     1   109.6800468 362.083360
    299    300    301     1   110.3400472 470.281600
    299    300    302     1   110.3400472 470.281600
    295    294    296     1   119.8800511 375.723200
    293    292    294     1   119.8800511 375.723200
    292    294    295     1   119.8800511 375.723200
    290    289    296     1   119.8800511 375.723200
    289    288    291     1   119.8800511 375.723200
    288    289    290     1   119.8800511 375.723200
    287    288    291     1   119.8800511 375.723200
    287    292    293     1   119.8800511 375.723200
    283    281    284     1   110.3400472 470.281600
    282    281    283     1   108.5500468 298.235520
    282    281    284     1   110.3400472 470.281600
    336    334    337     1   109.6800468 362.083360
    335    334    336     1   107.7300462 299.574400
    335    334    337     1   109.6800468 362.083360
    334    337    338     1   109.5900471 362.167040
    334    337    339     1   109.5900471 362.167040
    333    331    334     1   109.6800468 362.083360
    332    331    333     1   107.7300462 299.574400
    332    331    334     1   109.6800468 362.083360
    331    334    335     1   109.6800468 362.083360
    331    334    336     1   109.6800468 362.083360
    330    328    331     1   109.5900471 362.167040
    329    328    330     1   108.5500468 298.235520
    329    328    331     1   109.5900471 362.167040
    328    331    332     1   109.6800468 362.083360
    328    331    333     1   109.6800468 362.083360
    327    328    329     1   110.3400472 470.281600
    327    328    330     1   110.3400472 470.281600
    323    322    324     1   119.8800511 375.723200
    321    320    322     1   119.8800511 375.723200
    320    322    323     1   119.8800511 375.723200
    318    317    324     1   119.8800511 375.723200
    317    316    319     1   119.8800511 375.723200
    316    317    318     1   119.8800511 375.723200
    315    316    319     1   119.8800511 375.723200
    315    320    321     1   119.8800511 375.723200
    311    309    312     1   110.3400472 470.281600
    310    309    311     1   108.5500468 298.235520
    310    309    312     1   110.3400472 470.281600
    364    362    365     1   109.6800468 362.083360
    363    362    364     1   107.7300462 299.574400
    363    362    365     1   109.6800468 362.083360
    362    365    366     1   109.5900471 362.167040
    362    365    367     1   109.5900471 362.167040
    361    359    362     1   109.6800468 362.083360
    360    359    361     1   107.7300462 299.574400
    360    359    362     1   109.6800468 362.083360
    359    362    363     1   109.6800468 362.083360
    359    362    364     1   109.6800468 362.083360
    358    356    359     1   109.5900471 362.167040
    357    356    358     1   108.5500468 298.235520
    357    356    359     1   109.5900471 362.167040
    356    359    360     1   109.6800468 362.083360
    356    359    361     1   109.6800468 362.083360
    355    356    357     1   110.3400472 470.281600
    355    356    358     1   110.3400472 470.281600
    351    350    352     1   119.8800511 375.723200
    349    348    350     1   119.8800511 375.723200
    348    350    351     1   119.8800511 375.723200
    346    345    352     1   119.8800511 375.723200
    345    344    347     1   119.8800511 375.723200
    344    345    346     1   119.8800511 375.723200
    343    344    347     1   119.8800511 375.723200
    343    348    349     1   119.8800511 375.723200
    339    337    340     1   110.3400472 470.281600
    338    337    339     1   108.5500468 298.235520
    338    337    340     1   110.3400472 470.281600
    392    390    393     1   109.6800468 362.083360
    391    390    392     1   107.7300462 299.574400
    391    390    393     1   109.6800468 362.083360
    390    393    394     1   109.5900471 362.167040
    390    393    395     1   109.5900471 362.167040
    389    387    390     1   109.6800468 362.083360
    388    387    389     1   107.7300462 299.574400
    388    387    390     1   109.6800468 362.083360
    387    390    391     1   109.6800468 362.083360
    387    390    392     1   109.6800468 362.083360
    386    384    387     1   109.5900471 362.167040
    385    384    386     1   108.5500468 298.235520
    385    384    387     1   109.5900471 362.167040
    384    387    388     1   109.6800468 362.083360
    384    387    389     1   109.6800468 362.083360
    383    384    385     1   110.3400472 470.281600
    383    384    386     1   110.3400472 470.281600
    379    378    380     1   119.8800511 375.723200
    377    376    378     1   119.8800511 375.723200
    376    378    379     1   119.8800511 375.723200
    374    373    380     1   119.8800511 375.723200
    373    372    375     1   119.8800511 375.723200
    372    373    374     1   119.8800511 375.723200
    371    372    375     1   119.8800511 375.723200
    371    376    377     1   119.8800511 375.723200
    367    365    368     1   110.3400472 470.281600
    366    365    367     1   108.5500468 298.235520
    366    365    368     1   110.3400472 470.281600
    420    418    421     1   109.6800468 362.083360
    419    418    420     1   107.7300462 299.574400
    419    418    421     1   109.6800468 362.083360
    418    421    422     1   109.5900471 362.167040
    418    421    423     1   109.5900471 362.167040
    417    415    418     1   109.6800468 362.083360
    416    415    417     1   107.7300462 299.574400
    416    415    418     1   109.6800468 362.083360
    415    418    419     1   109.6800468 362.083360
    415    418    420     1   109.6800468 362.083360
    414    412    415     1   109.5900471 362.167040
    413    412    414     1   108.5500468 298.235520
    413    412    415     1   109.5900471 362.167040
    412    415    416     1   109.6800468 362.083360
    412    415    417     1   109.6800468 362.083360
    411    412    413     1   110.3400472 470.281600
    411    412    414     1   110.3400472 470.281600
    407    406    408     1   119.8800511 375.723200
    405    404    406     1   119.8800511 375.723200
    404    406    407     1   119.8800511 375.723200
    402    401    408     1   119.8800511 375.723200
    401    400    403     1   119.8800511 375.723200
    400    401    402     1   119.8800511 375.723200
    399    400    403     1   119.8800511 375.723200
    399    404    405     1   119.8800511 375.723200
    395    393    396     1   110.3400472 470.281600
    394    393    395     1   108.5500468 298.235520
    394    393    396     1   110.3400472 470.281600
    448    446    449     1   109.6800468 362.083360
    447    446    448     1   107.7300462 299.574400
    447    446    449     1   109.6800468 362.083360
    446    449    450     1   109.5900471 362.167040
    446    449    451     1   109.5900471 362.167040
    445    443    446     1   109.6800468 362.083360
    444    443    445     1   107.7300462 299.574400
    444    443    446     1   109.6800468 362.083360
    443    446    447     1   109.6800468 362.083360
    443    446    448     1   109.6800468 362.083360
    442    440    443     1   109.5900471 362.167040
    441    440    442     1   108.5500468 298.235520
    441    440    443     1   109.5900471 362.167040
    440    443    444     1   109.6800468 362.083360
    440    443    445     1   109.6800468 362.083360
    439    440    441     1   110.3400472 470.281600
    439    440    442     1   110.3400472 470.281600
    435    434    436     1   119.8800511 375.723200
    433    432    434     1   119.8800511 375.723200
    432    434    435     1   119.8800511 375.723200
    430    429    436     1   119.8800511 375.723200
    429    428    431     1   119.8800511 375.723200
    428    429    430     1   119.8800511 375.723200
    427    428    431     1   119.8800511 375.723200
    427    432    433     1   119.8800511 375.723200
    423    421    424     1   110.3400472 470.281600
    422    421    423     1   108.5500468 298.235520
    422    421    424     1   110.3400472 470.281600
    476    474    477     1   109.6800468 362.083360
    475    474    476     1   107.7300462 299.574400
    475    474    477     1   109.6800468 362.083360
    474    477    478     1   109.5900471 362.167040
    474    477    479     1   109.5900471 362.167040
    473    471    474     1   109.6800468 362.083360
    472    471    473     1   107.7300462 299.574400
    472    471    474     1   109.6800468 362.083360
    471    474    475     1   109.6800468 362.083360
    471    474    476     1   109.6800468 362.083360
    470    468    471     1   109.5900471 362.167040
    469    468    470     1   108.5500468 298.235520
    469    468    471     1   109.5900471 362.167040
    468    471    472     1   109.6800468 362.083360
    468    471    473     1   109.6800468 362.083360
    467    468    469     1   110.3400472 470.281600
    467    468    470     1   110.3400472 470.281600
    463    462    464     1   119.8800511 375.723200
    461    460    462     1   119.8800511 375.723200
    460    462    463     1   119.8800511 375.723200
    458    457    464     1   119.8800511 375.723200
    457    456    459     1   119.8800511 375.723200
    456    457    458     1   119.8800511 375.723200
    455    456    459     1   119.8800511 375.723200
    455    460    461     1   119.8800511 375.723200
    451    449    452     1   110.3400472 470.281600
    450    449    451     1   108.5500468 298.235520
    450    449    452     1   110.3400472 470.281600
    504    502    505     1   109.6800468 362.083360
    503    502    504     1   107.7300462 299.574400
    503    502    505     1   109.6800468 362.083360
    502    505    506     1   109.5900471 362.167040
    502    505    507     1   109.5900471 362.167040
    501    499    502     1   109.6800468 362.083360
    500    499    501     1   107.7300462 299.574400
    500    499    502     1   109.6800468 362.083360
    499    502    503     1   109.6800468 362.083360
    499    502    504     1   109.6800468 362.083360
    498    496    499     1   109.5900471 362.167040
    497    496    498     1   108.5500468 298.235520
    497    496    499     1   109.5900471 362.167040
    496    499    500     1   109.6800468 362.083360
    496    499    501     1   109.6800468 362.083360
    495    496    497     1   110.3400472 470.281600
    495    496    498     1   110.3400472 470.281600
    491    490    492     1   119.8800511 375.723200
    489    488    490     1   119.8800511 375.723200
    488    490    491     1   119.8800511 375.723200
    486    485    492     1   119.8800511 375.723200
    485    484    487     1   119.8800511 375.723200
    484    485    486     1   119.8800511 375.723200
    483    484    487     1   119.8800511 375.723200
    483    488    489     1   119.8800511 375.723200
    479    477    480     1   110.3400472 470.281600
    478    477    479     1   108.5500468 298.235520
    478    477    480     1   110.3400472 470.281600
    532    530    533     1   109.6800468 362.083360
    531    530    532     1   107.7300462 299.574400
    531    530    533     1   109.6800468 362.083360
    530    533    534     1   109.5900471 362.167040
    530    533    535     1   109.5900471 362.167040
    529    527    530     1   109.6800468 362.083360
    528    527    529     1   107.7300462 299.574400
    528    527    530     1   109.6800468 362.083360
    527    530    531     1   109.6800468 362.083360
    527    530    532     1   109.6800468 362.083360
    526    524    527     1   109.5900471 362.167040
    525    524    526     1   108.5500468 298.235520
    525    524    527     1   109.5900471 362.167040
    524    527    528     1   109.6800468 362.083360
    524    527    529     1   109.6800468 362.083360
    523    524    525     1   110.3400472 470.281600
    523    524    526     1   110.3400472 470.281600
    519    518    520     1   119.8800511 375.723200
    517    516    518     1   119.8800511 375.723200
    516    518    519     1   119.8800511 375.723200
    514    513    520     1   119.8800511 375.723200
    513    512    515     1   119.8800511 375.723200
    512    513    514     1   119.8800511 375.723200
    511    512    515     1   119.8800511 375.723200
    511    516    517     1   119.8800511 375.723200
    507    505    508     1   110.3400472 470.281600
    506    505    507     1   108.5500468 298.235520
    506    505    508     1   110.3400472 470.281600
    560    558    561     1   109.6800468 362.083360
    559    558    560     1   107.7300462 299.574400
    559    558    561     1   109.6800468 362.083360
    558    561    562     1   109.5900471 362.167040
    558    561    563     1   109.5900471 362.167040
    557    555    558     1   109.6800468 362.083360
    556    555    557     1   107.7300462 299.574400
    556    555    558     1   109.6800468 362.083360
    555    558    559     1   109.6800468 362.083360
    555    558    560     1   109.6800468 362.083360
    554    552    555     1   109.5900471 362.167040
    553    552    554     1   108.5500468 298.235520
    553    552    555     1   109.5900471 362.167040
    552    555    556     1   109.6800468 362.083360
    552    555    557     1   109.6800468 362.083360
    551    552    553     1   110.3400472 470.281600
    551    552    554     1   110.3400472 470.281600
    547    546    548     1   119.8800511 375.723200
    545    544    546     1   119.8800511 375.723200
    544    546    547     1   119.8800511 375.723200
    542    541    548     1   119.8800511 375.723200
    541    540    543     1   119.8800511 375.723200
    540    541    542     1   119.8800511 375.723200
    539    540    543     1   119.8800511 375.723200
    539    544    545     1   119.8800511 375.723200
    535    533    536     1   110.3400472 470.281600
    534    533    535     1   108.5500468 298.235520
    534    533    536     1   110.3400472 470.281600
    588    586    589     1   109.6800468 362.083360
    587    586    588     1   107.7300462 299.574400
    587    586    589     1   109.6800468 362.083360
    586    589    590     1   109.5900471 362.167040
    586    589    591     1   109.5900471 362.167040
    585    583    586     1   109.6800468 362.083360
    584    583    585     1   107.7300462 299.574400
    584    583    586     1   109.6800468 362.083360
    583    586    587     1   109.6800468 362.083360
    583    586    588     1   109.6800468 362.083360
    582    580    583     1   109.5900471 362.167040
    581    580    582     1   108.5500468 298.235520
    581    580    583     1   109.5900471 362.167040
    580    583    584     1   109.6800468 362.083360
    580    583    585     1   109.6800468 362.083360
    579    580    581     1   110.3400472 470.281600
    579    580    582     1   110.3400472 470.281600
    575    574    576     1   119.8800511 375.723200
    573    572    574     1   119.8800511 375.723200
    572    574    575     1   119.8800511 375.723200
    570    569    576     1   119.8800511 375.723200
    569    568    571     1   119.8800511 375.723200
    568    569    570     1   119.8800511 375.723200
    567    568    571     1   119.8800511 375.723200
    567    572    573     1   119.8800511 375.723200
    563    561    564     1   110.3400472 470.281600
    562    561    563     1   108.5500468 298.235520
    562    561    564     1   110.3400472 470.281600
    616    614    617     1   109.6800468 362.083360
    615    614    616     1   107.7300462 299.574400
    615    614    617     1   109.6800468 362.083360
    614    617    618     1   109.5900471 362.167040
    614    617    619     1   109.5900471 362.167040
    613    611    614     1   109.6800468 362.083360
    612    611    613     1   107.7300462 299.574400
    612    611    614     1   109.6800468 362.083360
    611    614    615     1   109.6800468 362.083360
    611    614    616     1   109.6800468 362.083360
    610    608    611     1   109.5900471 362.167040
    609    608    610     1   108.5500468 298.235520
    609    608    611     1   109.5900471 362.167040
    608    611    612     1   109.6800468 362.083360
    608    611    613     1   109.6800468 362.083360
    607    608    609     1   110.3400472 470.281600
    607    608    610     1   110.3400472 470.281600
    603    602    604     1   119.8800511 375.723200
    601    600    602     1   119.8800511 375.723200
    600    602    603     1   119.8800511 375.723200
    598    597    604     1   119.8800511 375.723200
    597    596    599     1   119.8800511 375.723200
    596    597    598     1   119.8800511 375.723200
    595    596    599     1   119.8800511 375.723200
    595    600    601     1   119.8800511 375.723200
    591    589    592     1   110.3400472 470.281600
    590    589    591     1   108.5500468 298.235520
    590    589    592     1   110.3400472 470.281600
    644    642    645     1   109.6800468 362.083360
    643    642    644     1   107.7300462 299.574400
    643    642    645     1   109.6800468 362.083360
    642    645    646     1   109.5900471 362.167040
    642    645    647     1   109.5900471 362.167040
    641    639    642     1   109.6800468 362.083360
    640    639    641     1   107.7300462 299.574400
    640    639    642     1   109.6800468 362.083360
    639    642    643     1   109.6800468 362.083360
    639    642    644     1   109.6800468 362.083360
    638    636    639     1   109.5900471 362.167040
    637    636    638     1   108.5500468 298.235520
    637    636    639     1   109.5900471 362.167040
    636    639    640     1   109.6800468 362.083360
    636    639    641     1   109.6800468 362.083360
    635    636    637     1   110.3400472 470.281600
    635    636    638     1   110.3400472 470.281600
    631    630    632     1   119.8800511 375.723200
    629    628    630     1   119.8800511 375.723200
    628    630    631     1   119.8800511 375.723200
    626    625    632     1   119.8800511 375.723200
    625    624    627     1   119.8800511 375.723200
    624    625    626     1   119.8800511 375.723200
    623    624    627     1   119.8800511 375.723200
    623    628    629     1   119.8800511 375.723200
    619    617    620     1   110.3400472 470.281600
    618    617    619     1   108.5500468 298.235520
    618    617    620     1   110.3400472 470.281600
    672    670    673     1   109.6800468 362.083360
    671    670    672     1   107.7300462 299.574400
    671    670    673     1   109.6800468 362.083360
    670    673    674     1   109.5900471 362.167040
    670    673    675     1   109.5900471 362.167040
    669    667    670     1   109.6800468 362.083360
    668    667    669     1   107.7300462 299.574400
    668    667    670     1   109.6800468 362.083360
    667    670    671     1   109.6800468 362.083360
    667    670    672     1   109.6800468 362.083360
    666    664    667     1   109.5900471 362.167040
    665    664    666     1   108.5500468 298.235520
    665    664    667     1   109.5900471 362.167040
    664    667    668     1   109.6800468 362.083360
    664    667    669     1   109.6800468 362.083360
    663    664    665     1   110.3400472 470.281600
    663    664    666     1   110.3400472 470.281600
    659    658    660     1   119.8800511 375.723200
    657    656    658     1   119.8800511 375.723200
    656    658    659     1   119.8800511 375.723200
    654    653    660     1   119.8800511 375.723200
    653    652    655     1   119.8800511 375.723200
    652    653    654     1   119.8800511 375.723200
    651    652    655     1   119.8800511 375.723200
    651    656    657     1   119.8800511 375.723200
    647    645    648     1   110.3400472 470.281600
    646    645    647     1   108.5500468 298.235520
    646    645    648     1   110.3400472 470.281600
    699    698    700     1   107.7300462 299.574400
    697    695    698     1   109.6800468 362.083360
    696    695    697     1   107.7300462 299.574400
    696    695    698     1   109.6800468 362.083360
    695    698    699     1   109.6800468 362.083360
    695    698    700     1   109.6800468 362.083360
    694    692    695     1   109.5900471 362.167040
    693    692    694     1   108.5500468 298.235520
    693    692    695     1   109.5900471 362.167040
    692    695    696     1   109.6800468 362.083360
    692    695    697     1   109.6800468 362.083360
    691    692    693     1   110.3400472 470.281600
    691    692    694     1   110.3400472 470.281600
    687    686    688     1   119.8800511 375.723200
    685    684    686     1   119.8800511 375.723200
    684    686    687     1   119.8800511 375.723200
    682    681    688     1   119.8800511 375.723200
    681    680    683     1   119.8800511 375.723200
    680    681    682     1   119.8800511 375.723200
    679    680    683     1   119.8800511 375.723200
    679    684    685     1   119.8800511 375.723200
    675    673    676     1   110.3400472 470.281600
    674    673    675     1   108.5500468 298.235520
    674    673    676     1   110.3400472 470.281600

[ dihedrals ]
;    ai     aj     ak     al funct         c0         c1         c2         c3         c4         c5
     26     29     32     33     1  180.0000771  3.3472000  1
     26     29     32     33     1  0.0000000  1.6024720  3
     23     26     29     32     1  0.0000000  0.6508444  3
     20     23     26     29     1  0.0000000  2.1756800  3
     19     20     23     26     1  0.0000000  0.6508444  3
     18     17     19     20     1  180.0000771  5.8576000  1
     18     17     19     20     1  180.0000771  11.2968000  2
     17     19     20     23     1  180.0000771  3.3472000  1
     17     19     20     23     1  0.0000000  1.6024720  3
     16     17     19     20     1  180.0000771  6.6944000  1
     16     17     19     20     1  180.0000771  15.3552800  2
     16     17     19     20     1  0.0000000  1.2970400  3
     14     16     17     18     1  180.0000771  2.4267200  2
     14     16     17     19     1  180.0000771  4.1840000  2
     12     14     16     17     1  180.0000771  15.1670000  2
      9      8      7     12     1  180.0000771  15.1670000  2
      9     16     14     12     1  180.0000771  15.1670000  2
      9     16     17     18     1  180.0000771  2.4267200  2
      9     16     17     19     1  180.0000771  4.1840000  2
      8      7     12     14     1  180.0000771  15.1670000  2
      8      9     16     14     1  180.0000771  15.1670000  2
      8      9     16     17     1  180.0000771  15.1670000  2
      7      8      9     16     1  180.0000771  15.1670000  2
      7     12     14     16     1  180.0000771  15.1670000  2
      6      5      7      8     1  180.0000771  2.4267200  2
      6      5      7     12     1  180.0000771  2.4267200  2
      5      7      8      9     1  180.0000771  15.1670000  2
      5      7     12     14     1  180.0000771  15.1670000  2
      4      5      7      8     1  180.0000771  4.1840000  2
      4      5      7     12     1  180.0000771  4.1840000  2
      1      4      5      6     1  180.0000771  5.8576000  1
      1      4      5      6     1  180.0000771  11.2968000  2
      1      4      5      7     1  180.0000771  6.6944000  1
      1      4      5      7     1  180.0000771  15.3552800  2
      1      4      5      7     1  0.0000000  1.2970400  3
     54     57     60     61     1  180.0000771  3.3472000  1
     54     57     60     61     1  0.0000000  1.6024720  3
     51     54     57     60     1  0.0000000  0.6508444  3
     48     51     54     57     1  0.0000000  2.1756800  3
     47     48     51     54     1  0.0000000  0.6508444  3
     46     45     47     48     1  180.0000771  5.8576000  1
     46     45     47     48     1  180.0000771  11.2968000  2
     45     47     48     51     1  180.0000771  3.3472000  1
     45     47     48     51     1  0.0000000  1.6024720  3
     44     45     47     48     1  180.0000771  6.6944000  1
     44     45     47     48     1  180.0000771  15.3552800  2
     44     45     47     48     1  0.0000000  1.2970400  3
     42     44     45     46     1  180.0000771  2.4267200  2
     42     44     45     47     1  180.0000771  4.1840000  2
     40     42     44     45     1  180.0000771  15.1670000  2
     37     36     35     40     1  180.0000771  15.1670000  2
     37     44     42     40     1  180.0000771  15.1670000  2
     37     44     45     46     1  180.0000771  2.4267200  2
     37     44     45     47     1  180.0000771  4.1840000  2
     36     35     40     42     1  180.0000771  15.1670000  2
     36     37     44     42     1  180.0000771  15.1670000  2
     36     37     44     45     1  180.0000771  15.1670000  2
     35     36     37     44     1  180.0000771  15.1670000  2
     35     40     42     44     1  180.0000771  15.1670000  2
     34     33     35     36     1  180.0000771  2.4267200  2
     34     33     35     40     1  180.0000771  2.4267200  2
     33     35     36     37     1  180.0000771  15.1670000  2
     33     35     40     42     1  180.0000771  15.1670000  2
     32     33     35     36     1  180.0000771  4.1840000  2
     32     33     35     40     1  180.0000771  4.1840000  2
     29     32     33     34     1  180.0000771  5.8576000  1
     29     32     33     34     1  180.0000771  11.2968000  2
     29     32     33     35     1  180.0000771  6.6944000  1
     29     32     33     35     1  180.0000771  15.3552800  2
     29     32     33     35     1  0.0000000  1.2970400  3
     82     85     88     89     1  180.0000771  3.3472000  1
     82     85     88     89     1  0.0000000  1.6024720  3
     79     82     85     88     1  0.0000000  0.6508444  3
     76     79     82     85     1  0.0000000  2.1756800  3
     75     76     79     82     1  0.0000000  0.6508444  3
     74     73     75     76     1  180.0000771  5.8576000  1
     74     73     75     76     1  180.0000771  11.2968000  2
     73     75     76     79     1  180.0000771  3.3472000  1
     73     75     76     79     1  0.0000000  1.6024720  3
     72     73     75     76     1  180.0000771  6.6944000  1
     72     73     75     76     1  180.0000771  15.3552800  2
     72     73     75     76     1  0.0000000  1.2970400  3
     70     72     73     74     1  180.0000771  2.4267200  2
     70     72     73     75     1  180.0000771  4.1840000  2
     68     70     72     73     1  180.0000771  15.1670000  2
     65     64     63     68     1  180.0000771  15.1670000  2
     65     72     70     68     1  180.0000771  15.1670000  2
     65     72     73     74     1  180.0000771  2.4267200  2
     65     72     73     75     1  180.0000771  4.1840000  2
     64     63     68     70     1  180.0000771  15.1670000  2
     64     65     72     70     1  180.0000771  15.1670000  2
     64     65     72     73     1  180.0000771  15.1670000  2
     63     64     65     72     1  180.0000771  15.1670000  2
     63     68     70     72     1  180.0000771  15.1670000  2
     62     61     63     64     1  180.0000771  2.4267200  2
     62     61     63     68     1  180.0000771  2.4267200  2
     61     63     64     65     1  180.0000771  15.1670000  2
     61     63     68     70     1  180.0000771  15.1670000  2
     60     61     63     64     1  180.0000771  4.1840000  2
     60     61     63     68     1  180.0000771  4.1840000  2
     57     60     61     62     1  180.0000771  5.8576000  1
     57     60     61     62     1  180.0000771  11.2968000  2
     57     60     61     63     1  180.0000771  6.6944000  1
     57     60     61     63     1  180.0000771  15.3552800  2
     57     60     61     63     1  0.0000000  1.2970400  3
    110    113    116    117     1  180.0000771  3.3472000  1
    110    113    116    117     1  0.0000000  1.6024720  3
    107    110    113    116     1  0.0000000  0.6508444  3
    104    107    110    113     1  0.0000000  2.1756800  3
    103    104    107    110     1  0.0000000  0.6508444  3
    102    101    103    104     1  180.0000771  5.8576000  1
    102    101    103    104     1  180.0000771  11.2968000  2
    101    103    104    107     1  180.0000771  3.3472000  1
    101    103    104    107     1  0.0000000  1.6024720  3
    100    101    103    104     1  180.0000771  6.6944000  1
    100    101    103    104     1  180.0000771  15.3552800  2
    100    101    103    104     1  0.0000000  1.2970400  3
     98    100    101    102     1  180.0000771  2.4267200  2
     98    100    101    103     1  180.0000771  4.1840000  2
     96     98    100    101     1  180.0000771  15.1670000  2
     93     92     91     96     1  180.0000771  15.1670000  2
     93    100     98     96     1  180.0000771  15.1670000  2
     93    100    101    102     1  180.0000771  2.4267200  2
     93    100    101    103     1  180.0000771  4.1840000  2
     92     91     96     98     1  180.0000771  15.1670000  2
     92     93    100     98     1  180.0000771  15.1670000  2
     92     93    100    101     1  180.0000771  15.1670000  2
     91     92     93    100     1  180.0000771  15.1670000  2
     91     96     98    100     1  180.0000771  15.1670000  2
     90     89     91     92     1  180.0000771  2.4267200  2
     90     89     91     96     1  180.0000771  2.4267200  2
     89     91     92     93     1  180.0000771  15.1670000  2
     89     91     96     98     1  180.0000771  15.1670000  2
     88     89     91     92     1  180.0000771  4.1840000  2
     88     89     91     96     1  180.0000771  4.1840000  2
     85     88     89     90     1  180.0000771  5.8576000  1
     85     88     89     90     1  180.0000771  11.2968000  2
     85     88     89     91     1  180.0000771  6.6944000  1
     85     88     89     91     1  180.0000771  15.3552800  2
     85     88     89     91     1  0.0000000  1.2970400  3
    138    141    144    145     1  180.0000771  3.3472000  1
    138    141    144    145     1  0.0000000  1.6024720  3
    135    138    141    144     1  0.0000000  0.6508444  3
    132    135    138    141     1  0.0000000  2.1756800  3
    131    132    135    138     1  0.0000000  0.6508444  3
    130    129    131    132     1  180.0000771  5.8576000  1
    130    129    131    132     1  180.0000771  11.2968000  2
    129    131    132    135     1  180.0000771  3.3472000  1
    129    131    132    135     1  0.0000000  1.6024720  3
    128    129    131    132     1  180.0000771  6.6944000  1
    128    129    131    132     1  180.0000771  15.3552800  2
    128    129    131    132     1  0.0000000  1.2970400  3
    126    128    129    130     1  180.0000771  2.4267200  2
    126    128    129    131     1  180.0000771  4.1840000  2
    124    126    128    129     1  180.0000771  15.1670000  2
    121    120    119    124     1  180.0000771  15.1670000  2
    121    128    126    124     1  180.0000771  15.1670000  2
    121    128    129    130     1  180.0000771  2.4267200  2
    121    128    129    131     1  180.0000771  4.1840000  2
    120    119    124    126     1  180.0000771  15.1670000  2
    120    121    128    126     1  180.0000771  15.1670000  2
    120    121    128    129     1  180.0000771  15.1670000  2
    119    120    121    128     1  180.0000771  15.1670000  2
    119    124    126    128     1  180.0000771  15.1670000  2
    118    117    119    120     1  180.0000771  2.4267200  2
    118    117    119    124     1  180.0000771  2.4267200  2
    117    119    120    121     1  180.0000771  15.1670000  2
    117    119    124    126     1  180.0000771  15.1670000  2
    116    117    119    120     1  180.0000771  4.1840000  2
    116    117    119    124     1  180.0000771  4.1840000  2
    113    116    117    118     1  180.0000771  5.8576000  1
    113    116    117    118     1  180.0000771  11.2968000  2
    113    116    117    119     1  180.0000771  6.6944000  1
    113    116    117    119     1  180.0000771  15.3552800  2
    113    116    117    119     1  0.0000000  1.2970400  3
    166    169    172    173     1  180.0000771  3.3472000  1
    166    169    172    173     1  0.0000000  1.6024720  3
    163    166    169    172     1  0.0000000  0.6508444  3
    160    163    166    169     1  0.0000000  2.1756800  3
    159    160    163    166     1  0.0000000  0.6508444  3
    158    157    159    160     1  180.0000771  5.8576000  1
    158    157    159    160     1  180.0000771  11.2968000  2
    157    159    160    163     1  180.0000771  3.3472000  1
    157    159    160    163     1  0.0000000  1.6024720  3
    156    157    159    160     1  180.0000771  6.6944000  1
    156    157    159    160     1  180.0000771  15.3552800  2
    156    157    159    160     1  0.0000000  1.2970400  3
    154    156    157    158     1  180.0000771  2.4267200  2
    154    156    157    159     1  180.0000771  4.1840000  2
    152    154    156    157     1  180.0000771  15.1670000  2
    149    148    147    152     1  180.0000771  15.1670000  2
    149    156    154    152     1  180.0000771  15.1670000  2
    149    156    157    158     1  180.0000771  2.4267200  2
    149    156    157    159     1  180.0000771  4.1840000  2
    148    147    152    154     1  180.0000771  15.1670000  2
    148    149    156    154     1  180.0000771  15.1670000  2
    148    149    156    157     1  180.0000771  15.1670000  2
    147    148    149    156     1  180.0000771  15.1670000  2
    147    152    154    156     1  180.0000771  15.1670000  2
    146    145    147    148     1  180.0000771  2.4267200  2
    146    145    147    152     1  180.0000771  2.4267200  2
    145    147    148    149     1  180.0000771  15.1670000  2
    145    147    152    154     1  180.0000771  15.1670000  2
    144    145    147    148     1  180.0000771  4.1840000  2
    144    145    147    152     1  180.0000771  4.1840000  2
    141    144    145    146     1  180.0000771  5.8576000  1
    141    144    145    146     1  180.0000771  11.2968000  2
    141    144    145    147     1  180.0000771  6.6944000  1
    141    144    145    147     1  180.0000771  15.3552800  2
    141    144    145    147     1  0.0000000  1.2970400  3
    194    197    200    201     1  180.0000771  3.3472000  1
    194    197    200    201     1  0.0000000  1.6024720  3
    191    194    197    200     1  0.0000000  0.6508444  3
    188    191    194    197     1  0.0000000  2.1756800  3
    187    188    191    194     1  0.0000000  0.6508444  3
    186    185    187    188     1  180.0000771  5.8576000  1
    186    185    187    188     1  180.0000771  11.2968000  2
    185    187    188    191     1  180.0000771  3.3472000  1
    185    187    188    191     1  0.0000000  1.6024720  3
    184    185    187    188     1  180.0000771  6.6944000  1
    184    185    187    188     1  180.0000771  15.3552800  2
    184    185    187    188     1  0.0000000  1.2970400  3
    182    184    185    186     1  180.0000771  2.4267200  2
    182    184    185    187     1  180.0000771  4.1840000  2
    180    182    184    185     1  180.0000771  15.1670000  2
    177    176    175    180     1  180.0000771  15.1670000  2
    177    184    182    180     1  180.0000771  15.1670000  2
    177    184    185    186     1  180.0000771  2.4267200  2
    177    184    185    187     1  180.0000771  4.1840000  2
    176    175    180    182     1  180.0000771  15.1670000  2
    176    177    184    182     1  180.0000771  15.1670000  2
    176    177    184    185     1  180.0000771  15.1670000  2
    175    176    177    184     1  180.0000771  15.1670000  2
    175    180    182    184     1  180.0000771  15.1670000  2
    174    173    175    176     1  180.0000771  2.4267200  2
    174    173    175    180     1  180.0000771  2.4267200  2
    173    175    176    177     1  180.0000771  15.1670000  2
    173    175    180    182     1  180.0000771  15.1670000  2
    172    173    175    176     1  180.0000771  4.1840000  2
    172    173    175    180     1  180.0000771  4.1840000  2
    169    172    173    174     1  180.0000771  5.8576000  1
    169    172    173    174     1  180.0000771  11.2968000  2
    169    172    173    175     1  180.0000771  6.6944000  1
    169    172    173    175     1  180.0000771  15.3552800  2
    169    172    173    175     1  0.0000000  1.2970400  3
    222    225    228    229     1  180.0000771  3.3472000  1
    222    225    228    229     1  0.0000000  1.6024720  3
    219    222    225    228     1  0.0000000  0.6508444  3
    216    219    222    225     1  0.0000000  2.1756800  3
    215    216    219    222     1  0.0000000  0.6508444  3
    214    213    215    216     1  180.0000771  5.8576000  1
    214    213    215    216     1  180.0000771  11.2968000  2
    213    215    216    219     1  180.0000771  3.3472000  1
    213    215    216    219     1  0.0000000  1.6024720  3
    212    213    215    216     1  180.0000771  6.6944000  1
    212    213    215    216     1  180.0000771  15.3552800  2
    212    213    215    216     1  0.0000000  1.2970400  3
    210    212    213    214     1  180.0000771  2.4267200  2
    210    212    213    215     1  180.0000771  4.1840000  2
    208    210    212    213     1  180.0000771  15.1670000  2
    205    204    203    208     1  180.0000771  15.1670000  2
    205    212    210    208     1  180.0000771  15.1670000  2
    205    212    213    214     1  180.0000771  2.4267200  2
    205    212    213    215     1  180.0000771  4.1840000  2
    204    203    208    210     1  180.0000771  15.1670000  2
    204    205    212    210     1  180.0000771  15.1670000  2
    204    205    212    213     1  180.0000771  15.1670000  2
    203    204    205    212     1  180.0000771  15.1670000  2
    203    208    210    212     1  180.0000771  15.1670000  2
    202    201    203    204     1  180.0000771  2.4267200  2
    202    201    203    208     1  180.0000771  2.4267200  2
    201    203    204    205     1  180.0000771  15.1670000  2
    201    203    208    210     1  180.0000771  15.1670000  2
    200    201    203    204     1  180.0000771  4.1840000  2
    200    201    203    208     1  180.0000771  4.1840000  2
    197    200    201    202     1  180.0000771  5.8576000  1
    197    200    201    202     1  180.0000771  11.2968000  2
    197    200    201    203     1  180.0000771  6.6944000  1
    197    200    201    203     1  180.0000771  15.3552800  2
    197    200    201    203     1  0.0000000  1.2970400  3
    250    253    256    257     1  180.0000771  3.3472000  1
    250    253    256    257     1  0.0000000  1.6024720  3
    247    250    253    256     1  0.0000000  0.6508444  3
    244    247    250    253     1  0.0000000  2.1756800  3
    243    244    247    250     1  0.0000000  0.6508444  3
    242    241    243    244     1  180.0000771  5.8576000  1
    242    241    243    244     1  180.0000771  11.2968000  2
    241    243    244    247     1  180.0000771  3.3472000  1
    241    243    244    247     1  0.0000000  1.6024720  3
    240    241    243    244     1  180.0000771  6.6944000  1
    240    241    243    244     1  180.0000771  15.3552800  2
    240    241    243    244     1  0.0000000  1.2970400  3
    238    240    241    242     1  180.0000771  2.4267200  2
    238    240    241    243     1  180.0000771  4.1840000  2
    236    238    240    241     1  180.0000771  15.1670000  2
    233    232    231    236     1  180.0000771  15.1670000  2
    233    240    238    236     1  180.0000771  15.1670000  2
    233    240    241    242     1  180.0000771  2.4267200  2
    233    240    241    243     1  180.0000771  4.1840000  2
    232    231    236    238     1  180.0000771  15.1670000  2
    232    233    240    238     1  180.0000771  15.1670000  2
    232    233    240    241     1  180.0000771  15.1670000  2
    231    232    233    240     1  180.0000771  15.1670000  2
    231    236    238    240     1  180.0000771  15.1670000  2
    230    229    231    232     1  180.0000771  2.4267200  2
    230    229    231    236     1  180.0000771  2.4267200  2
    229    231    232    233     1  180.0000771  15.1670000  2
    229    231    236    238     1  180.0000771  15.1670000  2
    228    229    231    232     1  180.0000771  4.1840000  2
    228    229    231    236     1  180.0000771  4.1840000  2
    225    228    229    230     1  180.0000771  5.8576000  1
    225    228    229    230     1  180.0000771  11.2968000  2
    225    228    229    231     1  180.0000771  6.6944000  1
    225    228    229    231     1  180.0000771  15.3552800  2
    225    228    229    231     1  0.0000000  1.2970400  3
    278    281    284    285     1  180.0000771  3.3472000  1
    278    281    284    285     1  0.0000000  1.6024720  3
    275    278    281    284     1  0.0000000  0.6508444  3
    272    275    278    281     1  0.0000000  2.1756800  3
    271    272    275    278     1  0.0000000  0.6508444  3
    270    269    271    272     1  180.0000771  5.8576000  1
    270    269    271    272     1  180.0000771  11.2968000  2
    269    271    272    275     1  180.0000771  3.3472000  1
    269    271    272    275     1  0.0000000  1.6024720  3
    268    269    271    272     1  180.0000771  6.6944000  1
    268    269    271    272     1  180.0000771  15.3552800  2
    268    269    271    272     1  0.0000000  1.2970400  3
    266    268    269    270     1  180.0000771  2.4267200  2
    266    268    269    271     1  180.0000771  4.1840000  2
    264    266    268    269     1  180.0000771  15.1670000  2
    261    260    259    264     1  180.0000771  15.1670000  2
    261    268    266    264     1  180.0000771  15.1670000  2
    261    268    269    270     1  180.0000771  2.4267200  2
    261    268    269    271     1  180.0000771  4.1840000  2
    260    259    264    266     1  180.0000771  15.1670000  2
    260    261    268    266     1  180.0000771  15.1670000  2
    260    261    268    269     1  180.0000771  15.1670000  2
    259    260    261    268     1  180.0000771  15.1670000  2
    259    264    266    268     1  180.0000771  15.1670000  2
    258    257    259    260     1  180.0000771  2.4267200  2
    258    257    259    264     1  180.0000771  2.4267200  2
    257    259    260    261     1  180.0000771  15.1670000  2
    257    259    264    266     1  180.0000771  15.1670000  2
    256    257    259    260     1  180.0000771  4.1840000  2
    256    257    259    264     1  180.0000771  4.1840000  2
    253    256    257    258     1  180.0000771  5.8576000  1
    253    256    257    258     1  180.0000771  11.2968000  2
    253    256    257    259     1  180.0000771  6.6944000  1
    253    256    257    259     1  180.0000771  15.3552800  2
    253    256    257    259     1  0.0000000  1.2970400  3
    306    309    312    313     1  180.0000771  3.3472000  1
    306    309    312    313     1  0.0000000  1.6024720  3
    303    306    309    312     1  0.0000000  0.6508444  3
    300    303    306    309     1  0.0000000  2.1756800  3
    299    300    303    306     1  0.0000000  0.6508444  3
    298    297    299    300     1  180.0000771  5.8576000  1
    298    297    299    300     1  180.0000771  11.2968000  2
    297    299    300    303     1  180.0000771  3.3472000  1
    297    299    300    303     1  0.0000000  1.6024720  3
    296    297    299    300     1  180.0000771  6.6944000  1
    296    297    299    300     1  180.0000771  15.3552800  2
    296    297    299    300     1  0.0000000  1.2970400  3
    294    296    297    298     1  180.0000771  2.4267200  2
    294    296    297    299     1  180.0000771  4.1840000  2
    292    294    296    297     1  180.0000771  15.1670000  2
    289    288    287    292     1  180.0000771  15.1670000  2
    289    296    294    292     1  180.0000771  15.1670000  2
    289    296    297    298     1  180.0000771  2.4267200  2
    289    296    297    299     1  180.0000771  4.1840000  2
    288    287    292    294     1  180.0000771  15.1670000  2
    288    289    296    294     1  180.0000771  15.1670000  2
    288    289    296    297     1  180.0000771  15.1670000  2
    287    288    289    296     1  180.0000771  15.1670000  2
    287    292    294    296     1  180.0000771  15.1670000  2
    286    285    287    288     1  180.0000771  2.4267200  2
    286    285    287    292     1  180.0000771  2.4267200  2
    285    287    288    289     1  180.0000771  15.1670000  2
    285    287    292    294     1  180.0000771  15.1670000  2
    284    285    287    288     1  180.0000771  4.1840000  2
    284    285    287    292     1  180.0000771  4.1840000  2
    281    284    285    286     1  180.0000771  5.8576000  1
    281    284    285    286     1  180.0000771  11.2968000  2
    281    284    285    287     1  180.0000771  6.6944000  1
    281    284    285    287     1  180.0000771  15.3552800  2
    281    284    285    287     1  0.0000000  1.2970400  3
    334    337    340    341     1  180.0000771  3.3472000  1
    334    337    340    341     1  0.0000000  1.6024720  3
    331    334    337    340     1  0.0000000  0.6508444  3
    328    331    334    337     1  0.0000000  2.1756800  3
    327    328    331    334     1  0.0000000  0.6508444  3
    326    325    327    328     1  180.0000771  5.8576000  1
    326    325    327    328     1  180.0000771  11.2968000  2
    325    327    328    331     1  180.0000771  3.3472000  1
    325    327    328    331     1  0.0000000  1.6024720  3
    324    325    327    328     1  180.0000771  6.6944000  1
    324    325    327    328     1  180.0000771  15.3552800  2
    324    325    327    328     1  0.0000000  1.2970400  3
    322    324    325    326     1  180.0000771  2.4267200  2
    322    324    325    327     1  180.0000771  4.1840000  2
    320    322    324    325     1  180.0000771  15.1670000  2
    317    316    315    320     1  180.0000771  15.1670000  2
    317    324    322    320     1  180.0000771  15.1670000  2
    317    324    325    326     1  180.0000771  2.4267200  2
    317    324    325    327     1  180.0000771  4.1840000  2
    316    315    320    322     1  180.0000771  15.1670000  2
    316    317    324    322     1  180.0000771  15.1670000  2
    316    317    324    325     1  180.0000771  15.1670000  2
    315    316    317    324     1  180.0000771  15.1670000  2
    315    320    322    324     1  180.0000771  15.1670000  2
    314    313    315    316     1  180.0000771  2.4267200  2
    314    313    315    320     1  180.0000771  2.4267200  2
    313    315    316    317     1  180.0000771  15.1670000  2
    313    315    320    322     1  180.0000771  15.1670000  2
    312    313    315    316     1  180.0000771  4.1840000  2
    312    313    315    320     1  180.0000771  4.1840000  2
    309    312    313    314     1  180.0000771  5.8576000  1
    309    312    313    314     1  180.0000771  11.2968000  2
    309    312    313    315     1  180.0000771  6.6944000  1
    309    312    313    315     1  180.0000771  15.3552800  2
    309    312    313    315     1  0.0000000  1.2970400  3
    362    365    368    369     1  180.0000771  3.3472000  1
    362    365    368    369     1  0.0000000  1.6024720  3
    359    362    365    368     1  0.0000000  0.6508444  3
    356    359    362    365     1  0.0000000  2.1756800  3
    355    356    359    362     1  0.0000000  0.6508444  3
    354    353    355    356     1  180.0000771  5.8576000  1
    354    353    355    356     1  180.0000771  11.2968000  2
    353    355    356    359     1  180.0000771  3.3472000  1
    353    355    356    359     1  0.0000000  1.6024720  3
    352    353    355    356     1  180.0000771  6.6944000  1
    352    353    355    356     1  180.0000771  15.3552800  2
    352    353    355    356     1  0.0000000  1.2970400  3
    350    352    353    354     1  180.0000771  2.4267200  2
    350    352    353    355     1  180.0000771  4.1840000  2
    348    350    352    353     1  180.0000771  15.1670000  2
    345    344    343    348     1  180.0000771  15.1670000  2
    345    352    350    348     1  180.0000771  15.1670000  2
    345    352    353    354     1  180.0000771  2.4267200  2
    345    352    353    355     1  180.0000771  4.1840000  2
    344    343    348    350     1  180.0000771  15.1670000  2
    344    345    352    350     1  180.0000771  15.1670000  2
    344    345    352    353     1  180.0000771  15.1670000  2
    343    344    345    352     1  180.0000771  15.1670000  2
    343    348    350    352     1  180.0000771  15.1670000  2
    342    341    343    344     1  180.0000771  2.4267200  2
    342    341    343    348     1  180.0000771  2.4267200  2
    341    343    344    345     1  180.0000771  15.1670000  2
    341    343    348    350     1  180.0000771  15.1670000  2
    340    341    343    344     1  180.0000771  4.1840000  2
    340    341    343    348     1  180.0000771  4.1840000  2
    337    340    341    342     1  180.0000771  5.8576000  1
    337    340    341    342     1  180.0000771  11.2968000  2
    337    340    341    343     1  180.0000771  6.6944000  1
    337    340    341    343     1  180.0000771  15.3552800  2
    337    340    341    343     1  0.0000000  1.2970400  3
    390    393    396    397     1  180.0000771  3.3472000  1
    390    393    396    397     1  0.0000000  1.6024720  3
    387    390    393    396     1  0.0000000  0.6508444  3
    384    387    390    393     1  0.0000000  2.1756800  3
    383    384    387    390     1  0.0000000  0.6508444  3
    382    381    383    384     1  180.0000771  5.8576000  1
    382    381    383    384     1  180.0000771  11.2968000  2
    381    383    384    387     1  180.0000771  3.3472000  1
    381    383    384    387     1  0.0000000  1.6024720  3
    380    381    383    384     1  180.0000771  6.6944000  1
    380    381    383    384     1  180.0000771  15.3552800  2
    380    381    383    384     1  0.0000000  1.2970400  3
    378    380    381    382     1  180.0000771  2.4267200  2
    378    380    381    383     1  180.0000771  4.1840000  2
    376    378    380    381     1  180.0000771  15.1670000  2
    373    372    371    376     1  180.0000771  15.1670000  2
    373    380    378    376     1  180.0000771  15.1670000  2
    373    380    381    382     1  180.0000771  2.4267200  2
    373    380    381    383     1  180.0000771  4.1840000  2
    372    371    376    378     1  180.0000771  15.1670000  2
    372    373    380    378     1  180.0000771  15.1670000  2
    372    373    380    381     1  180.0000771  15.1670000  2
    371    372    373    380     1  180.0000771  15.1670000  2
    371    376    378    380     1  180.0000771  15.1670000  2
    370    369    371    372     1  180.0000771  2.4267200  2
    370    369    371    376     1  180.0000771  2.4267200  2
    369    371    372    373     1  180.0000771  15.1670000  2
    369    371    376    378     1  180.0000771  15.1670000  2
    368    369    371    372     1  180.0000771  4.1840000  2
    368    369    371    376     1  180.0000771  4.1840000  2
    365    368    369    370     1  180.0000771  5.8576000  1
    365    368    369    370     1  180.0000771  11.2968000  2
    365    368    369    371     1  180.0000771  6.6944000  1
    365    368    369    371     1  180.0000771  15.3552800  2
    365    368    369    371     1  0.0000000  1.2970400  3
    418    421    424    425     1  180.0000771  3.3472000  1
    418    421    424    425     1  0.0000000  1.6024720  3
    415    418    421    424     1  0.0000000  0.6508444  3
    412    415    418    421     1  0.0000000  2.1756800  3
    411    412    415    418     1  0.0000000  0.6508444  3
    410    409    411    412     1  180.0000771  5.8576000  1
    410    409    411    412     1  180.0000771  11.2968000  2
    409    411    412    415     1  180.0000771  3.3472000  1
    409    411    412    415     1  0.0000000  1.6024720  3
    408    409    411    412     1  180.0000771  6.6944000  1
    408    409    411    412     1  180.0000771  15.3552800  2
    408    409    411    412     1  0.0000000  1.2970400  3
    406    408    409    410     1  180.0000771  2.4267200  2
    406    408    409    411     1  180.0000771  4.1840000  2
    404    406    408    409     1  180.0000771  15.1670000  2
    401    400    399    404     1  180.0000771  15.1670000  2
    401    408    406    404     1  180.0000771  15.1670000  2
    401    408    409    410     1  180.0000771  2.4267200  2
    401    408    409    411     1  180.0000771  4.1840000  2
    400    399    404    406     1  180.0000771  15.1670000  2
    400    401    408    406     1  180.0000771  15.1670000  2
    400    401    408    409     1  180.0000771  15.1670000  2
    399    400    401    408     1  180.0000771  15.1670000  2
    399    404    406    408     1  180.0000771  15.1670000  2
    398    397    399    400     1  180.0000771  2.4267200  2
    398    397    399    404     1  180.0000771  2.4267200  2
    397    399    400    401     1  180.0000771  15.1670000  2
    397    399    404    406     1  180.0000771  15.1670000  2
    396    397    399    400     1  180.0000771  4.1840000  2
    396    397    399    404     1  180.0000771  4.1840000  2
    393    396    397    398     1  180.0000771  5.8576000  1
    393    396    397    398     1  180.0000771  11.2968000  2
    393    396    397    399     1  180.0000771  6.6944000  1
    393    396    397    399     1  180.0000771  15.3552800  2
    393    396    397    399     1  0.0000000  1.2970400  3
    446    449    452    453     1  180.0000771  3.3472000  1
    446    449    452    453     1  0.0000000  1.6024720  3
    443    446    449    452     1  0.0000000  0.6508444  3
    440    443    446    449     1  0.0000000  2.1756800  3
    439    440    443    446     1  0.0000000  0.6508444  3
    438    437    439    440     1  180.0000771  5.8576000  1
    438    437    439    440     1  180.0000771  11.2968000  2
    437    439    440    443     1  180.0000771  3.3472000  1
    437    439    440    443     1  0.0000000  1.6024720  3
    436    437    439    440     1  180.0000771  6.6944000  1
    436    437    439    440     1  180.0000771  15.3552800  2
    436    437    439    440     1  0.0000000  1.2970400  3
    434    436    437    438     1  180.0000771  2.4267200  2
    434    436    437    439     1  180.0000771  4.1840000  2
    432    434    436    437     1  180.0000771  15.1670000  2
    429    428    427    432     1  180.0000771  15.1670000  2
    429    436    434    432     1  180.0000771  15.1670000  2
    429    436    437    438     1  180.0000771  2.4267200  2
    429    436    437    439     1  180.0000771  4.1840000  2
    428    427    432    434     1  180.0000771  15.1670000  2
    428    429    436    434     1  180.0000771  15.1670000  2
    428    429    436    437     1  180.0000771  15.1670000  2
    427    428    429    436     1  180.0000771  15.1670000  2
    427    432    434    436     1  180.0000771  15.1670000  2
    426    425    427    428     1  180.0000771  2.4267200  2
    426    425    427    432     1  180.0000771  2.4267200  2
    425    427    428    429     1  180.0000771  15.1670000  2
    425    427    432    434     1  180.0000771  15.1670000  2
    424    425    427    428     1  180.0000771  4.1840000  2
    424    425    427    432     1  180.0000771  4.1840000  2
    421    424    425    426     1  180.0000771  5.8576000  1
    421    424    425    426     1  180.0000771  11.2968000  2
    421    424    425    427     1  180.0000771  6.6944000  1
    421    424    425    427     1  180.0000771  15.3552800  2
    421    424    425    427     1  0.0000000  1.2970400  3
    474    477    480    481     1  180.0000771  3.3472000  1
    474    477    480    481     1  0.0000000  1.6024720  3
    471    474    477    480     1  0.0000000  0.6508444  3
    468    471    474    477     1  0.0000000  2.1756800  3
    467    468    471    474     1  0.0000000  0.6508444  3
    466    465    467    468     1  180.0000771  5.8576000  1
    466    465    467    468     1  180.0000771  11.2968000  2
    465    467    468    471     1  180.0000771  3.3472000  1
    465    467    468    471     1  0.0000000  1.6024720  3
    464    465    467    468     1  180.0000771  6.6944000  1
    464    465    467    468     1  180.0000771  15.3552800  2
    464    465    467    468     1  0.0000000  1.2970400  3
    462    464    465    466     1  180.0000771  2.4267200  2
    462    464    465    467     1  180.0000771  4.1840000  2
    460    462    464    465     1  180.0000771  15.1670000  2
    457    456    455    460     1  180.0000771  15.1670000  2
    457    464    462    460     1  180.0000771  15.1670000  2
    457    464    465    466     1  180.0000771  2.4267200  2
    457    464    465    467     1  180.0000771  4.1840000  2
    456    455    460    462     1  180.0000771  15.1670000  2
    456    457    464    462     1  180.0000771  15.1670000  2
    456    457    464    465     1  180.0000771  15.1670000  2
    455    456    457    464     1  180.0000771  15.1670000  2
    455    460    462    464     1  180.0000771  15.1670000  2
    454    453    455    456     1  180.0000771  2.4267200  2
    454    453    455    460     1  180.0000771  2.4267200  2
    453    455    456    457     1  180.0000771  15.1670000  2
    453    455    460    462     1  180.0000771  15.1670000  2
    452    453    455    456     1  180.0000771  4.1840000  2
    452    453    455    460     1  180.0000771  4.1840000  2
    449    452    453    454     1  180.0000771  5.8576000  1
    449    452    453    454     1  180.0000771  11.2968000  2
    449    452    453    455     1  180.0000771  6.6944000  1
    449    452    453    455     1  180.0000771  15.3552800  2
    449    452    453    455     1  0.0000000  1.2970400  3
    502    505    508    509     1  180.0000771  3.3472000  1
    502    505    508    509     1  0.0000000  1.6024720  3
    499    502    505    508     1  0.0000000  0.6508444  3
    496    499    502    505     1  0.0000000  2.1756800  3
    495    496    499    502     1  0.0000000  0.6508444  3
    494    493    495    496     1  180.0000771  5.8576000  1
    494    493    495    496     1  180.0000771  11.2968000  2
    493    495    496    499     1  180.0000771  3.3472000  1
    493    495    496    499     1  0.0000000  1.6024720  3
    492    493    495    496     1  180.0000771  6.6944000  1
    492    493    495    496     1  180.0000771  15.3552800  2
    492    493    495    496     1  0.0000000  1.2970400  3
    490    492    493    494     1  180.0000771  2.4267200  2
    490    492    493    495     1  180.0000771  4.1840000  2
    488    490    492    493     1  180.0000771  15.1670000  2
    485    484    483    488     1  180.0000771  15.1670000  2
    485    492    490    488     1  180.0000771  15.1670000  2
    485    492    493    494     1  180.0000771  2.4267200  2
    485    492    493    495     1  180.0000771  4.1840000  2
    484    483    488    490     1  180.0000771  15.1670000  2
    484    485    492    490     1  180.0000771  15.1670000  2
    484    485    492    493     1  180.0000771  15.1670000  2
    483    484    485    492     1  180.0000771  15.1670000  2
    483    488    490    492     1  180.0000771  15.1670000  2
    482    481    483    484     1  180.0000771  2.4267200  2
    482    481    483    488     1  180.0000771  2.4267200  2
    481    483    484    485     1  180.0000771  15.1670000  2
    481    483    488    490     1  180.0000771  15.1670000  2
    480    481    483    484     1  180.0000771  4.1840000  2
    480    481    483    488     1  180.0000771  4.1840000  2
    477    480    481    482     1  180.0000771  5.8576000  1
    477    480    481    482     1  180.0000771  11.2968000  2
    477    480    481    483     1  180.0000771  6.6944000  1
    477    480    481    483     1  180.0000771  15.3552800  2
    477    480    481    483     1  0.0000000  1.2970400  3
    530    533    536    537     1  180.0000771  3.3472000  1
    530    533    536    537     1  0.0000000  1.6024720  3
    527    530    533    536     1  0.0000000  0.6508444  3
    524    527    530    533     1  0.0000000  2.1756800  3
    523    524    527    530     1  0.0000000  0.6508444  3
    522    521    523    524     1  180.0000771  5.8576000  1
    522    521    523    524     1  180.0000771  11.2968000  2
    521    523    524    527     1  180.0000771  3.3472000  1
    521    523    524    527     1  0.0000000  1.6024720  3
    520    521    523    524     1  180.0000771  6.6944000  1
    520    521    523    524     1  180.0000771  15.3552800  2
    520    521    523    524     1  0.0000000  1.2970400  3
    518    520    521    522     1  180.0000771  2.4267200  2
    518    520    521    523     1  180.0000771  4.1840000  2
    516    518    520    521     1  180.0000771  15.1670000  2
    513    512    511    516     1  180.0000771  15.1670000  2
    513    520    518    516     1  180.0000771  15.1670000  2
    513    520    521    522     1  180.0000771  2.4267200  2
    513    520    521    523     1  180.0000771  4.1840000  2
    512    511    516    518     1  180.0000771  15.1670000  2
    512    513    520    518     1  180.0000771  15.1670000  2
    512    513    520    521     1  180.0000771  15.1670000  2
    511    512    513    520     1  180.0000771  15.1670000  2
    511    516    518    520     1  180.0000771  15.1670000  2
    510    509    511    512     1  180.0000771  2.4267200  2
    510    509    511    516     1  180.0000771  2.4267200  2
    509    511    512    513     1  180.0000771  15.1670000  2
    509    511    516    518     1  180.0000771  15.1670000  2
    508    509    511    512     1  180.0000771  4.1840000  2
    508    509    511    516     1  180.0000771  4.1840000  2
    505    508    509    510     1  180.0000771  5.8576000  1
    505    508    509    510     1  180.0000771  11.2968000  2
    505    508    509    511     1  180.0000771  6.6944000  1
    505    508    509    511     1  180.0000771  15.3552800  2
    505    508    509    511     1  0.0000000  1.2970400  3
    558    561    564    565     1  180.0000771  3.3472000  1
    558    561    564    565     1  0.0000000  1.6024720  3
    555    558    561    564     1  0.0000000  0.6508444  3
    552    555    558    561     1  0.0000000  2.1756800  3
    551    552    555    558     1  0.0000000  0.6508444  3
    550    549    551    552     1  180.0000771  5.8576000  1
    550    549    551    552     1  180.0000771  11.2968000  2
    549    551    552    555     1  180.0000771  3.3472000  1
    549    551    552    555     1  0.0000000  1.6024720  3
    548    549    551    552     1  180.0000771  6.6944000  1
    548    549    551    552     1  180.0000771  15.3552800  2
    548    549    551    552     1  0.0000000  1.2970400  3
    546    548    549    550     1  180.0000771  2.4267200  2
    546    548    549    551     1  180.0000771  4.1840000  2
    544    546    548    549     1  180.0000771  15.1670000  2
    541    540    539    544     1  180.0000771  15.1670000  2
    541    548    546    544     1  180.0000771  15.1670000  2
    541    548    549    550     1  180.0000771  2.4267200  2
    541    548    549    551     1  180.0000771  4.1840000  2
    540    539    544    546     1  180.0000771  15.1670000  2
    540    541    548    546     1  180.0000771  15.1670000  2
    540    541    548    549     1  180.0000771  15.1670000  2
    539    540    541    548     1  180.0000771  15.1670000  2
    539    544    546    548     1  180.0000771  15.1670000  2
    538    537    539    540     1  180.0000771  2.4267200  2
    538    537    539    544     1  180.0000771  2.4267200  2
    537    539    540    541     1  180.0000771  15.1670000  2
    537    539    544    546     1  180.0000771  15.1670000  2
    536    537    539    540     1  180.0000771  4.1840000  2
    536    537    539    544     1  180.0000771  4.1840000  2
    533    536    537    538     1  180.0000771  5.8576000  1
    533    536    537    538     1  180.0000771  11.2968000  2
    533    536    537    539     1  180.0000771  6.6944000  1
    533    536    537    539     1  180.0000771  15.3552800  2
    533    536    537    539     1  0.0000000  1.2970400  3
    586    589    592    593     1  180.0000771  3.3472000  1
    586    589    592    593     1  0.0000000  1.6024720  3
    583    586    589    592     1  0.0000000  0.6508444  3
    580    583    586    589     1  0.0000000  2.1756800  3
    579    580    583    586     1  0.0000000  0.6508444  3
    578    577    579    580     1  180.0000771  5.8576000  1
    578    577    579    580     1  180.0000771  11.2968000  2
    577    579    580    583     1  180.0000771  3.3472000  1
    577    579    580    583     1  0.0000000  1.6024720  3
    576    577    579    580     1  180.0000771  6.6944000  1
    576    577    579    580     1  180.0000771  15.3552800  2
    576    577    579    580     1  0.0000000  1.2970400  3
    574    576    577    578     1  180.0000771  2.4267200  2
    574    576    577    579     1  180.0000771  4.1840000  2
    572    574    576    577     1  180.0000771  15.1670000  2
    569    568    567    572     1  180.0000771  15.1670000  2
    569    576    574    572     1  180.0000771  15.1670000  2
    569    576    577    578     1  180.0000771  2.4267200  2
    569    576    577    579     1  180.0000771  4.1840000  2
    568    567    572    574     1  180.0000771  15.1670000  2
    568    569    576    574     1  180.0000771  15.1670000  2
    568    569    576    577     1  180.0000771  15.1670000  2
    567    568    569    576     1  180.0000771  15.1670000  2
    567    572    574    576     1  180.0000771  15.1670000  2
    566    565    567    568     1  180.0000771  2.4267200  2
    566    565    567    572     1  180.0000771  2.4267200  2
    565    567    568    569     1  180.0000771  15.1670000  2
    565    567    572    574     1  180.0000771  15.1670000  2
    564    565    567    568     1  180.0000771  4.1840000  2
    564    565    567    572     1  180.0000771  4.1840000  2
    561    564    565    566     1  180.0000771  5.8576000  1
    561    564    565    566     1  180.0000771  11.2968000  2
    561    564    565    567     1  180.0000771  6.6944000  1
    561    564    565    567     1  180.0000771  15.3552800  2
    561    564    565    567     1  0.0000000  1.2970400  3
    614    617    620    621     1  180.0000771  3.3472000  1
    614    617    620    621     1  0.0000000  1.6024720  3
    611    614    617    620     1  0.0000000  0.6508444  3
    608    611    614    617     1  0.0000000  2.1756800  3
    607    608    611    614     1  0.0000000  0.6508444  3
    606    605    607    608     1  180.0000771  5.8576000  1
    606    605    607    608     1  180.0000771  11.2968000  2
    605    607    608    611     1  180.0000771  3.3472000  1
    605    607    608    611     1  0.0000000  1.6024720  3
    604    605    607    608     1  180.0000771  6.6944000  1
    604    605    607    608     1  180.0000771  15.3552800  2
    604    605    607    608     1  0.0000000  1.2970400  3
    602    604    605    606     1  180.0000771  2.4267200  2
    602    604    605    607     1  180.0000771  4.1840000  2
    600    602    604    605     1  180.0000771  15.1670000  2
    597    596    595    600     1  180.0000771  15.1670000  2
    597    604    602    600     1  180.0000771  15.1670000  2
    597    604    605    606     1  180.0000771  2.4267200  2
    597    604    605    607     1  180.0000771  4.1840000  2
    596    595    600    602     1  180.0000771  15.1670000  2
    596    597    604    602     1  180.0000771  15.1670000  2
    596    597    604    605     1  180.0000771  15.1670000  2
    595    596    597    604     1  180.0000771  15.1670000  2
    595    600    602    604     1  180.0000771  15.1670000  2
    594    593    595    596     1  180.0000771  2.4267200  2
    594    593    595    600     1  180.0000771  2.4267200  2
    593    595    596    597     1  180.0000771  15.1670000  2
    593    595    600    602     1  180.0000771  15.1670000  2
    592    593    595    596     1  180.0000771  4.1840000  2
    592    593    595    600     1  180.0000771  4.1840000  2
    589    592    593    594     1  180.0000771  5.8576000  1
    589    592    593    594     1  180.0000771  11.2968000  2
    589    592    593    595     1  180.0000771  6.6944000  1
    589    592    593    595     1  180.0000771  15.3552800  2
    589    592    593    595     1  0.0000000  1.2970400  3
    642    645    648    649     1  180.0000771  3.3472000  1
    642    645    648    649     1  0.0000000  1.6024720  3
    639    642    645    648     1  0.0000000  0.6508444  3
    636    639    642    645     1  0.0000000  2.1756800  3
    635    636    639    642     1  0.0000000  0.6508444  3
    634    633    635    636     1  180.0000771  5.8576000  1
    634    633    635    636     1  180.0000771  11.2968000  2
    633    635    636    639     1  180.0000771  3.3472000  1
    633    635    636    639     1  0.0000000  1.6024720  3
    632    633    635    636     1  180.0000771  6.6944000  1
    632    633    635    636     1  180.0000771  15.3552800  2
    632    633    635    636     1  0.0000000  1.2970400  3
    630    632    633    634     1  180.0000771  2.4267200  2
    630    632    633    635     1  180.0000771  4.1840000  2
    628    630    632    633     1  180.0000771  15.1670000  2
    625    624    623    628     1  180.0000771  15.1670000  2
    625    632    630    628     1  180.0000771  15.1670000  2
    625    632    633    634     1  180.0000771  2.4267200  2
    625    632    633    635     1  180.0000771  4.1840000  2
    624    623    628    630     1  180.0000771  15.1670000  2
    624    625    632    630     1  180.0000771  15.1670000  2
    624    625    632    633     1  180.0000771  15.1670000  2
    623    624    625    632     1  180.0000771  15.1670000  2
    623    628    630    632     1  180.0000771  15.1670000  2
    622    621    623    624     1  180.0000771  2.4267200  2
    622    621    623    628     1  180.0000771  2.4267200  2
    621    623    624    625     1  180.0000771  15.1670000  2
    621    623    628    630     1  180.0000771  15.1670000  2
    620    621    623    624     1  180.0000771  4.1840000  2
    620    621    623    628     1  180.0000771  4.1840000  2
    617    620    621    622     1  180.0000771  5.8576000  1
    617    620    621    622     1  180.0000771  11.2968000  2
    617    620    621    623     1  180.0000771  6.6944000  1
    617    620    621    623     1  180.0000771  15.3552800  2
    617    620    621    623     1  0.0000000  1.2970400  3
    670    673    676    677     1  180.0000771  3.3472000  1
    670    673    676    677     1  0.0000000  1.6024720  3
    667    670    673    676     1  0.0000000  0.6508444  3
    664    667    670    673     1  0.0000000  2.1756800  3
    663    664    667    670     1  0.0000000  0.6508444  3
    662    661    663    664     1  180.0000771  5.8576000  1
    662    661    663    664     1  180.0000771  11.2968000  2
    661    663    664    667     1  180.0000771  3.3472000  1
    661    663    664    667     1  0.0000000  1.6024720  3
    660    661    663    664     1  180.0000771  6.6944000  1
    660    661    663    664     1  180.0000771  15.3552800  2
    660    661    663    664     1  0.0000000  1.2970400  3
    658    660    661    662     1  180.0000771  2.4267200  2
    658    660    661    663     1  180.0000771  4.1840000  2
    656    658    660    661     1  180.0000771  15.1670000  2
    653    652    651    656     1  180.0000771  15.1670000  2
    653    660    658    656     1  180.0000771  15.1670000  2
    653    660    661    662     1  180.0000771  2.4267200  2
    653    660    661    663     1  180.0000771  4.1840000  2
    652    651    656    658     1  180.0000771  15.1670000  2
    652    653    660    658     1  180.0000771  15.1670000  2
    652    653    660    661     1  180.0000771  15.1670000  2
    651    652    653    660     1  180.0000771  15.1670000  2
    651    656    658    660     1  180.0000771  15.1670000  2
    650    649    651    652     1  180.0000771  2.4267200  2
    650    649    651    656     1  180.0000771  2.4267200  2
    649    651    652    653     1  180.0000771  15.1670000  2
    649    651    656    658     1  180.0000771  15.1670000  2
    648    649    651    652     1  180.0000771  4.1840000  2
    648    649    651    656     1  180.0000771  4.1840000  2
    645    648    649    650     1  180.0000771  5.8576000  1
    645    648    649    650     1  180.0000771  11.2968000  2
    645    648    649    651     1  180.0000771  6.6944000  1
    645    648    649    651     1  180.0000771  15.3552800  2
    645    648    649    651     1  0.0000000  1.2970400  3
    691    692    695    698     1  0.0000000  0.6508444  3
    690    689    691    692     1  180.0000771  5.8576000  1
    690    689    691    692     1  180.0000771  11.2968000  2
    689    691    692    695     1  180.0000771  3.3472000  1
    689    691    692    695     1  0.0000000  1.6024720  3
    688    689    691    692     1  180.0000771  6.6944000  1
    688    689    691    692     1  180.0000771  15.3552800  2
    688    689    691    692     1  0.0000000  1.2970400  3
    686    688    689    690     1  180.0000771  2.4267200  2
    686    688    689    691     1  180.0000771  4.1840000  2
    684    686    688    689     1  180.0000771  15.1670000  2
    681    680    679    684     1  180.0000771  15.1670000  2
    681    688    686    684     1  180.0000771  15.1670000  2
    681    688    689    690     1  180.0000771  2.4267200  2
    681    688    689    691     1  180.0000771  4.1840000  2
    680    679    684    686     1  180.0000771  15.1670000  2
    680    681    688    686     1  180.0000771  15.1670000  2
    680    681    688    689     1  180.0000771  15.1670000  2
    679    680    681    688     1  180.0000771  15.1670000  2
    679    684    686    688     1  180.0000771  15.1670000  2
    678    677    679    680     1  180.0000771  2.4267200  2
    678    677    679    684     1  180.0000771  2.4267200  2
    677    679    680    681     1  180.0000771  15.1670000  2
    677    679    684    686     1  180.0000771  15.1670000  2
    676    677    679    680     1  180.0000771  4.1840000  2
    676    677    679    684     1  180.0000771  4.1840000  2
    673    676    677    678     1  180.0000771  5.8576000  1
    673    676    677    678     1  180.0000771  11.2968000  2
    673    676    677    679     1  180.0000771  6.6944000  1
    673    676    677    679     1  180.0000771  15.3552800  2
    673    676    677    679     1  0.0000000  1.2970400  3
     16     19     17     18     4  180.0000771  43.9320000  2
      4      7      5      6     4  180.0000771  43.9320000  2
     44     47     45     46     4  180.0000771  43.9320000  2
     32     35     33     34     4  180.0000771  43.9320000  2
     72     75     73     74     4  180.0000771  43.9320000  2
     60     63     61     62     4  180.0000771  43.9320000  2
    100    103    101    102     4  180.0000771  43.9320000  2
     88     91     89     90     4  180.0000771  43.9320000  2
    128    131    129    130     4  180.0000771  43.9320000  2
    116    119    117    118     4  180.0000771  43.9320000  2
    156    159    157    158     4  180.0000771  43.9320000  2
    144    147    145    146     4  180.0000771  43.9320000  2
    184    187    185    186     4  180.0000771  43.9320000  2
    172    175    173    174     4  180.0000771  43.9320000  2
    212    215    213    214     4  180.0000771  43.9320000  2
    200    203    201    202     4  180.0000771  43.9320000  2
    240    243    241    242     4  180.0000771  43.9320000  2
    228    231    229    230     4  180.0000771  43.9320000  2
    268    271    269    270     4  180.0000771  43.9320000  2
    256    259    257    258     4  180.0000771  43.9320000  2
    296    299    297    298     4  180.0000771  43.9320000  2
    284    287    285    286     4  180.0000771  43.9320000  2
    324    327    325    326     4  180.0000771  43.9320000  2
    312    315    313    314     4  180.0000771  43.9320000  2
    352    355    353    354     4  180.0000771  43.9320000  2
    340    343    341    342     4  180.0000771  43.9320000  2
    380    383    381    382     4  180.0000771  43.9320000  2
    368    371    369    370     4  180.0000771  43.9320000  2
    408    411    409    410     4  180.0000771  43.9320000  2
    396    399    397    398     4  180.0000771  43.9320000  2
    436    439    437    438     4  180.0000771  43.9320000  2
    424    427    425    426     4  180.0000771  43.9320000  2
    464    467    465    466     4  180.0000771  43.9320000  2
    452    455    453    454     4  180.0000771  43.9320000  2
    492    495    493    494     4  180.0000771  43.9320000  2
    480    483    481    482     4  180.0000771  43.9320000  2
    520    523    521    522     4  180.0000771  43.9320000  2
    508    511    509    510     4  180.0000771  43.9320000  2
    548    551    549    550     4  180.0000771  43.9320000  2
    536    539    537    538     4  180.0000771  43.9320000  2
    576    579    577    578     4  180.0000771  43.9320000  2
    564    567    565    566     4  180.0000771  43.9320000  2
    604    607    605    606     4  180.0000771  43.9320000  2
    592    595    593    594     4  180.0000771  43.9320000  2
    632    635    633    634     4  180.0000771  43.9320000  2
    620    623    621    622     4  180.0000771  43.9320000  2
    660    663    661    662     4  180.0000771  43.9320000  2
    648    651    649    650     4  180.0000771  43.9320000  2
    688    691    689    690     4  180.0000771  43.9320000  2
    676    679    677    678     4  180.0000771  43.9320000  2
     28     26     29     30     1  0.0000000  0.6508444  3
     28     26     29     31     1  0.0000000  0.6508444  3
     28     26     29     32     1  0.0000000  1.0460000  1
     28     26     29     32     1  0.0000000  0.0000000  3
     27     26     29     30     1  0.0000000  0.6508444  3
     27     26     29     31     1  0.0000000  0.6508444  3
     27     26     29     32     1  0.0000000  1.0460000  1
     27     26     29     32     1  0.0000000  0.0000000  3
     25     23     26     27     1  0.0000000  0.5020800  3
     25     23     26     28     1  0.0000000  0.5020800  3
     25     23     26     29     1  0.0000000  0.5439200  3
     24     23     26     27     1  0.0000000  0.5020800  3
     24     23     26     28     1  0.0000000  0.5020800  3
     24     23     26     29     1  0.0000000  0.5439200  3
     23     26     29     30     1  0.0000000  0.6508444  3
     23     26     29     31     1  0.0000000  0.6508444  3
     22     20     23     24     1  0.0000000  0.6508444  3
     22     20     23     25     1  0.0000000  0.6508444  3
     22     20     23     26     1  0.0000000  0.6508444  3
     21     20     23     24     1  0.0000000  0.6508444  3
     21     20     23     25     1  0.0000000  0.6508444  3
     21     20     23     26     1  0.0000000  0.6508444  3
     20     23     26     27     1  0.0000000  0.5439200  3
     20     23     26     28     1  0.0000000  0.5439200  3
     19     20     23     24     1  0.0000000  1.0460000  1
     19     20     23     24     1  0.0000000  0.0000000  3
     19     20     23     25     1  0.0000000  1.0460000  1
     19     20     23     25     1  0.0000000  0.0000000  3
     17     19     20     21     1  0.0000000  1.6038667  3
     17     19     20     22     1  0.0000000  1.6038667  3
     15     14     16     17     1  180.0000771  15.1670000  2
     13     12     14     15     1  180.0000771  15.1670000  2
     13     12     14     16     1  180.0000771  15.1670000  2
     11      8      7     12     1  180.0000771  15.1670000  2
     11      8      9     16     1  180.0000771  15.1670000  2
     10      9      8     11     1  180.0000771  15.1670000  2
     10      9     16     14     1  180.0000771  15.1670000  2
     10      9     16     17     1  180.0000771  15.1670000  2
      9     16     14     15     1  180.0000771  15.1670000  2
      8      7     12     13     1  180.0000771  15.1670000  2
      7      8      9     10     1  180.0000771  15.1670000  2
      7     12     14     15     1  180.0000771  15.1670000  2
      5      7      8     11     1  180.0000771  15.1670000  2
      5      7     12     13     1  180.0000771  15.1670000  2
      3      1      4      5     1  0.0000000  1.6038667  3
      2      1      4      5     1  0.0000000  1.6038667  3
     56     54     57     58     1  0.0000000  0.6508444  3
     56     54     57     59     1  0.0000000  0.6508444  3
     56     54     57     60     1  0.0000000  1.0460000  1
     56     54     57     60     1  0.0000000  0.0000000  3
     55     54     57     58     1  0.0000000  0.6508444  3
     55     54     57     59     1  0.0000000  0.6508444  3
     55     54     57     60     1  0.0000000  1.0460000  1
     55     54     57     60     1  0.0000000  0.0000000  3
     53     51     54     55     1  0.0000000  0.5020800  3
     53     51     54     56     1  0.0000000  0.5020800  3
     53     51     54     57     1  0.0000000  0.5439200  3
     52     51     54     55     1  0.0000000  0.5020800  3
     52     51     54     56     1  0.0000000  0.5020800  3
     52     51     54     57     1  0.0000000  0.5439200  3
     51     54     57     58     1  0.0000000  0.6508444  3
     51     54     57     59     1  0.0000000  0.6508444  3
     50     48     51     52     1  0.0000000  0.6508444  3
     50     48     51     53     1  0.0000000  0.6508444  3
     50     48     51     54     1  0.0000000  0.6508444  3
     49     48     51     52     1  0.0000000  0.6508444  3
     49     48     51     53     1  0.0000000  0.6508444  3
     49     48     51     54     1  0.0000000  0.6508444  3
     48     51     54     55     1  0.0000000  0.5439200  3
     48     51     54     56     1  0.0000000  0.5439200  3
     47     48     51     52     1  0.0000000  1.0460000  1
     47     48     51     52     1  0.0000000  0.0000000  3
     47     48     51     53     1  0.0000000  1.0460000  1
     47     48     51     53     1  0.0000000  0.0000000  3
     45     47     48     49     1  0.0000000  1.6038667  3
     45     47     48     50     1  0.0000000  1.6038667  3
     43     42     44     45     1  180.0000771  15.1670000  2
     41     40     42     43     1  180.0000771  15.1670000  2
     41     40     42     44     1  180.0000771  15.1670000  2
     39     36     35     40     1  180.0000771  15.1670000  2
     39     36     37     44     1  180.0000771  15.1670000  2
     38     37     36     39     1  180.0000771  15.1670000  2
     38     37     44     42     1  180.0000771  15.1670000  2
     38     37     44     45     1  180.0000771  15.1670000  2
     37     44     42     43     1  180.0000771  15.1670000  2
     36     35     40     41     1  180.0000771  15.1670000  2
     35     36     37     38     1  180.0000771  15.1670000  2
     35     40     42     43     1  180.0000771  15.1670000  2
     33     35     36     39     1  180.0000771  15.1670000  2
     33     35     40     41     1  180.0000771  15.1670000  2
     31     29     32     33     1  0.0000000  1.6038667  3
     30     29     32     33     1  0.0000000  1.6038667  3
     84     82     85     86     1  0.0000000  0.6508444  3
     84     82     85     87     1  0.0000000  0.6508444  3
     84     82     85     88     1  0.0000000  1.0460000  1
     84     82     85     88     1  0.0000000  0.0000000  3
     83     82     85     86     1  0.0000000  0.6508444  3
     83     82     85     87     1  0.0000000  0.6508444  3
     83     82     85     88     1  0.0000000  1.0460000  1
     83     82     85     88     1  0.0000000  0.0000000  3
     81     79     82     83     1  0.0000000  0.5020800  3
     81     79     82     84     1  0.0000000  0.5020800  3
     81     79     82     85     1  0.0000000  0.5439200  3
     80     79     82     83     1  0.0000000  0.5020800  3
     80     79     82     84     1  0.0000000  0.5020800  3
     80     79     82     85     1  0.0000000  0.5439200  3
     79     82     85     86     1  0.0000000  0.6508444  3
     79     82     85     87     1  0.0000000  0.6508444  3
     78     76     79     80     1  0.0000000  0.6508444  3
     78     76     79     81     1  0.0000000  0.6508444  3
     78     76     79     82     1  0.0000000  0.6508444  3
     77     76     79     80     1  0.0000000  0.6508444  3
     77     76     79     81     1  0.0000000  0.6508444  3
     77     76     79     82     1  0.0000000  0.6508444  3
     76     79     82     83     1  0.0000000  0.5439200  3
     76     79     82     84     1  0.0000000  0.5439200  3
     75     76     79     80     1  0.0000000  1.0460000  1
     75     76     79     80     1  0.0000000  0.0000000  3
     75     76     79     81     1  0.0000000  1.0460000  1
     75     76     79     81     1  0.0000000  0.0000000  3
     73     75     76     77     1  0.0000000  1.6038667  3
     73     75     76     78     1  0.0000000  1.6038667  3
     71     70     72     73     1  180.0000771  15.1670000  2
     69     68     70     71     1  180.0000771  15.1670000  2
     69     68     70     72     1  180.0000771  15.1670000  2
     67     64     63     68     1  180.0000771  15.1670000  2
     67     64     65     72     1  180.0000771  15.1670000  2
     66     65     64     67     1  180.0000771  15.1670000  2
     66     65     72     70     1  180.0000771  15.1670000  2
     66     65     72     73     1  180.0000771  15.1670000  2
     65     72     70     71     1  180.0000771  15.1670000  2
     64     63     68     69     1  180.0000771  15.1670000  2
     63     64     65     66     1  180.0000771  15.1670000  2
     63     68     70     71     1  180.0000771  15.1670000  2
     61     63     64     67     1  180.0000771  15.1670000  2
     61     63     68     69     1  180.0000771  15.1670000  2
     59     57     60     61     1  0.0000000  1.6038667  3
     58     57     60     61     1  0.0000000  1.6038667  3
    112    110    113    114     1  0.0000000  0.6508444  3
    112    110    113    115     1  0.0000000  0.6508444  3
    112    110    113    116     1  0.0000000  1.0460000  1
    112    110    113    116     1  0.0000000  0.0000000  3
    111    110    113    114     1  0.0000000  0.6508444  3
    111    110    113    115     1  0.0000000  0.6508444  3
    111    110    113    116     1  0.0000000  1.0460000  1
    111    110    113    116     1  0.0000000  0.0000000  3
    109    107    110    111     1  0.0000000  0.5020800  3
    109    107    110    112     1  0.0000000  0.5020800  3
    109    107    110    113     1  0.0000000  0.5439200  3
    108    107    110    111     1  0.0000000  0.5020800  3
    108    107    110    112     1  0.0000000  0.5020800  3
    108    107    110    113     1  0.0000000  0.5439200  3
    107    110    113    114     1  0.0000000  0.6508444  3
    107    110    113    115     1  0.0000000  0.6508444  3
    106    104    107    108     1  0.0000000  0.6508444  3
    106    104    107    109     1  0.0000000  0.6508444  3
    106    104    107    110     1  0.0000000  0.6508444  3
    105    104    107    108     1  0.0000000  0.6508444  3
    105    104    107    109     1  0.0000000  0.6508444  3
    105    104    107    110     1  0.0000000  0.6508444  3
    104    107    110    111     1  0.0000000  0.5439200  3
    104    107    110    112     1  0.0000000  0.5439200  3
    103    104    107    108     1  0.0000000  1.0460000  1
    103    104    107    108     1  0.0000000  0.0000000  3
    103    104    107    109     1  0.0000000  1.0460000  1
    103    104    107    109     1  0.0000000  0.0000000  3
    101    103    104    105     1  0.0000000  1.6038667  3
    101    103    104    106     1  0.0000000  1.6038667  3
     99     98    100    101     1  180.0000771  15.1670000  2
     97     96     98     99     1  180.0000771  15.1670000  2
     97     96     98    100     1  180.0000771  15.1670000  2
     95     92     91     96     1  180.0000771  15.1670000  2
     95     92     93    100     1  180.0000771  15.1670000  2
     94     93     92     95     1  180.0000771  15.1670000  2
     94     93    100     98     1  180.0000771  15.1670000  2
     94     93    100    101     1  180.0000771  15.1670000  2
     93    100     98     99     1  180.0000771  15.1670000  2
     92     91     96     97     1  180.0000771  15.1670000  2
     91     92     93     94     1  180.0000771  15.1670000  2
     91     96     98     99     1  180.0000771  15.1670000  2
     89     91     92     95     1  180.0000771  15.1670000  2
     89     91     96     97     1  180.0000771  15.1670000  2
     87     85     88     89     1  0.0000000  1.6038667  3
     86     85     88     89     1  0.0000000  1.6038667  3
    140    138    141    142     1  0.0000000  0.6508444  3
    140    138    141    143     1  0.0000000  0.6508444  3
    140    138    141    144     1  0.0000000  1.0460000  1
    140    138    141    144     1  0.0000000  0.0000000  3
    139    138    141    142     1  0.0000000  0.6508444  3
    139    138    141    143     1  0.0000000  0.6508444  3
    139    138    141    144     1  0.0000000  1.0460000  1
    139    138    141    144     1  0.0000000  0.0000000  3
    137    135    138    139     1  0.0000000  0.5020800  3
    137    135    138    140     1  0.0000000  0.5020800  3
    137    135    138    141     1  0.0000000  0.5439200  3
    136    135    138    139     1  0.0000000  0.5020800  3
    136    135    138    140     1  0.0000000  0.5020800  3
    136    135    138    141     1  0.0000000  0.5439200  3
    135    138    141    142     1  0.0000000  0.6508444  3
    135    138    141    143     1  0.0000000  0.6508444  3
    134    132    135    136     1  0.0000000  0.6508444  3
    134    132    135    137     1  0.0000000  0.6508444  3
    134    132    135    138     1  0.0000000  0.6508444  3
    133    132    135    136     1  0.0000000  0.6508444  3
    133    132    135    137     1  0.0000000  0.6508444  3
    133    132    135    138     1  0.0000000  0.6508444  3
    132    135    138    139     1  0.0000000  0.5439200  3
    132    135    138    140     1  0.0000000  0.5439200  3
    131    132    135    136     1  0.0000000  1.0460000  1
    131    132    135    136     1  0.0000000  0.0000000  3
    131    132    135    137     1  0.0000000  1.0460000  1
    131    132    135    137     1  0.0000000  0.0000000  3
    129    131    132    133     1  0.0000000  1.6038667  3
    129    131    132    134     1  0.0000000  1.6038667  3
    127    126    128    129     1  180.0000771  15.1670000  2
    125    124    126    127     1  180.0000771  15.1670000  2
    125    124    126    128     1  180.0000771  15.1670000  2
    123    120    119    124     1  180.0000771  15.1670000  2
    123    120    121    128     1  180.0000771  15.1670000  2
    122    121    120    123     1  180.0000771  15.1670000  2
    122    121    128    126     1  180.0000771  15.1670000  2
    122    121    128    129     1  180.0000771  15.1670000  2
    121    128    126    127     1  180.0000771  15.1670000  2
    120    119    124    125     1  180.0000771  15.1670000  2
    119    120    121    122     1  180.0000771  15.1670000  2
    119    124    126    127     1  180.0000771  15.1670000  2
    117    119    120    123     1  180.0000771  15.1670000  2
    117    119    124    125     1  180.0000771  15.1670000  2
    115    113    116    117     1  0.0000000  1.6038667  3
    114    113    116    117     1  0.0000000  1.6038667  3
    168    166    169    170     1  0.0000000  0.6508444  3
    168    166    169    171     1  0.0000000  0.6508444  3
    168    166    169    172     1  0.0000000  1.0460000  1
    168    166    169    172     1  0.0000000  0.0000000  3
    167    166    169    170     1  0.0000000  0.6508444  3
    167    166    169    171     1  0.0000000  0.6508444  3
    167    166    169    172     1  0.0000000  1.0460000  1
    167    166    169    172     1  0.0000000  0.0000000  3
    165    163    166    167     1  0.0000000  0.5020800  3
    165    163    166    168     1  0.0000000  0.5020800  3
    165    163    166    169     1  0.0000000  0.5439200  3
    164    163    166    167     1  0.0000000  0.5020800  3
    164    163    166    168     1  0.0000000  0.5020800  3
    164    163    166    169     1  0.0000000  0.5439200  3
    163    166    169    170     1  0.0000000  0.6508444  3
    163    166    169    171     1  0.0000000  0.6508444  3
    162    160    163    164     1  0.0000000  0.6508444  3
    162    160    163    165     1  0.0000000  0.6508444  3
    162    160    163    166     1  0.0000000  0.6508444  3
    161    160    163    164     1  0.0000000  0.6508444  3
    161    160    163    165     1  0.0000000  0.6508444  3
    161    160    163    166     1  0.0000000  0.6508444  3
    160    163    166    167     1  0.0000000  0.5439200  3
    160    163    166    168     1  0.0000000  0.5439200  3
    159    160    163    164     1  0.0000000  1.0460000  1
    159    160    163    164     1  0.0000000  0.0000000  3
    159    160    163    165     1  0.0000000  1.0460000  1
    159    160    163    165     1  0.0000000  0.0000000  3
    157    159    160    161     1  0.0000000  1.6038667  3
    157    159    160    162     1  0.0000000  1.6038667  3
    155    154    156    157     1  180.0000771  15.1670000  2
    153    152    154    155     1  180.0000771  15.1670000  2
    153    152    154    156     1  180.0000771  15.1670000  2
    151    148    147    152     1  180.0000771  15.1670000  2
    151    148    149    156     1  180.0000771  15.1670000  2
    150    149    148    151     1  180.0000771  15.1670000  2
    150    149    156    154     1  180.0000771  15.1670000  2
    150    149    156    157     1  180.0000771  15.1670000  2
    149    156    154    155     1  180.0000771  15.1670000  2
    148    147    152    153     1  180.0000771  15.1670000  2
    147    148    149    150     1  180.0000771  15.1670000  2
    147    152    154    155     1  180.0000771  15.1670000  2
    145    147    148    151     1  180.0000771  15.1670000  2
    145    147    152    153     1  180.0000771  15.1670000  2
    143    141    144    145     1  0.0000000  1.6038667  3
    142    141    144    145     1  0.0000000  1.6038667  3
    196    194    197    198     1  0.0000000  0.6508444  3
    196    194    197    199     1  0.0000000  0.6508444  3
    196    194    197    200     1  0.0000000  1.0460000  1
    196    194    197    200     1  0.0000000  0.0000000  3
    195    194    197    198     1  0.0000000  0.6508444  3
    195    194    197    199     1  0.0000000  0.6508444  3
    195    194    197    200     1  0.0000000  1.0460000  1
    195    194    197    200     1  0.0000000  0.0000000  3
    193    191    194    195     1  0.0000000  0.5020800  3
    193    191    194    196     1  0.0000000  0.5020800  3
    193    191    194    197     1  0.0000000  0.5439200  3
    192    191    194    195     1  0.0000000  0.5020800  3
    192    191    194    196     1  0.0000000  0.5020800  3
    192    191    194    197     1  0.0000000  0.5439200  3
    191    194    197    198     1  0.0000000  0.6508444  3
    191    194    197    199     1  0.0000000  0.6508444  3
    190    188    191    192     1  0.0000000  0.6508444  3
    190    188    191    193     1  0.0000000  0.6508444  3
    190    188    191    194     1  0.0000000  0.6508444  3
    189    188    191    192     1  0.0000000  0.6508444  3
    189    188    191    193     1  0.0000000  0.6508444  3
    189    188    191    194     1  0.0000000  0.6508444  3
    188    191    194    195     1  0.0000000  0.5439200  3
    188    191    194    196     1  0.0000000  0.5439200  3
    187    188    191    192     1  0.0000000  1.0460000  1
    187    188    191    192     1  0.0000000  0.0000000  3
    187    188    191    193     1  0.0000000  1.0460000  1
    187    188    191    193     1  0.0000000  0.0000000  3
    185    187    188    189     1  0.0000000  1.6038667  3
    185    187    188    190     1  0.0000000  1.6038667  3
    183    182    184    185     1  180.0000771  15.1670000  2
    181    180    182    183     1  180.0000771  15.1670000  2
    181    180    182    184     1  180.0000771  15.1670000  2
    179    176    175    180     1  180.0000771  15.1670000  2
    179    176    177    184     1  180.0000771  15.1670000  2
    178    177    176    179     1  180.0000771  15.1670000  2
    178    177    184    182     1  180.0000771  15.1670000  2
    178    177    184    185     1  180.0000771  15.1670000  2
    177    184    182    183     1  180.0000771  15.1670000  2
    176    175    180    181     1  180.0000771  15.1670000  2
    175    176    177    178     1  180.0000771  15.1670000  2
    175    180    182    183     1  180.0000771  15.1670000  2
    173    175    176    179     1  180.0000771  15.1670000  2
    173    175    180    181     1  180.0000771  15.1670000  2
    171    169    172    173     1  0.0000000  1.6038667  3
    170    169    172    173     1  0.0000000  1.6038667  3
    224    222    225    226     1  0.0000000  0.6508444  3
    224    222    225    227     1  0.0000000  0.6508444  3
    224    222    225    228     1  0.0000000  1.0460000  1
    224    222    225    228     1  0.0000000  0.0000000  3
    223    222    225    226     1  0.0000000  0.6508444  3
    223    222    225    227     1  0.0000000  0.6508444  3
    223    222    225    228     1  0.0000000  1.0460000  1
    223    222    225    228     1  0.0000000  0.0000000  3
    221    219    222    223     1  0.0000000  0.5020800  3
    221    219    222    224     1  0.0000000  0.5020800  3
    221    219    222    225     1  0.0000000  0.5439200  3
    220    219    222    223     1  0.0000000  0.5020800  3
    220    219    222    224     1  0.0000000  0.5020800  3
    220    219    222    225     1  0.0000000  0.5439200  3
    219    222    225    226     1  0.0000000  0.6508444  3
    219    222    225    227     1  0.0000000  0.6508444  3
    218    216    219    220     1  0.0000000  0.6508444  3
    218    216    219    221     1  0.0000000  0.6508444  3
    218    216    219    222     1  0.0000000  0.6508444  3
    217    216    219    220     1  0.0000000  0.6508444  3
    217    216    219    221     1  0.0000000  0.6508444  3
    217    216    219    222     1  0.0000000  0.6508444  3
    216    219    222    223     1  0.0000000  0.5439200  3
    216    219    222    224     1  0.0000000  0.5439200  3
    215    216    219    220     1  0.0000000  1.0460000  1
    215    216    219    220     1  0.0000000  0.0000000  3
    215    216    219    221     1  0.0000000  1.0460000  1
    215    216    219    221     1  0.0000000  0.0000000  3
    213    215    216    217     1  0.0000000  1.6038667  3
    213    215    216    218     1  0.0000000  1.6038667  3
    211    210    212    213     1  180.0000771  15.1670000  2
    209    208    210    211     1  180.0000771  15.1670000  2
    209    208    210    212     1  180.0000771  15.1670000  2
    207    204    203    208     1  180.0000771  15.1670000  2
    207    204    205    212     1  180.0000771  15.1670000  2
    206    205    204    207     1  180.0000771  15.1670000  2
    206    205    212    210     1  180.0000771  15.1670000  2
    206    205    212    213     1  180.0000771  15.1670000  2
    205    212    210    211     1  180.0000771  15.1670000  2
    204    203    208    209     1  180.0000771  15.1670000  2
    203    204    205    206     1  180.0000771  15.1670000  2
    203    208    210    211     1  180.0000771  15.1670000  2
    201    203    204    207     1  180.0000771  15.1670000  2
    201    203    208    209     1  180.0000771  15.1670000  2
    199    197    200    201     1  0.0000000  1.6038667  3
    198    197    200    201     1  0.0000000  1.6038667  3
    252    250    253    254     1  0.0000000  0.6508444  3
    252    250    253    255     1  0.0000000  0.6508444  3
    252    250    253    256     1  0.0000000  1.0460000  1
    252    250    253    256     1  0.0000000  0.0000000  3
    251    250    253    254     1  0.0000000  0.6508444  3
    251    250    253    255     1  0.0000000  0.6508444  3
    251    250    253    256     1  0.0000000  1.0460000  1
    251    250    253    256     1  0.0000000  0.0000000  3
    249    247    250    251     1  0.0000000  0.5020800  3
    249    247    250    252     1  0.0000000  0.5020800  3
    249    247    250    253     1  0.0000000  0.5439200  3
    248    247    250    251     1  0.0000000  0.5020800  3
    248    247    250    252     1  0.0000000  0.5020800  3
    248    247    250    253     1  0.0000000  0.5439200  3
    247    250    253    254     1  0.0000000  0.6508444  3
    247    250    253    255     1  0.0000000  0.6508444  3
    246    244    247    248     1  0.0000000  0.6508444  3
    246    244    247    249     1  0.0000000  0.6508444  3
    246    244    247    250     1  0.0000000  0.6508444  3
    245    244    247    248     1  0.0000000  0.6508444  3
    245    244    247    249     1  0.0000000  0.6508444  3
    245    244    247    250     1  0.0000000  0.6508444  3
    244    247    250    251     1  0.0000000  0.5439200  3
    244    247    250    252     1  0.0000000  0.5439200  3
    243    244    247    248     1  0.0000000  1.0460000  1
    243    244    247    248     1  0.0000000  0.0000000  3
    243    244    247    249     1  0.0000000  1.0460000  1
    243    244    247    249     1  0.0000000  0.0000000  3
    241    243    244    245     1  0.0000000  1.6038667  3
    241    243    244    246     1  0.0000000  1.6038667  3
    239    238    240    241     1  180.0000771  15.1670000  2
    237    236    238    239     1  180.0000771  15.1670000  2
    237    236    238    240     1  180.0000771  15.1670000  2
    235    232    231    236     1  180.0000771  15.1670000  2
    235    232    233    240     1  180.0000771  15.1670000  2
    234    233    232    235     1  180.0000771  15.1670000  2
    234    233    240    238     1  180.0000771  15.1670000  2
    234    233    240    241     1  180.0000771  15.1670000  2
    233    240    238    239     1  180.0000771  15.1670000  2
    232    231    236    237     1  180.0000771  15.1670000  2
    231    232    233    234     1  180.0000771  15.1670000  2
    231    236    238    239     1  180.0000771  15.1670000  2
    229    231    232    235     1  180.0000771  15.1670000  2
    229    231    236    237     1  180.0000771  15.1670000  2
    227    225    228    229     1  0.0000000  1.6038667  3
    226    225    228    229     1  0.0000000  1.6038667  3
    280    278    281    282     1  0.0000000  0.6508444  3
    280    278    281    283     1  0.0000000  0.6508444  3
    280    278    281    284     1  0.0000000  1.0460000  1
    280    278    281    284     1  0.0000000  0.0000000  3
    279    278    281    282     1  0.0000000  0.6508444  3
    279    278    281    283     1  0.0000000  0.6508444  3
    279    278    281    284     1  0.0000000  1.0460000  1
    279    278    281    284     1  0.0000000  0.0000000  3
    277    275    278    279     1  0.0000000  0.5020800  3
    277    275    278    280     1  0.0000000  0.5020800  3
    277    275    278    281     1  0.0000000  0.5439200  3
    276    275    278    279     1  0.0000000  0.5020800  3
    276    275    278    280     1  0.0000000  0.5020800  3
    276    275    278    281     1  0.0000000  0.5439200  3
    275    278    281    282     1  0.0000000  0.6508444  3
    275    278    281    283     1  0.0000000  0.6508444  3
    274    272    275    276     1  0.0000000  0.6508444  3
    274    272    275    277     1  0.0000000  0.6508444  3
    274    272    275    278     1  0.0000000  0.6508444  3
    273    272    275    276     1  0.0000000  0.6508444  3
    273    272    275    277     1  0.0000000  0.6508444  3
    273    272    275    278     1  0.0000000  0.6508444  3
    272    275    278    279     1  0.0000000  0.5439200  3
    272    275    278    280     1  0.0000000  0.5439200  3
    271    272    275    276     1  0.0000000  1.0460000  1
    271    272    275    276     1  0.0000000  0.0000000  3
    271    272    275    277     1  0.0000000  1.0460000  1
    271    272    275    277     1  0.0000000  0.0000000  3
    269    271    272    273     1  0.0000000  1.6038667  3
    269    271    272    274     1  0.0000000  1.6038667  3
    267    266    268    269     1  180.0000771  15.1670000  2
    265    264    266    267     1  180.0000771  15.1670000  2
    265    264    266    268     1  180.0000771  15.1670000  2
    263    260    259    264     1  180.0000771  15.1670000  2
    263    260    261    268     1  180.0000771  15.1670000  2
    262    261    260    263     1  180.0000771  15.1670000  2
    262    261    268    266     1  180.0000771  15.1670000  2
    262    261    268    269     1  180.0000771  15.1670000  2
    261    268    266    267     1  180.0000771  15.1670000  2
    260    259    264    265     1  180.0000771  15.1670000  2
    259    260    261    262     1  180.0000771  15.1670000  2
    259    264    266    267     1  180.0000771  15.1670000  2
    257    259    260    263     1  180.0000771  15.1670000  2
    257    259    264    265     1  180.0000771  15.1670000  2
    255    253    256    257     1  0.0000000  1.6038667  3
    254    253    256    257     1  0.0000000  1.6038667  3
    308    306    309    310     1  0.0000000  0.6508444  3
    308    306    309    311     1  0.0000000  0.6508444  3
    308    306    309    312     1  0.0000000  1.0460000  1
    308    306    309    312     1  0.0000000  0.0000000  3
    307    306    309    310     1  0.0000000  0.6508444  3
    307    306    309    311     1  0.0000000  0.6508444  3
    307    306    309    312     1  0.0000000  1.0460000  1
    307    306    309    312     1  0.0000000  0.0000000  3
    305    303    306    307     1  0.0000000  0.5020800  3
    305    303    306    308     1  0.0000000  0.5020800  3
    305    303    306    309     1  0.0000000  0.5439200  3
    304    303    306    307     1  0.0000000  0.5020800  3
    304    303    306    308     1  0.0000000  0.5020800  3
    304    303    306    309     1  0.0000000  0.5439200  3
    303    306    309    310     1  0.0000000  0.6508444  3
    303    306    309    311     1  0.0000000  0.6508444  3
    302    300    303    304     1  0.0000000  0.6508444  3
    302    300    303    305     1  0.0000000  0.6508444  3
    302    300    303    306     1  0.0000000  0.6508444  3
    301    300    303    304     1  0.0000000  0.6508444  3
    301    300    303    305     1  0.0000000  0.6508444  3
    301    300    303    306     1  0.0000000  0.6508444  3
    300    303    306    307     1  0.0000000  0.5439200  3
    300    303    306    308     1  0.0000000  0.5439200  3
    299    300    303    304     1  0.0000000  1.0460000  1
    299    300    303    304     1  0.0000000  0.0000000  3
    299    300    303    305     1  0.0000000  1.0460000  1
    299    300    303    305     1  0.0000000  0.0000000  3
    297    299    300    301     1  0.0000000  1.6038667  3
    297    299    300    302     1  0.0000000  1.6038667  3
    295    294    296    297     1  180.0000771  15.1670000  2
    293    292    294    295     1  180.0000771  15.1670000  2
    293    292    294    296     1  180.0000771  15.1670000  2
    291    288    287    292     1  180.0000771  15.1670000  2
    291    288    289    296     1  180.0000771  15.1670000  2
    290    289    288    291     1  180.0000771  15.1670000  2
    290    289    296    294     1  180.0000771  15.1670000  2
    290    289    296    297     1  180.0000771  15.1670000  2
    289    296    294    295     1  180.0000771  15.1670000  2
    288    287    292    293     1  180.0000771  15.1670000  2
    287    288    289    290     1  180.0000771  15.1670000  2
    287    292    294    295     1  180.0000771  15.1670000  2
    285    287    288    291     1  180.0000771  15.1670000  2
    285    287    292    293     1  180.0000771  15.1670000  2
    283    281    284    285     1  0.0000000  1.6038667  3
    282    281    284    285     1  0.0000000  1.6038667  3
    336    334    337    338     1  0.0000000  0.6508444  3
    336    334    337    339     1  0.0000000  0.6508444  3
    336    334    337    340     1  0.0000000  1.0460000  1
    336    334    337    340     1  0.0000000  0.0000000  3
    335    334    337    338     1  0.0000000  0.6508444  3
    335    334    337    339     1  0.0000000  0.6508444  3
    335    334    337    340     1  0.0000000  1.0460000  1
    335    334    337    340     1  0.0000000  0.0000000  3
    333    331    334    335     1  0.0000000  0.5020800  3
    333    331    334    336     1  0.0000000  0.5020800  3
    333    331    334    337     1  0.0000000  0.5439200  3
    332    331    334    335     1  0.0000000  0.5020800  3
    332    331    334    336     1  0.0000000  0.5020800  3
    332    331    334    337     1  0.0000000  0.5439200  3
    331    334    337    338     1  0.0000000  0.6508444  3
    331    334    337    339     1  0.0000000  0.6508444  3
    330    328    331    332     1  0.0000000  0.6508444  3
    330    328    331    333     1  0.0000000  0.6508444  3
    330    328    331    334     1  0.0000000  0.6508444  3
    329    328    331    332     1  0.0000000  0.6508444  3
    329    328    331    333     1  0.0000000  0.6508444  3
    329    328    331    334     1  0.0000000  0.6508444  3
    328    331    334    335     1  0.0000000  0.5439200  3
    328    331    334    336     1  0.0000000  0.5439200  3
    327    328    331    332     1  0.0000000  1.0460000  1
    327    328    331    332     1  0.0000000  0.0000000  3
    327    328    331    333     1  0.0000000  1.0460000  1
    327    328    331    333     1  0.0000000  0.0000000  3
    325    327    328    329     1  0.0000000  1.6038667  3
    325    327    328    330     1  0.0000000  1.6038667  3
    323    322    324    325     1  180.0000771  15.1670000  2
    321    320    322    323     1  180.0000771  15.1670000  2
    321    320    322    324     1  180.0000771  15.1670000  2
    319    316    315    320     1  180.0000771  15.1670000  2
    319    316    317    324     1  180.0000771  15.1670000  2
    318    317    316    319     1  180.0000771  15.1670000  2
    318    317    324    322     1  180.0000771  15.1670000  2
    318    317    324    325     1  180.0000771  15.1670000  2
    317    324    322    323     1  180.0000771  15.1670000  2
    316    315    320    321     1  180.0000771  15.1670000  2
    315    316    317    318     1  180.0000771  15.1670000  2
    315    320    322    323     1  180.0000771  15.1670000  2
    313    315    316    319     1  180.0000771  15.1670000  2
    313    315    320    321     1  180.0000771  15.1670000  2
    311    309    312    313     1  0.0000000  1.6038667  3
    310    309    312    313     1  0.0000000  1.6038667  3
    364    362    365    366     1  0.0000000  0.6508444  3
    364    362    365    367     1  0.0000000  0.6508444  3
    364    362    365    368     1  0.0000000  1.0460000  1
    364    362    365    368     1  0.0000000  0.0000000  3
    363    362    365    366     1  0.0000000  0.6508444  3
    363    362    365    367     1  0.0000000  0.6508444  3
    363    362    365    368     1  0.0000000  1.0460000  1
    363    362    365    368     1  0.0000000  0.0000000  3
    361    359    362    363     1  0.0000000  0.5020800  3
    361    359    362    364     1  0.0000000  0.5020800  3
    361    359    362    365     1  0.0000000  0.5439200  3
    360    359    362    363     1  0.0000000  0.5020800  3
    360    359    362    364     1  0.0000000  0.5020800  3
    360    359    362    365     1  0.0000000  0.5439200  3
    359    362    365    366     1  0.0000000  0.6508444  3
    359    362    365    367     1  0.0000000  0.6508444  3
    358    356    359    360     1  0.0000000  0.6508444  3
    358    356    359    361     1  0.0000000  0.6508444  3
    358    356    359    362     1  0.0000000  0.6508444  3
    357    356    359    360     1  0.0000000  0.6508444  3
    357    356    359    361     1  0.0000000  0.6508444  3
    357    356    359    362     1  0.0000000  0.6508444  3
    356    359    362    363     1  0.0000000  0.5439200  3
    356    359    362    364     1  0.0000000  0.5439200  3
    355    356    359    360     1  0.0000000  1.0460000  1
    355    356    359    360     1  0.0000000  0.0000000  3
    355    356    359    361     1  0.0000000  1.0460000  1
    355    356    359    361     1  0.0000000  0.0000000  3
    353    355    356    357     1  0.0000000  1.6038667  3
    353    355    356    358     1  0.0000000  1.6038667  3
    351    350    352    353     1  180.0000771  15.1670000  2
    349    348    350    351     1  180.0000771  15.1670000  2
    349    348    350    352     1  180.0000771  15.1670000  2
    347    344    343    348     1  180.0000771  15.1670000  2
    347    344    345    352     1  180.0000771  15.1670000  2
    346    345    344    347     1  180.0000771  15.1670000  2
    346    345    352    350     1  180.0000771  15.1670000  2
    346    345    352    353     1  180.0000771  15.1670000  2
    345    352    350    351     1  180.0000771  15.1670000  2
    344    343    348    349     1  180.0000771  15.1670000  2
    343    344    345    346     1  180.0000771  15.1670000  2
    343    348    350    351     1  180.0000771  15.1670000  2
    341    343    344    347     1  180.0000771  15.1670000  2
    341    343    348    349     1  180.0000771  15.1670000  2
    339    337    340    341     1  0.0000000  1.6038667  3
    338    337    340    341     1  0.0000000  1.6038667  3
    392    390    393    394     1  0.0000000  0.6508444  3
    392    390    393    395     1  0.0000000  0.6508444  3
    392    390    393    396     1  0.0000000  1.0460000  1
    392    390    393    396     1  0.0000000  0.0000000  3
    391    390    393    394     1  0.0000000  0.6508444  3
    391    390    393    395     1  0.0000000  0.6508444  3
    391    390    393    396     1  0.0000000  1.0460000  1
    391    390    393    396     1  0.0000000  0.0000000  3
    389    387    390    391     1  0.0000000  0.5020800  3
    389    387    390    392     1  0.0000000  0.5020800  3
    389    387    390    393     1  0.0000000  0.5439200  3
    388    387    390    391     1  0.0000000  0.5020800  3
    388    387    390    392     1  0.0000000  0.5020800  3
    388    387    390    393     1  0.0000000  0.5439200  3
    387    390    393    394     1  0.0000000  0.6508444  3
    387    390    393    395     1  0.0000000  0.6508444  3
    386    384    387    388     1  0.0000000  0.6508444  3
    386    384    387    389     1  0.0000000  0.6508444  3
    386    384    387    390     1  0.0000000  0.6508444  3
    385    384    387    388     1  0.0000000  0.6508444  3
    385    384    387    389     1  0.0000000  0.6508444  3
    385    384    387    390     1  0.0000000  0.6508444  3
    384    387    390    391     1  0.0000000  0.5439200  3
    384    387    390    392     1  0.0000000  0.5439200  3
    383    384    387    388     1  0.0000000  1.0460000  1
    383    384    387    388     1  0.0000000  0.0000000  3
    383    384    387    389     1  0.0000000  1.0460000  1
    383    384    387    389     1  0.0000000  0.0000000  3
    381    383    384    385     1  0.0000000  1.6038667  3
    381    383    384    386     1  0.0000000  1.6038667  3
    379    378    380    381     1  180.0000771  15.1670000  2
    377    376    378    379     1  180.0000771  15.1670000  2
    377    376    378    380     1  180.0000771  15.1670000  2
    375    372    371    376     1  180.0000771  15.1670000  2
    375    372    373    380     1  180.0000771  15.1670000  2
    374    373    372    375     1  180.0000771  15.1670000  2
    374    373    380    378     1  180.0000771  15.1670000  2
    374    373    380    381     1  180.0000771  15.1670000  2
    373    380    378    379     1  180.0000771  15.1670000  2
    372    371    376    377     1  180.0000771  15.1670000  2
    371    372    373    374     1  180.0000771  15.1670000  2
    371    376    378    379     1  180.0000771  15.1670000  2
    369    371    372    375     1  180.0000771  15.1670000  2
    369    371    376    377     1  180.0000771  15.1670000  2
    367    365    368    369     1  0.0000000  1.6038667  3
    366    365    368    369     1  0.0000000  1.6038667  3
    420    418    421    422     1  0.0000000  0.6508444  3
    420    418    421    423     1  0.0000000  0.6508444  3
    420    418    421    424     1  0.0000000  1.0460000  1
    420    418    421    424     1  0.0000000  0.0000000  3
    419    418    421    422     1  0.0000000  0.6508444  3
    419    418    421    423     1  0.0000000  0.6508444  3
    419    418    421    424     1  0.0000000  1.0460000  1
    419    418    421    424     1  0.0000000  0.0000000  3
    417    415    418    419     1  0.0000000  0.5020800  3
    417    415    418    420     1  0.0000000  0.5020800  3
    417    415    418    421     1  0.0000000  0.5439200  3
    416    415    418    419     1  0.0000000  0.5020800  3
    416    415    418    420     1  0.0000000  0.5020800  3
    416    415    418    421     1  0.0000000  0.5439200  3
    415    418    421    422     1  0.0000000  0.6508444  3
    415    418    421    423     1  0.0000000  0.6508444  3
    414    412    415    416     1  0.0000000  0.6508444  3
    414    412    415    417     1  0.0000000  0.6508444  3
    414    412    415    418     1  0.0000000  0.6508444  3
    413    412    415    416     1  0.0000000  0.6508444  3
    413    412    415    417     1  0.0000000  0.6508444  3
    413    412    415    418     1  0.0000000  0.6508444  3
    412    415    418    419     1  0.0000000  0.5439200  3
    412    415    418    420     1  0.0000000  0.5439200  3
    411    412    415    416     1  0.0000000  1.0460000  1
    411    412    415    416     1  0.0000000  0.0000000  3
    411    412    415    417     1  0.0000000  1.0460000  1
    411    412    415    417     1  0.0000000  0.0000000  3
    409    411    412    413     1  0.0000000  1.6038667  3
    409    411    412    414     1  0.0000000  1.6038667  3
    407    406    408    409     1  180.0000771  15.1670000  2
    405    404    406    407     1  180.0000771  15.1670000  2
    405    404    406    408     1  180.0000771  15.1670000  2
    403    400    399    404     1  180.0000771  15.1670000  2
    403    400    401    408     1  180.0000771  15.1670000  2
    402    401    400    403     1  180.0000771  15.1670000  2
    402    401    408    406     1  180.0000771  15.1670000  2
    402    401    408    409     1  180.0000771  15.1670000  2
    401    408    406    407     1  180.0000771  15.1670000  2
    400    399    404    405     1  180.0000771  15.1670000  2
    399    400    401    402     1  180.0000771  15.1670000  2
    399    404    406    407     1  180.0000771  15.1670000  2
    397    399    400    403     1  180.0000771  15.1670000  2
    397    399    404    405     1  180.0000771  15.1670000  2
    395    393    396    397     1  0.0000000  1.6038667  3
    394    393    396    397     1  0.0000000  1.6038667  3
    448    446    449    450     1  0.0000000  0.6508444  3
    448    446    449    451     1  0.0000000  0.6508444  3
    448    446    449    452     1  0.0000000  1.0460000  1
    448    446    449    452     1  0.0000000  0.0000000  3
    447    446    449    450     1  0.0000000  0.6508444  3
    447    446    449    451     1  0.0000000  0.6508444  3
    447    446    449    452     1  0.0000000  1.0460000  1
    447    446    449    452     1  0.0000000  0.0000000  3
    445    443    446    447     1  0.0000000  0.5020800  3
    445    443    446    448     1  0.0000000  0.5020800  3
    445    443    446    449     1  0.0000000  0.5439200  3
    444    443    446    447     1  0.0000000  0.5020800  3
    444    443    446    448     1  0.0000000  0.5020800  3
    444    443    446    449     1  0.0000000  0.5439200  3
    443    446    449    450     1  0.0000000  0.6508444  3
    443    446    449    451     1  0.0000000  0.6508444  3
    442    440    443    444     1  0.0000000  0.6508444  3
    442    440    443    445     1  0.0000000  0.6508444  3
    442    440    443    446     1  0.0000000  0.6508444  3
    441    440    443    444     1  0.0000000  0.6508444  3
    441    440    443    445     1  0.0000000  0.6508444  3
    441    440    443    446     1  0.0000000  0.6508444  3
    440    443    446    447     1  0.0000000  0.5439200  3
    440    443    446    448     1  0.0000000  0.5439200  3
    439    440    443    444     1  0.0000000  1.0460000  1
    439    440    443    444     1  0.0000000  0.0000000  3
    439    440    443    445     1  0.0000000  1.0460000  1
    439    440    443    445     1  0.0000000  0.0000000  3
    437    439    440    441     1  0.0000000  1.6038667  3
    437    439    440    442     1  0.0000000  1.6038667  3
    435    434    436    437     1  180.0000771  15.1670000  2
    433    432    434    435     1  180.0000771  15.1670000  2
    433    432    434    436     1  180.0000771  15.1670000  2
    431    428    427    432     1  180.0000771  15.1670000  2
    431    428    429    436     1  180.0000771  15.1670000  2
    430    429    428    431     1  180.0000771  15.1670000  2
    430    429    436    434     1  180.0000771  15.1670000  2
    430    429    436    437     1  180.0000771  15.1670000  2
    429    436    434    435     1  180.0000771  15.1670000  2
    428    427    432    433     1  180.0000771  15.1670000  2
    427    428    429    430     1  180.0000771  15.1670000  2
    427    432    434    435     1  180.0000771  15.1670000  2
    425    427    428    431     1  180.0000771  15.1670000  2
    425    427    432    433     1  180.0000771  15.1670000  2
    423    421    424    425     1  0.0000000  1.6038667  3
    422    421    424    425     1  0.0000000  1.6038667  3
    476    474    477    478     1  0.0000000  0.6508444  3
    476    474    477    479     1  0.0000000  0.6508444  3
    476    474    477    480     1  0.0000000  1.0460000  1
    476    474    477    480     1  0.0000000  0.0000000  3
    475    474    477    478     1  0.0000000  0.6508444  3
    475    474    477    479     1  0.0000000  0.6508444  3
    475    474    477    480     1  0.0000000  1.0460000  1
    475    474    477    480     1  0.0000000  0.0000000  3
    473    471    474    475     1  0.0000000  0.5020800  3
    473    471    474    476     1  0.0000000  0.5020800  3
    473    471    474    477     1  0.0000000  0.5439200  3
    472    471    474    475     1  0.0000000  0.5020800  3
    472    471    474    476     1  0.0000000  0.5020800  3
    472    471    474    477     1  0.0000000  0.5439200  3
    471    474    477    478     1  0.0000000  0.6508444  3
    471    474    477    479     1  0.0000000  0.6508444  3
    470    468    471    472     1  0.0000000  0.6508444  3
    470    468    471    473     1  0.0000000  0.6508444  3
    470    468    471    474     1  0.0000000  0.6508444  3
    469    468    471    472     1  0.0000000  0.6508444  3
    469    468    471    473     1  0.0000000  0.6508444  3
    469    468    471    474     1  0.0000000  0.6508444  3
    468    471    474    475     1  0.0000000  0.5439200  3
    468    471    474    476     1  0.0000000  0.5439200  3
    467    468    471    472     1  0.0000000  1.0460000  1
    467    468    471    472     1  0.0000000  0.0000000  3
    467    468    471    473     1  0.0000000  1.0460000  1
    467    468    471    473     1  0.0000000  0.0000000  3
    465    467    468    469     1  0.0000000  1.6038667  3
    465    467    468    470     1  0.0000000  1.6038667  3
    463    462    464    465     1  180.0000771  15.1670000  2
    461    460    462    463     1  180.0000771  15.1670000  2
    461    460    462    464     1  180.0000771  15.1670000  2
    459    456    455    460     1  180.0000771  15.1670000  2
    459    456    457    464     1  180.0000771  15.1670000  2
    458    457    456    459     1  180.0000771  15.1670000  2
    458    457    464    462     1  180.0000771  15.1670000  2
    458    457    464    465     1  180.0000771  15.1670000  2
    457    464    462    463     1  180.0000771  15.1670000  2
    456    455    460    461     1  180.0000771  15.1670000  2
    455    456    457    458     1  180.0000771  15.1670000  2
    455    460    462    463     1  180.0000771  15.1670000  2
    453    455    456    459     1  180.0000771  15.1670000  2
    453    455    460    461     1  180.0000771  15.1670000  2
    451    449    452    453     1  0.0000000  1.6038667  3
    450    449    452    453     1  0.0000000  1.6038667  3
    504    502    505    506     1  0.0000000  0.6508444  3
    504    502    505    507     1  0.0000000  0.6508444  3
    504    502    505    508     1  0.0000000  1.0460000  1
    504    502    505    508     1  0.0000000  0.0000000  3
    503    502    505    506     1  0.0000000  0.6508444  3
    503    502    505    507     1  0.0000000  0.6508444  3
    503    502    505    508     1  0.0000000  1.0460000  1
    503    502    505    508     1  0.0000000  0.0000000  3
    501    499    502    503     1  0.0000000  0.5020800  3
    501    499    502    504     1  0.0000000  0.5020800  3
    501    499    502    505     1  0.0000000  0.5439200  3
    500    499    502    503     1  0.0000000  0.5020800  3
    500    499    502    504     1  0.0000000  0.5020800  3
    500    499    502    505     1  0.0000000  0.5439200  3
    499    502    505    506     1  0.0000000  0.6508444  3
    499    502    505    507     1  0.0000000  0.6508444  3
    498    496    499    500     1  0.0000000  0.6508444  3
    498    496    499    501     1  0.0000000  0.6508444  3
    498    496    499    502     1  0.0000000  0.6508444  3
    497    496    499    500     1  0.0000000  0.6508444  3
    497    496    499    501     1  0.0000000  0.6508444  3
    497    496    499    502     1  0.0000000  0.6508444  3
    496    499    502    503     1  0.0000000  0.5439200  3
    496    499    502    504     1  0.0000000  0.5439200  3
    495    496    499    500     1  0.0000000  1.0460000  1
    495    496    499    500     1  0.0000000  0.0000000  3
    495    496    499    501     1  0.0000000  1.0460000  1
    495    496    499    501     1  0.0000000  0.0000000  3
    493    495    496    497     1  0.0000000  1.6038667  3
    493    495    496    498     1  0.0000000  1.6038667  3
    491    490    492    493     1  180.0000771  15.1670000  2
    489    488    490    491     1  180.0000771  15.1670000  2
    489    488    490    492     1  180.0000771  15.1670000  2
    487    484    483    488     1  180.0000771  15.1670000  2
    487    484    485    492     1  180.0000771  15.1670000  2
    486    485    484    487     1  180.0000771  15.1670000  2
    486    485    492    490     1  180.0000771  15.1670000  2
    486    485    492    493     1  180.0000771  15.1670000  2
    485    492    490    491     1  180.0000771  15.1670000  2
    484    483    488    489     1  180.0000771  15.1670000  2
    483    484    485    486     1  180.0000771  15.1670000  2
    483    488    490    491     1  180.0000771  15.1670000  2
    481    483    484    487     1  180.0000771  15.1670000  2
    481    483    488    489     1  180.0000771  15.1670000  2
    479    477    480    481     1  0.0000000  1.6038667  3
    478    477    480    481     1  0.0000000  1.6038667  3
    532    530    533    534     1  0.0000000  0.6508444  3
    532    530    533    535     1  0.0000000  0.6508444  3
    532    530    533    536     1  0.0000000  1.0460000  1
    532    530    533    536     1  0.0000000  0.0000000  3
    531    530    533    534     1  0.0000000  0.6508444  3
    531    530    533    535     1  0.0000000  0.6508444  3
    531    530    533    536     1  0.0000000  1.0460000  1
    531    530    533    536     1  0.0000000  0.0000000  3
    529    527    530    531     1  0.0000000  0.5020800  3
    529    527    530    532     1  0.0000000  0.5020800  3
    529    527    530    533     1  0.0000000  0.5439200  3
    528    527    530    531     1  0.0000000  0.5020800  3
    528    527    530    532     1  0.0000000  0.5020800  3
    528    527    530    533     1  0.0000000  0.5439200  3
    527    530    533    534     1  0.0000000  0.6508444  3
    527    530    533    535     1  0.0000000  0.6508444  3
    526    524    527    528     1  0.0000000  0.6508444  3
    526    524    527    529     1  0.0000000  0.6508444  3
    526    524    527    530     1  0.0000000  0.6508444  3
    525    524    527    528     1  0.0000000  0.6508444  3
    525    524    527    529     1  0.0000000  0.6508444  3
    525    524    527    530     1  0.0000000  0.6508444  3
    524    527    530    531     1  0.0000000  0.5439200  3
    524    527    530    532     1  0.0000000  0.5439200  3
    523    524    527    528     1  0.0000000  1.0460000  1
    523    524    527    528     1  0.0000000  0.0000000  3
    523    524    527    529     1  0.0000000  1.0460000  1
    523    524    527    529     1  0.0000000  0.0000000  3
    521    523    524    525     1  0.0000000  1.6038667  3
    521    523    524    526     1  0.0000000  1.6038667  3
    519    518    520    521     1  180.0000771  15.1670000  2
    517    516    518    519     1  180.0000771  15.1670000  2
    517    516    518    520     1  180.0000771  15.1670000  2
    515    512    511    516     1  180.0000771  15.1670000  2
    515    512    513    520     1  180.0000771  15.1670000  2
    514    513    512    515     1  180.0000771  15.1670000  2
    514    513    520    518     1  180.0000771  15.1670000  2
    514    513    520    521     1  180.0000771  15.1670000  2
    513    520    518    519     1  180.0000771  15.1670000  2
    512    511    516    517     1  180.0000771  15.1670000  2
    511    512    513    514     1  180.0000771  15.1670000  2
    511    516    518    519     1  180.0000771  15.1670000  2
    509    511    512    515     1  180.0000771  15.1670000  2
    509    511    516    517     1  180.0000771  15.1670000  2
    507    505    508    509     1  0.0000000  1.6038667  3
    506    505    508    509     1  0.0000000  1.6038667  3
    560    558    561    562     1  0.0000000  0.6508444  3
    560    558    561    563     1  0.0000000  0.6508444  3
    560    558    561    564     1  0.0000000  1.0460000  1
    560    558    561    564     1  0.0000000  0.0000000  3
    559    558    561    562     1  0.0000000  0.6508444  3
    559    558    561    563     1  0.0000000  0.6508444  3
    559    558    561    564     1  0.0000000  1.0460000  1
    559    558    561    564     1  0.0000000  0.0000000  3
    557    555    558    559     1  0.0000000  0.5020800  3
    557    555    558    560     1  0.0000000  0.5020800  3
    557    555    558    561     1  0.0000000  0.5439200  3
    556    555    558    559     1  0.0000000  0.5020800  3
    556    555    558    560     1  0.0000000  0.5020800  3
    556    555    558    561     1  0.0000000  0.5439200  3
    555    558    561    562     1  0.0000000  0.6508444  3
    555    558    561    563     1  0.0000000  0.6508444  3
    554    552    555    556     1  0.0000000  0.6508444  3
    554    552    555    557     1  0.0000000  0.6508444  3
    554    552    555    558     1  0.0000000  0.6508444  3
    553    552    555    556     1  0.0000000  0.6508444  3
    553    552    555    557     1  0.0000000  0.6508444  3
    553    552    555    558     1  0.0000000  0.6508444  3
    552    555    558    559     1  0.0000000  0.5439200  3
    552    555    558    560     1  0.0000000  0.5439200  3
    551    552    555    556     1  0.0000000  1.0460000  1
    551    552    555    556     1  0.0000000  0.0000000  3
    551    552    555    557     1  0.0000000  1.0460000  1
    551    552    555    557     1  0.0000000  0.0000000  3
    549    551    552    553     1  0.0000000  1.6038667  3
    549    551    552    554     1  0.0000000  1.6038667  3
    547    546    548    549     1  180.0000771  15.1670000  2
    545    544    546    547     1  180.0000771  15.1670000  2
    545    544    546    548     1  180.0000771  15.1670000  2
    543    540    539    544     1  180.0000771  15.1670000  2
    543    540    541    548     1  180.0000771  15.1670000  2
    542    541    540    543     1  180.0000771  15.1670000  2
    542    541    548    546     1  180.0000771  15.1670000  2
    542    541    548    549     1  180.0000771  15.1670000  2
    541    548    546    547     1  180.0000771  15.1670000  2
    540    539    544    545     1  180.0000771  15.1670000  2
    539    540    541    542     1  180.0000771  15.1670000  2
    539    544    546    547     1  180.0000771  15.1670000  2
    537    539    540    543     1  180.0000771  15.1670000  2
    537    539    544    545     1  180.0000771  15.1670000  2
    535    533    536    537     1  0.0000000  1.6038667  3
    534    533    536    537     1  0.0000000  1.6038667  3
    588    586    589    590     1  0.0000000  0.6508444  3
    588    586    589    591     1  0.0000000  0.6508444  3
    588    586    589    592     1  0.0000000  1.0460000  1
    588    586    589    592     1  0.0000000  0.0000000  3
    587    586    589    590     1  0.0000000  0.6508444  3
    587    586    589    591     1  0.0000000  0.6508444  3
    587    586    589    592     1  0.0000000  1.0460000  1
    587    586    589    592     1  0.0000000  0.0000000  3
    585    583    586    587     1  0.0000000  0.5020800  3
    585    583    586    588     1  0.0000000  0.5020800  3
    585    583    586    589     1  0.0000000  0.5439200  3
    584    583    586    587     1  0.0000000  0.5020800  3
    584    583    586    588     1  0.0000000  0.5020800  3
    584    583    586    589     1  0.0000000  0.5439200  3
    583    586    589    590     1  0.0000000  0.6508444  3
    583    586    589    591     1  0.0000000  0.6508444  3
    582    580    583    584     1  0.0000000  0.6508444  3
    582    580    583    585     1  0.0000000  0.6508444  3
    582    580    583    586     1  0.0000000  0.6508444  3
    581    580    583    584     1  0.0000000  0.6508444  3
    581    580    583    585     1  0.0000000  0.6508444  3
    581    580    583    586     1  0.0000000  0.6508444  3
    580    583    586    587     1  0.0000000  0.5439200  3
    580    583    586    588     1  0.0000000  0.5439200  3
    579    580    583    584     1  0.0000000  1.0460000  1
    579    580    583    584     1  0.0000000  0.0000000  3
    579    580    583    585     1  0.0000000  1.0460000  1
    579    580    583    585     1  0.0000000  0.0000000  3
    577    579    580    581     1  0.0000000  1.6038667  3
    577    579    580    582     1  0.0000000  1.6038667  3
    575    574    576    577     1  180.0000771  15.1670000  2
    573    572    574    575     1  180.0000771  15.1670000  2
    573    572    574    576     1  180.0000771  15.1670000  2
    571    568    567    572     1  180.0000771  15.1670000  2
    571    568    569    576     1  180.0000771  15.1670000  2
    570    569    568    571     1  180.0000771  15.1670000  2
    570    569    576    574     1  180.0000771  15.1670000  2
    570    569    576    577     1  180.0000771  15.1670000  2
    569    576    574    575     1  180.0000771  15.1670000  2
    568    567    572    573     1  180.0000771  15.1670000  2
    567    568    569    570     1  180.0000771  15.1670000  2
    567    572    574    575     1  180.0000771  15.1670000  2
    565    567    568    571     1  180.0000771  15.1670000  2
    565    567    572    573     1  180.0000771  15.1670000  2
    563    561    564    565     1  0.0000000  1.6038667  3
    562    561    564    565     1  0.0000000  1.6038667  3
    616    614    617    618     1  0.0000000  0.6508444  3
    616    614    617    619     1  0.0000000  0.6508444  3
    616    614    617    620     1  0.0000000  1.0460000  1
    616    614    617    620     1  0.0000000  0.0000000  3
    615    614    617    618     1  0.0000000  0.6508444  3
    615    614    617    619     1  0.0000000  0.6508444  3
    615    614    617    620     1  0.0000000  1.0460000  1
    615    614    617    620     1  0.0000000  0.0000000  3
    613    611    614    615     1  0.0000000  0.5020800  3
    613    611    614    616     1  0.0000000  0.5020800  3
    613    611    614    617     1  0.0000000  0.5439200  3
    612    611    614    615     1  0.0000000  0.5020800  3
    612    611    614    616     1  0.0000000  0.5020800  3
    612    611    614    617     1  0.0000000  0.5439200  3
    611    614    617    618     1  0.0000000  0.6508444  3
    611    614    617    619     1  0.0000000  0.6508444  3
    610    608    611    612     1  0.0000000  0.6508444  3
    610    608    611    613     1  0.0000000  0.6508444  3
    610    608    611    614     1  0.0000000  0.6508444  3
    609    608    611    612     1  0.0000000  0.6508444  3
    609    608    611    613     1  0.0000000  0.6508444  3
    609    608    611    614     1  0.0000000  0.6508444  3
    608    611    614    615     1  0.0000000  0.5439200  3
    608    611    614    616     1  0.0000000  0.5439200  3
    607    608    611    612     1  0.0000000  1.0460000  1
    607    608    611    612     1  0.0000000  0.0000000  3
    607    608    611    613     1  0.0000000  1.0460000  1
    607    608    611    613     1  0.0000000  0.0000000  3
    605    607    608    609     1  0.0000000  1.6038667  3
    605    607    608    610     1  0.0000000  1.6038667  3
    603    602    604    605     1  180.0000771  15.1670000  2
    601    600    602    603     1  180.0000771  15.1670000  2
    601    600    602    604     1  180.0000771  15.1670000  2
    599    596    595    600     1  180.0000771  15.1670000  2
    599    596    597    604     1  180.0000771  15.1670000  2
    598    597    596    599     1  180.0000771  15.1670000  2
    598    597    604    602     1  180.0000771  15.1670000  2
    598    597    604    605     1  180.0000771  15.1670000  2
    597    604    602    603     1  180.0000771  15.1670000  2
    596    595    600    601     1  180.0000771  15.1670000  2
    595    596    597    598     1  180.0000771  15.1670000  2
    595    600    602    603     1  180.0000771  15.1670000  2
    593    595    596    599     1  180.0000771  15.1670000  2
    593    595    600    601     1  180.0000771  15.1670000  2
    591    589    592    593     1  0.0000000  1.6038667  3
    590    589    592    593     1  0.0000000  1.6038667  3
    644    642    645    646     1  0.0000000  0.6508444  3
    644    642    645    647     1  0.0000000  0.6508444  3
    644    642    645    648     1  0.0000000  1.0460000  1
    644    642    645    648     1  0.0000000  0.0000000  3
    643    642    645    646     1  0.0000000  0.6508444  3
    643    642    645    647     1  0.0000000  0.6508444  3
    643    642    645    648     1  0.0000000  1.0460000  1
    643    642    645    648     1  0.0000000  0.0000000  3
    641    639    642    643     1  0.0000000  0.5020800  3
    641    639    642    644     1  0.0000000  0.5020800  3
    641    639    642    645     1  0.0000000  0.5439200  3
    640    639    642    643     1  0.0000000  0.5020800  3
    640    639    642    644     1  0.0000000  0.5020800  3
    640    639    642    645     1  0.0000000  0.5439200  3
    639    642    645    646     1  0.0000000  0.6508444  3
    639    642    645    647     1  0.0000000  0.6508444  3
    638    636    639    640     1  0.0000000  0.6508444  3
    638    636    639    641     1  0.0000000  0.6508444  3
    638    636    639    642     1  0.0000000  0.6508444  3
    637    636    639    640     1  0.0000000  0.6508444  3
    637    636    639    641     1  0.0000000  0.6508444  3
    637    636    639    642     1  0.0000000  0.6508444  3
    636    639    642    643     1  0.0000000  0.5439200  3
    636    639    642    644     1  0.0000000  0.5439200  3
    635    636    639    640     1  0.0000000  1.0460000  1
    635    636    639    640     1  0.0000000  0.0000000  3
    635    636    639    641     1  0.0000000  1.0460000  1
    635    636    639    641     1  0.0000000  0.0000000  3
    633    635    636    637     1  0.0000000  1.6038667  3
    633    635    636    638     1  0.0000000  1.6038667  3
    631    630    632    633     1  180.0000771  15.1670000  2
    629    628    630    631     1  180.0000771  15.1670000  2
    629    628    630    632     1  180.0000771  15.1670000  2
    627    624    623    628     1  180.0000771  15.1670000  2
    627    624    625    632     1  180.0000771  15.1670000  2
    626    625    624    627     1  180.0000771  15.1670000  2
    626    625    632    630     1  180.0000771  15.1670000  2
    626    625    632    633     1  180.0000771  15.1670000  2
    625    632    630    631     1  180.0000771  15.1670000  2
    624    623    628    629     1  180.0000771  15.1670000  2
    623    624    625    626     1  180.0000771  15.1670000  2
    623    628    630    631     1  180.0000771  15.1670000  2
    621    623    624    627     1  180.0000771  15.1670000  2
    621    623    628    629     1  180.0000771  15.1670000  2
    619    617    620    621     1  0.0000000  1.6038667  3
    618    617    620    621     1  0.0000000  1.6038667  3
    672    670    673    674     1  0.0000000  0.6508444  3
    672    670    673    675     1  0.0000000  0.6508444  3
    672    670    673    676     1  0.0000000  1.0460000  1
    672    670    673    676     1  0.0000000  0.0000000  3
    671    670    673    674     1  0.0000000  0.6508444  3
    671    670    673    675     1  0.0000000  0.6508444  3
    671    670    673    676     1  0.0000000  1.0460000  1
    671    670    673    676     1  0.0000000  0.0000000  3
    669    667    670    671     1  0.0000000  0.5020800  3
    669    667    670    672     1  0.0000000  0.5020800  3
    669    667    670    673     1  0.0000000  0.5439200  3
    668    667    670    671     1  0.0000000  0.5020800  3
    668    667    670    672     1  0.0000000  0.5020800  3
    668    667    670    673     1  0.0000000  0.5439200  3
    667    670    673    674     1  0.0000000  0.6508444  3
    667    670    673    675     1  0.0000000  0.6508444  3
    666    664    667    668     1  0.0000000  0.6508444  3
    666    664    667    669     1  0.0000000  0.6508444  3
    666    664    667    670     1  0.0000000  0.6508444  3
    665    664    667    668     1  0.0000000  0.6508444  3
    665    664    667    669     1  0.0000000  0.6508444  3
    665    664    667    670     1  0.0000000  0.6508444  3
    664    667    670    671     1  0.0000000  0.5439200  3
    664    667    670    672     1  0.0000000  0.5439200  3
    663    664    667    668     1  0.0000000  1.0460000  1
    663    664    667    668     1  0.0000000  0.0000000  3
    663    664    667    669     1  0.0000000  1.0460000  1
    663    664    667    669     1  0.0000000  0.0000000  3
    661    663    664    665     1  0.0000000  1.6038667  3
    661    663    664    666     1  0.0000000  1.6038667  3
    659    658    660    661     1  180.0000771  15.1670000  2
    657    656    658    659     1  180.0000771  15.1670000  2
    657    656    658    660     1  180.0000771  15.1670000  2
    655    652    651    656     1  180.0000771  15.1670000  2
    655    652    653    660     1  180.0000771  15.1670000  2
    654    653    652    655     1  180.0000771  15.1670000  2
    654    653    660    658     1  180.0000771  15.1670000  2
    654    653    660    661     1  180.0000771  15.1670000  2
    653    660    658    659     1  180.0000771  15.1670000  2
    652    651    656    657     1  180.0000771  15.1670000  2
    651    652    653    654     1  180.0000771  15.1670000  2
    651    656    658    659     1  180.0000771  15.1670000  2
    649    651    652    655     1  180.0000771  15.1670000  2
    649    651    656    657     1  180.0000771  15.1670000  2
    647    645    648    649     1  0.0000000  1.6038667  3
    646    645    648    649     1  0.0000000  1.6038667  3
    697    695    698    699     1  0.0000000  0.5020800  3
    697    695    698    700     1  0.0000000  0.5020800  3
    696    695    698    699     1  0.0000000  0.5020800  3
    696    695    698    700     1  0.0000000  0.5020800  3
    694    692    695    696     1  0.0000000  0.6508444  3
    694    692    695    697     1  0.0000000  0.6508444  3
    694    692    695    698     1  0.0000000  0.6508444  3
    693    692    695    696     1  0.0000000  0.6508444  3
    693    692    695    697     1  0.0000000  0.6508444  3
    693    692    695    698     1  0.0000000  0.6508444  3
    692    695    698    699     1  0.0000000  0.5439200  3
    692    695    698    700     1  0.0000000  0.5439200  3
    691    692    695    696     1  0.0000000  1.0460000  1
    691    692    695    696     1  0.0000000  0.0000000  3
    691    692    695    697     1  0.0000000  1.0460000  1
    691    692    695    697     1  0.0000000  0.0000000  3
    689    691    692    693     1  0.0000000  1.6038667  3
    689    691    692    694     1  0.0000000  1.6038667  3
    687    686    688    689     1  180.0000771  15.1670000  2
    685    684    686    687     1  180.0000771  15.1670000  2
    685    684    686    688     1  180.0000771  15.1670000  2
    683    680    679    684     1  180.0000771  15.1670000  2
    683    680    681    688     1  180.0000771  15.1670000  2
    682    681    680    683     1  180.0000771  15.1670000  2
    682    681    688    686     1  180.0000771  15.1670000  2
    682    681    688    689     1  180.0000771  15.1670000  2
    681    688    686    687     1  180.0000771  15.1670000  2
    680    679    684    685     1  180.0000771  15.1670000  2
    679    680    681    682     1  180.0000771  15.1670000  2
    679    684    686    687     1  180.0000771  15.1670000  2
    677    679    680    683     1  180.0000771  15.1670000  2
    677    679    684    685     1  180.0000771  15.1670000  2
    675    673    676    677     1  0.0000000  1.6038667  3
    674    673    676    677     1  0.0000000  1.6038667  3
     12     16     14     15     4  180.0000771  4.6024000  2
      7     14     12     13     4  180.0000771  4.6024000  2
      8     16      9     10     4  180.0000771  4.6024000  2
      7      9      8     11     4  180.0000771  4.6024000  2
     40     44     42     43     4  180.0000771  4.6024000  2
     35     42     40     41     4  180.0000771  4.6024000  2
     36     44     37     38     4  180.0000771  4.6024000  2
     35     37     36     39     4  180.0000771  4.6024000  2
     68     72     70     71     4  180.0000771  4.6024000  2
     63     70     68     69     4  180.0000771  4.6024000  2
     64     72     65     66     4  180.0000771  4.6024000  2
     63     65     64     67     4  180.0000771  4.6024000  2
     96    100     98     99     4  180.0000771  4.6024000  2
     91     98     96     97     4  180.0000771  4.6024000  2
     92    100     93     94     4  180.0000771  4.6024000  2
     91     93     92     95     4  180.0000771  4.6024000  2
    124    128    126    127     4  180.0000771  4.6024000  2
    119    126    124    125     4  180.0000771  4.6024000  2
    120    128    121    122     4  180.0000771  4.6024000  2
    119    121    120    123     4  180.0000771  4.6024000  2
    152    156    154    155     4  180.0000771  4.6024000  2
    147    154    152    153     4  180.0000771  4.6024000  2
    148    156    149    150     4  180.0000771  4.6024000  2
    147    149    148    151     4  180.0000771  4.6024000  2
    180    184    182    183     4  180.0000771  4.6024000  2
    175    182    180    181     4  180.0000771  4.6024000  2
    176    184    177    178     4  180.0000771  4.6024000  2
    175    177    176    179     4  180.0000771  4.6024000  2
    208    212    210    211     4  180.0000771  4.6024000  2
    203    210    208    209     4  180.0000771  4.6024000  2
    204    212    205    206     4  180.0000771  4.6024000  2
    203    205    204    207     4  180.0000771  4.6024000  2
    236    240    238    239     4  180.0000771  4.6024000  2
    231    238    236    237     4  180.0000771  4.6024000  2
    232    240    233    234     4  180.0000771  4.6024000  2
    231    233    232    235     4  180.0000771  4.6024000  2
    264    268    266    267     4  180.0000771  4.6024000  2
    259    266    264    265     4  180.0000771  4.6024000  2
    260    268    261    262     4  180.0000771  4.6024000  2
    259    261    260    263     4  180.0000771  4.6024000  2
    292    296    294    295     4  180.0000771  4.6024000  2
    287    294    292    293     4  180.0000771  4.6024000  2
    288    296    289    290     4  180.0000771  4.6024000  2
    287    289    288    291     4  180.0000771  4.6024000  2
    320    324    322    323     4  180.0000771  4.6024000  2
    315    322    320    321     4  180.0000771  4.6024000  2
    316    324    317    318     4  180.0000771  4.6024000  2
    315    317    316    319     4  180.0000771  4.6024000  2
    348    352    350    351     4  180.0000771  4.6024000  2
    343    350    348    349     4  180.0000771  4.6024000  2
    344    352    345    346     4  180.0000771  4.6024000  2
    343    345    344    347     4  180.0000771  4.6024000  2
    376    380    378    379     4  180.0000771  4.6024000  2
    371    378    376    377     4  180.0000771  4.6024000  2
    372    380    373    374     4  180.0000771  4.6024000  2
    371    373    372    375     4  180.0000771  4.6024000  2
    404    408    406    407     4  180.0000771  4.6024000  2
    399    406    404    405     4  180.0000771  4.6024000  2
    400    408    401    402     4  180.0000771  4.6024000  2
    399    401    400    403     4  180.0000771  4.6024000  2
    432    436    434    435     4  180.0000771  4.6024000  2
    427    434    432    433     4  180.0000771  4.6024000  2
    428    436    429    430     4  180.0000771  4.6024000  2
    427    429    428    431     4  180.0000771  4.6024000  2
    460    464    462    463     4  180.0000771  4.6024000  2
    455    462    460    461     4  180.0000771  4.6024000  2
    456    464    457    458     4  180.0000771  4.6024000  2
    455    457    456    459     4  180.0000771  4.6024000  2
    488    492    490    491     4  180.0000771  4.6024000  2
    483    490    488    489     4  180.0000771  4.6024000  2
    484    492    485    486     4  180.0000771  4.6024000  2
    483    485    484    487     4  180.0000771  4.6024000  2
    516    520    518    519     4  180.0000771  4.6024000  2
    511    518    516    517     4  180.0000771  4.6024000  2
    512    520    513    514     4  180.0000771  4.6024000  2
    511    513    512    515     4  180.0000771  4.6024000  2
    544    548    546    547     4  180.0000771  4.6024000  2
    539    546    544    545     4  180.0000771  4.6024000  2
    540    548    541    542     4  180.0000771  4.6024000  2
    539    541    540    543     4  180.0000771  4.6024000  2
    572    576    574    575     4  180.0000771  4.6024000  2
    567    574    572    573     4  180.0000771  4.6024000  2
    568    576    569    570     4  180.0000771  4.6024000  2
    567    569    568    571     4  180.0000771  4.6024000  2
    600    604    602    603     4  180.0000771  4.6024000  2
    595    602    600    601     4  180.0000771  4.6024000  2
    596    604    597    598     4  180.0000771  4.6024000  2
    595    597    596    599     4  180.0000771  4.6024000  2
    628    632    630    631     4  180.0000771  4.6024000  2
    623    630    628    629     4  180.0000771  4.6024000  2
    624    632    625    626     4  180.0000771  4.6024000  2
    623    625    624    627     4  180.0000771  4.6024000  2
    656    660    658    659     4  180.0000771  4.6024000  2
    651    658    656    657     4  180.0000771  4.6024000  2
    652    660    653    654     4  180.0000771  4.6024000  2
    651    653    652    655     4  180.0000771  4.6024000  2
    684    688    686    687     4  180.0000771  4.6024000  2
    679    686    684    685     4  180.0000771  4.6024000  2
    680    688    681    682     4  180.0000771  4.6024000  2
    679    681    680    683     4  180.0000771  4.6024000  2

[ system ]
; Name
Generic title

[ molecules ]
; Compound       #mols
system1              1
